    -----------------------------------------------------------------------
          Psi4: An Open-Source Ab Initio Electronic Structure Package
                              Psi4 (no tag) Driver

                          Git: Rev {detached?}  

    J. M. Turney, A. C. Simmonett, R. M. Parrish, E. G. Hohenstein,
    F. A. Evangelista, J. T. Fermann, B. J. Mintz, L. A. Burns, J. J. Wilke,
    M. L. Abrams, N. J. Russ, M. L. Leininger, C. L. Janssen, E. T. Seidl,
    W. D. Allen, H. F. Schaefer, R. A. King, E. F. Valeev, C. D. Sherrill,
    and T. D. Crawford, WIREs Comput. Mol. Sci. 2, 556-565 (2012)
    (doi: 10.1002/wcms.93)

                         Additional Contributions by
    A. E. DePrince, M. Saitow, U. Bozkaya, A. Yu. Sokolov
    -----------------------------------------------------------------------


    Psi4 started on: Tue Jul  5 16:34:50 2016

    Process ID:  28619
    PSI4DATADIR: /export131/home/mjharvey/miniconda3/share
    Memory level set to 256.000 MB

  ==> Input File <==

--------------------------------------------------------------------------
set {
	reference rhf
	basis 6-31G*
}


set_num_threads( 1 )
memory 2 gb

molecule MOL {
0 1

H	 2.570845	 -2.791077	 1.236504
C	 1.973216	 -2.991969	 0.353197
C	 0.741571	 -2.088804	 0.305179
H	 2.607096	 -2.837800	 -0.515512
H	 1.693563	 -4.041506	 0.375856
C	 -0.127859	 -2.340084	 -0.922563
H	 1.041415	 -1.045507	 0.308800
H	 0.146639	 -2.243420	 1.203812
N	 -1.268658	 -1.446027	 -0.948991
H	 0.458411	 -2.160495	 -1.819780
H	 -0.423685	 -3.394112	 -0.952374
C	 -1.217365	 -0.386708	 0.039277
H	 -1.355622	 -1.044301	 -1.863373
C	 -2.452633	 0.504241	 -0.042481
H	 -1.172857	 -0.848333	 1.022069
H	 -0.315698	 0.227728	 -0.054795
C	 -3.758029	 -0.289423	 -0.010781
H	 -2.394220	 1.093569	 -0.952170
H	 -2.440793	 1.210787	 0.785871
H	 -3.816659	 -0.981993	 -0.845726
H	 -4.617837	 0.370165	 -0.069296
H	 -3.847478	 -0.867502	 0.904682

	symmetry c1
}
set optking {
	frozen_dihedral = ("
		15 12 14 18
	")
}

ee = energy('scf')
oeprop('DIPOLE', 'QUADRUPOLE', 'MULLIKEN_CHARGES')
f=open( 'psi4out.xyz', 'w' )
f.write( "22  " )
f.write( str(ee) + "\n" )
f.write( MOL.save_string_xyz() )
f.close()
--------------------------------------------------------------------------

  Memory set to   2.000 GiB by Python script.

*** tstart() called on cx1-3-1-3.cx1.hpc.ic.ac.uk
*** at Tue Jul  5 16:34:50 2016


         ---------------------------------------------------------
                                   SCF
            by Justin Turney, Rob Parrish, and Andy Simmonett
                              RHF Reference
                        1 Threads,   2000 MiB Core
         ---------------------------------------------------------

  ==> Geometry <==

    Molecular point group: c1
    Full point group: C1

    Geometry (in Angstrom), charge = 0, multiplicity = 1:

       Center              X                  Y                   Z               Mass       
    ------------   -----------------  -----------------  -----------------  -----------------
           H          3.439294843962    -1.496907236698     1.413243270729     1.007825032070
           C          2.841665843962    -1.697799236698     0.529936270729    12.000000000000
           C          1.610020843962    -0.794634236698     0.481918270729    12.000000000000
           H          3.475545843962    -1.543630236698    -0.338772729271     1.007825032070
           H          2.562012843962    -2.747336236698     0.552595270729     1.007825032070
           C          0.740590843962    -1.045914236698    -0.745823729271    12.000000000000
           H          1.909864843962     0.248662763302     0.485539270729     1.007825032070
           H          1.015088843962    -0.949250236698     1.380551270729     1.007825032070
           N         -0.400208156038    -0.151857236698    -0.772251729271    14.003074004780
           H          1.326860843962    -0.866325236698    -1.643040729271     1.007825032070
           H          0.444764843962    -2.099942236698    -0.775634729271     1.007825032070
           C         -0.348915156038     0.907461763302     0.216016270729    12.000000000000
           H         -0.487172156038     0.249868763302    -1.686633729271     1.007825032070
           C         -1.584183156038     1.798410763302     0.134258270729    12.000000000000
           H         -0.304407156038     0.445836763302     1.198808270729     1.007825032070
           H          0.552751843962     1.521897763302     0.121944270729     1.007825032070
           C         -2.889579156038     1.004746763302     0.165958270729    12.000000000000
           H         -1.525770156038     2.387738763302    -0.775430729271     1.007825032070
           H         -1.572343156038     2.504956763302     0.962610270729     1.007825032070
           H         -2.948209156038     0.312176763302    -0.668986729271     1.007825032070
           H         -3.749387156038     1.664334763302     0.107443270729     1.007825032070
           H         -2.979028156038     0.426667763302     1.081421270729     1.007825032070

  Running in c1 symmetry.

  Rotational constants: A =      0.23327  B =      0.03477  C =      0.03304 [cm^-1]
  Rotational constants: A =   6993.23292  B =   1042.28163  C =    990.52220 [MHz]
  Nuclear repulsion =  326.588283948681919

  Charge       = 0
  Multiplicity = 1
  Electrons    = 58
  Nalpha       = 29
  Nbeta        = 29

  ==> Algorithm <==

  SCF Algorithm Type is DF.
  DIIS enabled.
  MOM disabled.
  Fractional occupation disabled.
  Guess Type is CORE.
  Energy threshold   = 1.00e-06
  Density threshold  = 1.00e-06
  Integral threshold = 0.00e+00

  ==> Primary Basis <==

  Basis Set: 6-31G*
    Number of shells: 72
    Number of basis function: 135
    Number of Cartesian functions: 135
    Spherical Harmonics?: false
    Max angular momentum: 2

  ==> Pre-Iterations <==

   -------------------------------------------------------
    Irrep   Nso     Nmo     Nalpha   Nbeta   Ndocc  Nsocc
   -------------------------------------------------------
     A        135     135       0       0       0       0
   -------------------------------------------------------
    Total     135     135      29      29      29       0
   -------------------------------------------------------

 OEINTS: Overlap, kinetic, potential, dipole, and quadrupole integrals
         stored in file 35.

  ==> Integral Setup <==

  ==> DFJK: Density-Fitted J/K Matrices <==

    J tasked:                  Yes
    K tasked:                  Yes
    wK tasked:                  No
    OpenMP threads:              1
    Integrals threads:           1
    Memory (MB):              1430
    Algorithm:                Core
    Integral Cache:           NONE
    Schwarz Cutoff:          1E-12
    Fitting Condition:       1E-12

   => Auxiliary Basis Set <=

  Basis Set: 
    Number of shells: 303
    Number of basis function: 942
    Number of Cartesian functions: 942
    Spherical Harmonics?: false
    Max angular momentum: 3

  Minimum eigenvalue in the overlap matrix is 3.0776801940E-03.
  Using Symmetric Orthogonalization.
  SCF Guess: Core (One-Electron) Hamiltonian.

  ==> Iterations <==

                           Total Energy        Delta E     RMS |[F,P]|

   @DF-RHF iter   1:  -205.86342386374645   -2.05863e+02   7.06999e-02 
   @DF-RHF iter   2:  -155.43070901462198    5.04327e+01   6.54975e-02 DIIS
   @DF-RHF iter   3:  -255.15530509950281   -9.97246e+01   3.85221e-02 DIIS
   @DF-RHF iter   4:  -231.35637233881789    2.37989e+01   5.81002e-02 DIIS
   @DF-RHF iter   5:  -289.93003696761889   -5.85737e+01   6.42757e-03 DIIS
   @DF-RHF iter   6:  -290.29492829439198   -3.64891e-01   2.66714e-03 DIIS
   @DF-RHF iter   7:  -290.35553881755527   -6.06105e-02   6.02079e-04 DIIS
   @DF-RHF iter   8:  -290.36006485225539   -4.52603e-03   1.82205e-04 DIIS
   @DF-RHF iter   9:  -290.36044018317034   -3.75331e-04   6.39943e-05 DIIS
   @DF-RHF iter  10:  -290.36048990570805   -4.97225e-05   1.75825e-05 DIIS
   @DF-RHF iter  11:  -290.36049575506354   -5.84936e-06   5.62933e-06 DIIS
   @DF-RHF iter  12:  -290.36049625518865   -5.00125e-07   1.65899e-06 DIIS
   @DF-RHF iter  13:  -290.36049630249909   -4.73104e-08   4.74390e-07 DIIS

  ==> Post-Iterations <==

    Orbital Energies (a.u.)
    -----------------------

    Doubly Occupied:                                                      

       1A    -15.530773     2A    -11.238630     3A    -11.235607  
       4A    -11.214147     5A    -11.211329     6A    -11.210017  
       7A    -11.197611     8A     -1.208744     9A     -1.053615  
      10A     -1.022815    11A     -0.924858    12A     -0.886456  
      13A     -0.819986    14A     -0.762897    15A     -0.666840  
      16A     -0.642173    17A     -0.616831    18A     -0.606634  
      19A     -0.579143    20A     -0.547684    21A     -0.537642  
      22A     -0.536502    23A     -0.498471    24A     -0.486541  
      25A     -0.478198    26A     -0.475268    27A     -0.462552  
      28A     -0.451450    29A     -0.348431  

    Virtual:                                                              

      30A      0.221915    31A      0.240251    32A      0.253280  
      33A      0.279389    34A      0.288145    35A      0.307058  
      36A      0.309006    37A      0.314400    38A      0.328299  
      39A      0.338701    40A      0.340881    41A      0.349798  
      42A      0.366961    43A      0.385464    44A      0.389243  
      45A      0.412046    46A      0.435648    47A      0.439076  
      48A      0.453162    49A      0.479842    50A      0.507674  
      51A      0.713584    52A      0.730048    53A      0.739292  
      54A      0.744899    55A      0.756230    56A      0.769492  
      57A      0.799185    58A      0.823710    59A      0.863549  
      60A      0.896417    61A      0.934360    62A      0.947421  
      63A      0.960520    64A      0.968810    65A      1.011016  
      66A      1.035651    67A      1.081779    68A      1.106252  
      69A      1.126670    70A      1.149562    71A      1.159748  
      72A      1.165079    73A      1.177539    74A      1.183368  
      75A      1.198001    76A      1.202078    77A      1.213055  
      78A      1.214284    79A      1.226087    80A      1.232153  
      81A      1.246112    82A      1.255003    83A      1.271420  
      84A      1.291592    85A      1.314700    86A      1.380221  
      87A      1.428302    88A      1.566651    89A      1.648619  
      90A      1.661634    91A      1.674774    92A      1.716953  
      93A      1.782390    94A      1.805023    95A      1.867474  
      96A      1.915926    97A      1.974751    98A      2.047356  
      99A      2.139559   100A      2.156578   101A      2.165503  
     102A      2.248951   103A      2.274167   104A      2.289722  
     105A      2.306328   106A      2.314789   107A      2.349321  
     108A      2.387487   109A      2.439893   110A      2.461203  
     111A      2.485776   112A      2.522455   113A      2.555510  
     114A      2.629337   115A      2.663140   116A      2.676626  
     117A      2.705495   118A      2.725703   119A      2.741668  
     120A      2.776325   121A      2.807783   122A      2.891166  
     123A      2.919969   124A      2.983145   125A      3.032484  
     126A      3.097637   127A      3.191120   128A      3.278160  
     129A      4.409624   130A      4.610116   131A      4.625642  
     132A      4.747551   133A      4.789597   134A      4.919307  
     135A      5.000917  

    Final Occupation by Irrep:
              A 
    DOCC [    29 ]

  Energy converged.

  @DF-RHF Final Energy:  -290.36049630249909

   => Energetics <=

    Nuclear Repulsion Energy =            326.5882839486819194
    One-Electron Energy =               -1038.9938015646694112
    Two-Electron Energy =                 422.0450213134893147
    DFT Exchange-Correlation Energy =       0.0000000000000000
    Empirical Dispersion Energy =           0.0000000000000000
    PCM Polarization Energy =               0.0000000000000000
    EFP Energy =                            0.0000000000000000
    Total Energy =                       -290.3604963024981771

    Alert: EFP and PCM quantities not currently incorporated into SCF psivars.

Properties will be evaluated at   0.000000,   0.000000,   0.000000 Bohr
  ==> Properties <==


Properties computed using the SCF density matrix

  Nuclear Dipole Moment: (a.u.)
     X:     1.0885      Y:     0.0555      Z:     1.3294

  Electronic Dipole Moment: (a.u.)
     X:    -0.6824      Y:     0.1944      Z:    -1.4335

  Dipole Moment: (a.u.)
     X:     0.4061      Y:     0.2500      Z:    -0.1041     Total:     0.4881

  Dipole Moment: (Debye)
     X:     1.0322      Y:     0.6353      Z:    -0.2646     Total:     1.2406


  Saving occupied orbitals to File 180.

*** tstop() called on cx1-3-1-3.cx1.hpc.ic.ac.uk at Tue Jul  5 16:35:03 2016
Module time:
	user time   =      12.08 seconds =       0.20 minutes
	system time =       0.08 seconds =       0.00 minutes
	total time  =         13 seconds =       0.22 minutes
Total time:
	user time   =      12.08 seconds =       0.20 minutes
	system time =       0.08 seconds =       0.00 minutes
	total time  =         13 seconds =       0.22 minutes


Properties will be evaluated at   0.000000,   0.000000,   0.000000 Bohr

Properties computed using the  density matrix

  Nuclear Dipole Moment: (a.u.)
     X:     1.0885      Y:     0.0555      Z:     1.3294

  Electronic Dipole Moment: (a.u.)
     X:    -0.6824      Y:     0.1944      Z:    -1.4335

  Dipole Moment: (a.u.)
     X:     0.4061      Y:     0.2500      Z:    -0.1041     Total:     0.4881

  Dipole Moment: (Debye)
     X:     1.0322      Y:     0.6353      Z:    -0.2646     Total:     1.2406

  Quadrupole Moment: (Debye Ang)
    XX:   -50.0354     YY:   -47.9174     ZZ:   -45.3091
    XY:    -0.5784     XZ:    -0.4456     YZ:    -0.7822

  Traceless Quadrupole Moment: (Debye Ang)
    XX:    -2.2814     YY:    -0.1634     ZZ:     2.4449
    XY:    -0.5784     XZ:    -0.4456     YZ:    -0.7822

  Mulliken Charges: (a.u.)
   Center  Symbol    Alpha    Beta     Spin     Total
       1     H     0.41845  0.41845  0.00000  0.16311
       2     C     3.23838  3.23838  0.00000 -0.47676
       3     C     3.17466  3.17466  0.00000 -0.34933
       4     H     0.42223  0.42223  0.00000  0.15555
       5     H     0.42059  0.42059  0.00000  0.15881
       6     C     3.03545  3.03545  0.00000 -0.07091
       7     H     0.41686  0.41686  0.00000  0.16629
       8     H     0.41605  0.41605  0.00000  0.16790
       9     N     3.86022  3.86022  0.00000 -0.72043
      10     H     0.43192  0.43192  0.00000  0.13617
      11     H     0.42242  0.42242  0.00000  0.15515
      12     C     3.06174  3.06174  0.00000 -0.12348
      13     H     0.33297  0.33297  0.00000  0.33406
      14     C     3.15714  3.15714  0.00000 -0.31427
      15     H     0.41775  0.41775  0.00000  0.16449
      16     H     0.43199  0.43199  0.00000  0.13602
      17     C     3.23358  3.23358  0.00000 -0.46716
      18     H     0.42684  0.42684  0.00000  0.14631
      19     H     0.42154  0.42154  0.00000  0.15692
      20     H     0.41048  0.41048  0.00000  0.17904
      21     H     0.42502  0.42502  0.00000  0.14996
      22     H     0.42371  0.42371  0.00000  0.15257

   Total alpha = 29.00000, Total beta = 29.00000, Total charge =  0.00000


*** PSI4 exiting successfully. Buy a developer a beer!
