    -----------------------------------------------------------------------
          Psi4: An Open-Source Ab Initio Electronic Structure Package
                              Psi4 (no tag) Driver

                          Git: Rev {detached?}  

    J. M. Turney, A. C. Simmonett, R. M. Parrish, E. G. Hohenstein,
    F. A. Evangelista, J. T. Fermann, B. J. Mintz, L. A. Burns, J. J. Wilke,
    M. L. Abrams, N. J. Russ, M. L. Leininger, C. L. Janssen, E. T. Seidl,
    W. D. Allen, H. F. Schaefer, R. A. King, E. F. Valeev, C. D. Sherrill,
    and T. D. Crawford, WIREs Comput. Mol. Sci. 2, 556-565 (2012)
    (doi: 10.1002/wcms.93)

                         Additional Contributions by
    A. E. DePrince, M. Saitow, U. Bozkaya, A. Yu. Sokolov
    -----------------------------------------------------------------------


    Psi4 started on: Tue Jul  5 16:35:54 2016

    Process ID:  18455
    PSI4DATADIR: /export131/home/mjharvey/miniconda3/share
    Memory level set to 256.000 MB

  ==> Input File <==

--------------------------------------------------------------------------
set {
	reference rhf
	basis 6-31G*
}


set_num_threads( 1 )
memory 2 gb

molecule MOL {
0 1

H	 -2.098997	 -0.674324	 -0.616650
O	 -2.035884	 -0.060112	 0.102722
C	 -0.955155	 0.788182	 -0.092531
C	 0.353668	 0.040312	 -0.004810
H	 -0.985057	 1.290372	 -1.054184
H	 -0.974469	 1.533190	 0.688632
F	 0.282818	 -1.105829	 -0.672577
F	 1.331830	 0.755346	 -0.536904
F	 0.689432	 -0.245246	 1.236668

	symmetry c1
}
set optking {
	frozen_dihedral = ("
		1 2 3 5
	")
}

ee = energy('scf')
oeprop('DIPOLE', 'QUADRUPOLE', 'MULLIKEN_CHARGES')
f=open( 'psi4out.xyz', 'w' )
f.write( "9  " )
f.write( str(ee) + "\n" )
f.write( MOL.save_string_xyz() )
f.close()
--------------------------------------------------------------------------

  Memory set to   2.000 GiB by Python script.

*** tstart() called on cx1-3-2-1.cx1.hpc.ic.ac.uk
*** at Tue Jul  5 16:35:55 2016


         ---------------------------------------------------------
                                   SCF
            by Justin Turney, Rob Parrish, and Andy Simmonett
                              RHF Reference
                        1 Threads,   2000 MiB Core
         ---------------------------------------------------------

  ==> Geometry <==

    Molecular point group: c1
    Full point group: C1

    Geometry (in Angstrom), charge = 0, multiplicity = 1:

       Center              X                  Y                   Z               Mass       
    ------------   -----------------  -----------------  -----------------  -----------------
           H         -2.098016384082    -0.672610211009    -0.616665592338     1.007825032070
           O         -2.034903384082    -0.058398211009     0.102706407662    15.994914619560
           C         -0.954174384082     0.789895788991    -0.092546592338    12.000000000000
           C          0.354648615918     0.042025788991    -0.004825592338    12.000000000000
           H         -0.984076384082     1.292085788991    -1.054199592338     1.007825032070
           H         -0.973488384082     1.534903788991     0.688616407662     1.007825032070
           F          0.283798615918    -1.104115211009    -0.672592592338    18.998403224000
           F          1.332810615918     0.757059788991    -0.536919592338    18.998403224000
           F          0.690412615918    -0.243532211009     1.236652407662    18.998403224000

  Running in c1 symmetry.

  Rotational constants: A =      0.18212  B =      0.09646  C =      0.09542 [cm^-1]
  Rotational constants: A =   5459.78654  B =   2891.71996  C =   2860.63009 [MHz]
  Nuclear repulsion =  277.217220715449230

  Charge       = 0
  Multiplicity = 1
  Electrons    = 50
  Nalpha       = 25
  Nbeta        = 25

  ==> Algorithm <==

  SCF Algorithm Type is DF.
  DIIS enabled.
  MOM disabled.
  Fractional occupation disabled.
  Guess Type is CORE.
  Energy threshold   = 1.00e-06
  Density threshold  = 1.00e-06
  Integral threshold = 0.00e+00

  ==> Primary Basis <==

  Basis Set: 6-31G*
    Number of shells: 42
    Number of basis function: 96
    Number of Cartesian functions: 96
    Spherical Harmonics?: false
    Max angular momentum: 2

  ==> Pre-Iterations <==

   -------------------------------------------------------
    Irrep   Nso     Nmo     Nalpha   Nbeta   Ndocc  Nsocc
   -------------------------------------------------------
     A         96      96       0       0       0       0
   -------------------------------------------------------
    Total      96      96      25      25      25       0
   -------------------------------------------------------

 OEINTS: Overlap, kinetic, potential, dipole, and quadrupole integrals
         stored in file 35.

  ==> Integral Setup <==

  ==> DFJK: Density-Fitted J/K Matrices <==

    J tasked:                  Yes
    K tasked:                  Yes
    wK tasked:                  No
    OpenMP threads:              1
    Integrals threads:           1
    Memory (MB):              1430
    Algorithm:                Core
    Integral Cache:           NONE
    Schwarz Cutoff:          1E-12
    Fitting Condition:       1E-12

   => Auxiliary Basis Set <=

  Basis Set: 
    Number of shells: 171
    Number of basis function: 561
    Number of Cartesian functions: 561
    Spherical Harmonics?: false
    Max angular momentum: 3

  Minimum eigenvalue in the overlap matrix is 1.9148857554E-03.
  Using Symmetric Orthogonalization.
  SCF Guess: Core (One-Electron) Hamiltonian.

  ==> Iterations <==

                           Total Energy        Delta E     RMS |[F,P]|

   @DF-RHF iter   1:  -399.42385833785670   -3.99424e+02   9.00618e-02 
   @DF-RHF iter   2:  -271.45226998686917    1.27972e+02   9.70258e-02 DIIS
   @DF-RHF iter   3:  -397.20276956607347   -1.25750e+02   6.49320e-02 DIIS
   @DF-RHF iter   4:  -448.71395534566204   -5.15112e+01   2.24881e-02 DIIS
   @DF-RHF iter   5:  -450.41518101442864   -1.70123e+00   8.30919e-03 DIIS
   @DF-RHF iter   6:  -450.58300678799219   -1.67826e-01   4.25047e-03 DIIS
   @DF-RHF iter   7:  -450.65017462755918   -6.71678e-02   1.41118e-03 DIIS
   @DF-RHF iter   8:  -450.66090453701679   -1.07299e-02   3.58401e-04 DIIS
   @DF-RHF iter   9:  -450.66168673098457   -7.82194e-04   1.05892e-04 DIIS
   @DF-RHF iter  10:  -450.66173765208748   -5.09211e-05   3.76183e-05 DIIS
   @DF-RHF iter  11:  -450.66174871859641   -1.10665e-05   8.07803e-06 DIIS
   @DF-RHF iter  12:  -450.66174936667790   -6.48081e-07   1.89609e-06 DIIS
   @DF-RHF iter  13:  -450.66174939164443   -2.49665e-08   8.12405e-07 DIIS

  ==> Post-Iterations <==

    Orbital Energies (a.u.)
    -----------------------

    Doubly Occupied:                                                      

       1A    -26.343682     2A    -26.343518     3A    -26.339905  
       4A    -20.589381     5A    -11.500379     6A    -11.309178  
       7A     -1.740543     8A     -1.639190     9A     -1.637437  
      10A     -1.401674    11A     -1.048234    12A     -0.923574  
      13A     -0.830652    14A     -0.829105    15A     -0.806943  
      16A     -0.725484    17A     -0.711954    18A     -0.698477  
      19A     -0.664659    20A     -0.659786    21A     -0.642917  
      22A     -0.628224    23A     -0.613789    24A     -0.530524  
      25A     -0.479944  

    Virtual:                                                              

      26A      0.217180    27A      0.267830    28A      0.287141  
      29A      0.333986    30A      0.417241    31A      0.433551  
      32A      0.475354    33A      0.486731    34A      0.694929  
      35A      0.742974    36A      0.753319    37A      0.776883  
      38A      0.814408    39A      0.881873    40A      0.939366  
      41A      1.052832    42A      1.128219    43A      1.148102  
      44A      1.187121    45A      1.234958    46A      1.316688  
      47A      1.338739    48A      1.360602    49A      1.366737  
      50A      1.446465    51A      1.479088    52A      1.600470  
      53A      1.607232    54A      1.628953    55A      1.634653  
      56A      1.668796    57A      1.671942    58A      1.691946  
      59A      1.734554    60A      1.882995    61A      1.911616  
      62A      1.962517    63A      1.975405    64A      2.001747  
      65A      2.112635    66A      2.139592    67A      2.140949  
      68A      2.159156    69A      2.264168    70A      2.276832  
      71A      2.318944    72A      2.368493    73A      2.382359  
      74A      2.398205    75A      2.414287    76A      2.418204  
      77A      2.494891    78A      2.581298    79A      2.668776  
      80A      2.689621    81A      2.740474    82A      2.875074  
      83A      2.924316    84A      3.102155    85A      3.143734  
      86A      3.174350    87A      3.262669    88A      3.414893  
      89A      3.424885    90A      3.442506    91A      4.136643  
      92A      4.600329    93A      4.777446    94A      4.902217  
      95A      5.080720    96A      5.713061  

    Final Occupation by Irrep:
              A 
    DOCC [    25 ]

  Energy converged.

  @DF-RHF Final Energy:  -450.66174939164443

   => Energetics <=

    Nuclear Repulsion Energy =            277.2172207154492298
    One-Electron Energy =               -1176.4797136230274646
    Two-Electron Energy =                 448.6007435159337433
    DFT Exchange-Correlation Energy =       0.0000000000000000
    Empirical Dispersion Energy =           0.0000000000000000
    PCM Polarization Energy =               0.0000000000000000
    EFP Energy =                            0.0000000000000000
    Total Energy =                       -450.6617493916444914

    Alert: EFP and PCM quantities not currently incorporated into SCF psivars.

Properties will be evaluated at   0.000000,   0.000000,   0.000000 Bohr
  ==> Properties <==


Properties computed using the SCF density matrix

  Nuclear Dipole Moment: (a.u.)
     X:    -5.9881      Y:     2.5765      Z:    -0.9459

  Electronic Dipole Moment: (a.u.)
     X:     5.6792      Y:    -2.2341      Z:     0.3683

  Dipole Moment: (a.u.)
     X:    -0.3089      Y:     0.3424      Z:    -0.5777     Total:     0.7392

  Dipole Moment: (Debye)
     X:    -0.7852      Y:     0.8704      Z:    -1.4683     Total:     1.8788


  Saving occupied orbitals to File 180.

*** tstop() called on cx1-3-2-1.cx1.hpc.ic.ac.uk at Tue Jul  5 16:35:59 2016
Module time:
	user time   =       3.65 seconds =       0.06 minutes
	system time =       0.04 seconds =       0.00 minutes
	total time  =          4 seconds =       0.07 minutes
Total time:
	user time   =       3.65 seconds =       0.06 minutes
	system time =       0.04 seconds =       0.00 minutes
	total time  =          4 seconds =       0.07 minutes


Properties will be evaluated at   0.000000,   0.000000,   0.000000 Bohr

Properties computed using the  density matrix

  Nuclear Dipole Moment: (a.u.)
     X:    -5.9881      Y:     2.5765      Z:    -0.9459

  Electronic Dipole Moment: (a.u.)
     X:     5.6792      Y:    -2.2341      Z:     0.3683

  Dipole Moment: (a.u.)
     X:    -0.3089      Y:     0.3424      Z:    -0.5777     Total:     0.7392

  Dipole Moment: (Debye)
     X:    -0.7852      Y:     0.8704      Z:    -1.4683     Total:     1.8788

  Quadrupole Moment: (Debye Ang)
    XX:   -35.6323     YY:   -30.6846     ZZ:   -32.1365
    XY:     0.3433     XZ:     3.3931     YZ:     1.1470

  Traceless Quadrupole Moment: (Debye Ang)
    XX:    -2.8145     YY:     2.1332     ZZ:     0.6813
    XY:     0.3433     XZ:     3.3931     YZ:     1.1470

  Mulliken Charges: (a.u.)
   Center  Symbol    Alpha    Beta     Spin     Total
       1     H     0.27198  0.27198  0.00000  0.45605
       2     O     4.36172  4.36172  0.00000 -0.72343
       3     C     3.05913  3.05913  0.00000 -0.11825
       4     C     2.45878  2.45878  0.00000  1.08243
       5     H     0.40926  0.40926  0.00000  0.18147
       6     H     0.39444  0.39444  0.00000  0.21112
       7     F     4.68675  4.68675  0.00000 -0.37350
       8     F     4.68227  4.68227  0.00000 -0.36454
       9     F     4.67567  4.67567  0.00000 -0.35134

   Total alpha = 25.00000, Total beta = 25.00000, Total charge =  0.00000


*** PSI4 exiting successfully. Buy a developer a beer!
