    -----------------------------------------------------------------------
          Psi4: An Open-Source Ab Initio Electronic Structure Package
                              Psi4 (no tag) Driver

                          Git: Rev {detached?}  

    J. M. Turney, A. C. Simmonett, R. M. Parrish, E. G. Hohenstein,
    F. A. Evangelista, J. T. Fermann, B. J. Mintz, L. A. Burns, J. J. Wilke,
    M. L. Abrams, N. J. Russ, M. L. Leininger, C. L. Janssen, E. T. Seidl,
    W. D. Allen, H. F. Schaefer, R. A. King, E. F. Valeev, C. D. Sherrill,
    and T. D. Crawford, WIREs Comput. Mol. Sci. 2, 556-565 (2012)
    (doi: 10.1002/wcms.93)

                         Additional Contributions by
    A. E. DePrince, M. Saitow, U. Bozkaya, A. Yu. Sokolov
    -----------------------------------------------------------------------


    Psi4 started on: Tue Jul  5 16:56:12 2016

    Process ID:  10652
    PSI4DATADIR: /export131/home/mjharvey/miniconda3/share
    Memory level set to 256.000 MB

  ==> Input File <==

--------------------------------------------------------------------------
set {
	reference rhf
	basis 6-31G*
}


set_num_threads( 1 )
memory 2 gb

molecule MOL {
0 1

O	 -2.042549	 -1.228399	 -0.269030
C	 -1.653912	 -0.146171	 0.050137
C	 -0.332303	 0.024011	 0.778412
C	 -2.438579	 1.106236	 -0.272369
C	 0.650782	 -1.095374	 0.401062
H	 0.105445	 0.992350	 0.552401
H	 -0.535769	 -0.015530	 1.842818
C	 0.214138	 -2.464095	 0.925443
H	 1.640729	 -0.862023	 0.789180
H	 0.740277	 -1.127348	 -0.680654
C	 -1.254709	 -2.767979	 0.633295
H	 0.838735	 -3.237002	 0.482817
H	 0.386344	 -2.507683	 1.998296
H	 -1.451443	 -2.765187	 -0.435041
H	 -1.905957	 -2.029296	 1.091187
H	 -1.536859	 -3.742565	 1.018781
H	 -3.277823	 0.863061	 -0.908988
H	 -1.806773	 1.843019	 -0.759671
H	 -2.802853	 1.554979	 0.648059

	symmetry c1
}
set optking {
	frozen_dihedral = ("
		11 8 5 9,
		9 5 3 2
	")
}

ee = energy('scf')
oeprop('DIPOLE', 'QUADRUPOLE', 'MULLIKEN_CHARGES')
f=open( 'psi4out.xyz', 'w' )
f.write( "19  " )
f.write( str(ee) + "\n" )
f.write( MOL.save_string_xyz() )
f.close()
--------------------------------------------------------------------------

  Memory set to   2.000 GiB by Python script.

*** tstart() called on cx1-1-2-2.cx1.hpc.ic.ac.uk
*** at Tue Jul  5 16:56:12 2016


         ---------------------------------------------------------
                                   SCF
            by Justin Turney, Rob Parrish, and Andy Simmonett
                              RHF Reference
                        1 Threads,   2000 MiB Core
         ---------------------------------------------------------

  ==> Geometry <==

    Molecular point group: c1
    Full point group: C1

    Geometry (in Angstrom), charge = 0, multiplicity = 1:

       Center              X                  Y                   Z               Mass       
    ------------   -----------------  -----------------  -----------------  -----------------
           O         -1.042172417460    -0.280359386792    -0.584469441680    15.994914619560
           C         -0.653535417460     0.801868613208    -0.265302441680    12.000000000000
           C          0.668073582540     0.972050613208     0.462972558320    12.000000000000
           C         -1.438202417460     2.054275613208    -0.587808441680    12.000000000000
           C          1.651158582540    -0.147334386792     0.085622558320    12.000000000000
           H          1.105821582540     1.940389613208     0.236961558320     1.007825032070
           H          0.464607582540     0.932509613208     1.527378558320     1.007825032070
           C          1.214514582540    -1.516055386792     0.610003558320    12.000000000000
           H          2.641105582540     0.086016613208     0.473740558320     1.007825032070
           H          1.740653582540    -0.179308386792    -0.996093441680     1.007825032070
           C         -0.254332417460    -1.819939386792     0.317855558320    12.000000000000
           H          1.839111582540    -2.288962386792     0.167377558320     1.007825032070
           H          1.386720582540    -1.559643386792     1.682856558320     1.007825032070
           H         -0.451066417460    -1.817147386792    -0.750480441680     1.007825032070
           H         -0.905580417460    -1.081256386792     0.775747558320     1.007825032070
           H         -0.536482417460    -2.794525386792     0.703341558320     1.007825032070
           H         -2.277446417460     1.811100613208    -1.224427441680     1.007825032070
           H         -0.806396417460     2.791058613208    -1.075110441680     1.007825032070
           H         -1.802476417460     2.503018613208     0.332619558320     1.007825032070

  Running in c1 symmetry.

  Rotational constants: A =      0.15638  B =      0.06788  C =      0.05147 [cm^-1]
  Rotational constants: A =   4688.17721  B =   2035.12033  C =   1543.03099 [MHz]
  Nuclear repulsion =  329.114431950004075

  Charge       = 0
  Multiplicity = 1
  Electrons    = 56
  Nalpha       = 28
  Nbeta        = 28

  ==> Algorithm <==

  SCF Algorithm Type is DF.
  DIIS enabled.
  MOM disabled.
  Fractional occupation disabled.
  Guess Type is CORE.
  Energy threshold   = 1.00e-06
  Density threshold  = 1.00e-06
  Integral threshold = 0.00e+00

  ==> Primary Basis <==

  Basis Set: 6-31G*
    Number of shells: 66
    Number of basis function: 129
    Number of Cartesian functions: 129
    Spherical Harmonics?: false
    Max angular momentum: 2

  ==> Pre-Iterations <==

   -------------------------------------------------------
    Irrep   Nso     Nmo     Nalpha   Nbeta   Ndocc  Nsocc
   -------------------------------------------------------
     A        129     129       0       0       0       0
   -------------------------------------------------------
    Total     129     129      28      28      28       0
   -------------------------------------------------------

 OEINTS: Overlap, kinetic, potential, dipole, and quadrupole integrals
         stored in file 35.

  ==> Integral Setup <==

  ==> DFJK: Density-Fitted J/K Matrices <==

    J tasked:                  Yes
    K tasked:                  Yes
    wK tasked:                  No
    OpenMP threads:              1
    Integrals threads:           1
    Memory (MB):              1430
    Algorithm:                Core
    Integral Cache:           NONE
    Schwarz Cutoff:          1E-12
    Fitting Condition:       1E-12

   => Auxiliary Basis Set <=

  Basis Set: 
    Number of shells: 276
    Number of basis function: 867
    Number of Cartesian functions: 867
    Spherical Harmonics?: false
    Max angular momentum: 3

  Minimum eigenvalue in the overlap matrix is 3.5153181902E-03.
  Using Symmetric Orthogonalization.
  SCF Guess: Core (One-Electron) Hamiltonian.

  ==> Iterations <==

                           Total Energy        Delta E     RMS |[F,P]|

   @DF-RHF iter   1:  -235.13087926792497   -2.35131e+02   7.11402e-02 
   @DF-RHF iter   2:  -197.83258244376970    3.72983e+01   5.38352e-02 DIIS
   @DF-RHF iter   3:  -272.04511601358325   -7.42125e+01   4.60558e-02 DIIS
   @DF-RHF iter   4:  -284.74626687452525   -1.27012e+01   4.54219e-02 DIIS
   @DF-RHF iter   5:  -307.66856639474150   -2.29223e+01   1.06538e-02 DIIS
   @DF-RHF iter   6:  -308.74893010561465   -1.08036e+00   4.01118e-03 DIIS
   @DF-RHF iter   7:  -308.91242076887823   -1.63491e-01   1.24671e-03 DIIS
   @DF-RHF iter   8:  -308.93280029958504   -2.03795e-02   3.79312e-04 DIIS
   @DF-RHF iter   9:  -308.93451062211449   -1.71032e-03   1.40313e-04 DIIS
   @DF-RHF iter  10:  -308.93489075089650   -3.80129e-04   8.63117e-05 DIIS
   @DF-RHF iter  11:  -308.93498285859192   -9.21077e-05   2.56111e-05 DIIS
   @DF-RHF iter  12:  -308.93499721582447   -1.43572e-05   7.10809e-06 DIIS
   @DF-RHF iter  13:  -308.93499858507283   -1.36925e-06   3.42471e-06 DIIS
   @DF-RHF iter  14:  -308.93499893771610   -3.52643e-07   1.23424e-06 DIIS
   @DF-RHF iter  15:  -308.93499901965851   -8.19424e-08   6.19005e-07 DIIS

  ==> Post-Iterations <==

    Orbital Energies (a.u.)
    -----------------------

    Doubly Occupied:                                                      

       1A    -20.542231     2A    -11.329285     3A    -11.235429  
       4A    -11.231283     5A    -11.220497     6A    -11.202833  
       7A    -11.162444     8A     -1.420445     9A     -1.081499  
      10A     -1.036304    11A     -0.968223    12A     -0.891313  
      13A     -0.812244    14A     -0.722641    15A     -0.675778  
      16A     -0.662448    17A     -0.635077    18A     -0.592956  
      19A     -0.591359    20A     -0.562850    21A     -0.553235  
      22A     -0.541866    23A     -0.516268    24A     -0.479406  
      25A     -0.458428    26A     -0.439182    27A     -0.429878  
      28A     -0.348241  

    Virtual:                                                              

      29A      0.156375    30A      0.219526    31A      0.256209  
      32A      0.283838    33A      0.293545    34A      0.300407  
      35A      0.310381    36A      0.320476    37A      0.325920  
      38A      0.341131    39A      0.356507    40A      0.371015  
      41A      0.391697    42A      0.399204    43A      0.401549  
      44A      0.433220    45A      0.472694    46A      0.489719  
      47A      0.547251    48A      0.703078    49A      0.739869  
      50A      0.742697    51A      0.754469    52A      0.766372  
      53A      0.805051    54A      0.815924    55A      0.848796  
      56A      0.868947    57A      0.916476    58A      0.943148  
      59A      0.968194    60A      0.981498    61A      0.998486  
      62A      1.017674    63A      1.072793    64A      1.111331  
      65A      1.131017    66A      1.147589    67A      1.160524  
      68A      1.166445    69A      1.171060    70A      1.182299  
      71A      1.198762    72A      1.209845    73A      1.217707  
      74A      1.234573    75A      1.248247    76A      1.257197  
      77A      1.275374    78A      1.286172    79A      1.313967  
      80A      1.401382    81A      1.448079    82A      1.531759  
      83A      1.610617    84A      1.647631    85A      1.709176  
      86A      1.779132    87A      1.790804    88A      1.819822  
      89A      1.887821    90A      1.905747    91A      2.009132  
      92A      2.054198    93A      2.085643    94A      2.107914  
      95A      2.155226    96A      2.190524    97A      2.214507  
      98A      2.254419    99A      2.282513   100A      2.315976  
     101A      2.349859   102A      2.392790   103A      2.410433  
     104A      2.498334   105A      2.512429   106A      2.562243  
     107A      2.610023   108A      2.624241   109A      2.696839  
     110A      2.716817   111A      2.725323   112A      2.744599  
     113A      2.776264   114A      2.816785   115A      2.891135  
     116A      2.901325   117A      2.983370   118A      3.026031  
     119A      3.090480   120A      3.189428   121A      3.390391  
     122A      3.425703   123A      4.483639   124A      4.542989  
     125A      4.681340   126A      4.747145   127A      4.844787  
     128A      4.956973   129A      5.001521  

    Final Occupation by Irrep:
              A 
    DOCC [    28 ]

  Energy converged.

  @DF-RHF Final Energy:  -308.93499901965851

   => Energetics <=

    Nuclear Repulsion Energy =            329.1144319500040751
    One-Electron Energy =               -1071.4116202611928657
    Two-Electron Energy =                 433.3621892915309672
    DFT Exchange-Correlation Energy =       0.0000000000000000
    Empirical Dispersion Energy =           0.0000000000000000
    PCM Polarization Energy =               0.0000000000000000
    EFP Energy =                            0.0000000000000000
    Total Energy =                       -308.9349990196578801

    Alert: EFP and PCM quantities not currently incorporated into SCF psivars.

Properties will be evaluated at   0.000000,   0.000000,   0.000000 Bohr
  ==> Properties <==


Properties computed using the SCF density matrix

  Nuclear Dipole Moment: (a.u.)
     X:     2.2436      Y:     0.3204      Z:     1.7352

  Electronic Dipole Moment: (a.u.)
     X:    -1.9424      Y:     0.9223      Z:    -1.5785

  Dipole Moment: (a.u.)
     X:     0.3012      Y:     1.2427      Z:     0.1567     Total:     1.2883

  Dipole Moment: (Debye)
     X:     0.7656      Y:     3.1587      Z:     0.3983     Total:     3.2745


  Saving occupied orbitals to File 180.

*** tstop() called on cx1-1-2-2.cx1.hpc.ic.ac.uk at Tue Jul  5 16:56:24 2016
Module time:
	user time   =      10.98 seconds =       0.18 minutes
	system time =       0.06 seconds =       0.00 minutes
	total time  =         12 seconds =       0.20 minutes
Total time:
	user time   =      10.98 seconds =       0.18 minutes
	system time =       0.06 seconds =       0.00 minutes
	total time  =         12 seconds =       0.20 minutes


Properties will be evaluated at   0.000000,   0.000000,   0.000000 Bohr

Properties computed using the  density matrix

  Nuclear Dipole Moment: (a.u.)
     X:     2.2436      Y:     0.3204      Z:     1.7352

  Electronic Dipole Moment: (a.u.)
     X:    -1.9424      Y:     0.9223      Z:    -1.5785

  Dipole Moment: (a.u.)
     X:     0.3012      Y:     1.2427      Z:     0.1567     Total:     1.2883

  Dipole Moment: (Debye)
     X:     0.7656      Y:     3.1587      Z:     0.3983     Total:     3.2745

  Quadrupole Moment: (Debye Ang)
    XX:   -45.9472     YY:   -45.4948     ZZ:   -45.0102
    XY:    -2.2095     XZ:    -0.9173     YZ:     0.1034

  Traceless Quadrupole Moment: (Debye Ang)
    XX:    -0.4632     YY:    -0.0107     ZZ:     0.4739
    XY:    -2.2095     XZ:    -0.9173     YZ:     0.1034

  Mulliken Charges: (a.u.)
   Center  Symbol    Alpha    Beta     Spin     Total
       1     O     4.25695  4.25695  0.00000 -0.51389
       2     C     2.73508  2.73508  0.00000  0.52983
       3     C     3.21762  3.21762  0.00000 -0.43523
       4     C     3.28458  3.28458  0.00000 -0.56916
       5     C     3.15551  3.15551  0.00000 -0.31101
       6     H     0.40835  0.40835  0.00000  0.18330
       7     H     0.40147  0.40147  0.00000  0.19706
       8     C     3.15199  3.15199  0.00000 -0.30398
       9     H     0.41704  0.41704  0.00000  0.16592
      10     H     0.41826  0.41826  0.00000  0.16347
      11     C     3.21056  3.21056  0.00000 -0.42112
      12     H     0.42170  0.42170  0.00000  0.15659
      13     H     0.42798  0.42798  0.00000  0.14404
      14     H     0.40846  0.40846  0.00000  0.18308
      15     H     0.42562  0.42562  0.00000  0.14876
      16     H     0.44463  0.44463  0.00000  0.11073
      17     H     0.39718  0.39718  0.00000  0.20563
      18     H     0.40884  0.40884  0.00000  0.18232
      19     H     0.40817  0.40817  0.00000  0.18365

   Total alpha = 28.00000, Total beta = 28.00000, Total charge =  0.00000


*** PSI4 exiting successfully. Buy a developer a beer!
