    -----------------------------------------------------------------------
          Psi4: An Open-Source Ab Initio Electronic Structure Package
                              Psi4 (no tag) Driver

                          Git: Rev {detached?}  

    J. M. Turney, A. C. Simmonett, R. M. Parrish, E. G. Hohenstein,
    F. A. Evangelista, J. T. Fermann, B. J. Mintz, L. A. Burns, J. J. Wilke,
    M. L. Abrams, N. J. Russ, M. L. Leininger, C. L. Janssen, E. T. Seidl,
    W. D. Allen, H. F. Schaefer, R. A. King, E. F. Valeev, C. D. Sherrill,
    and T. D. Crawford, WIREs Comput. Mol. Sci. 2, 556-565 (2012)
    (doi: 10.1002/wcms.93)

                         Additional Contributions by
    A. E. DePrince, M. Saitow, U. Bozkaya, A. Yu. Sokolov
    -----------------------------------------------------------------------


    Psi4 started on: Tue Jul  5 16:29:32 2016

    Process ID:  11823
    PSI4DATADIR: /export131/home/mjharvey/miniconda3/share
    Memory level set to 256.000 MB

  ==> Input File <==

--------------------------------------------------------------------------
set {
	reference rhf
	basis 6-31G*
}


set_num_threads( 1 )
memory 2 gb

molecule MOL {
0 1

H	 2.257630	 1.834031	 -1.153331
N	 1.449140	 1.245334	 -1.210713
C	 1.267428	 0.496480	 0.024474
H	 1.599519	 0.621359	 -1.980749
C	 -0.016086	 -0.325158	 -0.029487
H	 1.200461	 1.212940	 0.837637
H	 2.109120	 -0.161270	 0.255341
C	 -1.282277	 0.529072	 0.046735
H	 -0.012495	 -0.908639	 -0.945788
H	 -0.015903	 -1.041248	 0.791956
C	 -1.988392	 0.426005	 1.398208
H	 -1.968968	 0.226614	 -0.741276
H	 -1.031956	 1.569603	 -0.149710
H	 -2.283281	 -0.597981	 1.608477
H	 -2.883267	 1.040107	 1.422700
H	 -1.339535	 0.754390	 2.205283

	symmetry c1
}
set optking {
	frozen_dihedral = ("
		6 3 5 9,
		1 2 3 6
	")
}

ee = energy('scf')
oeprop('DIPOLE', 'QUADRUPOLE', 'MULLIKEN_CHARGES')
f=open( 'psi4out.xyz', 'w' )
f.write( "16  " )
f.write( str(ee) + "\n" )
f.write( MOL.save_string_xyz() )
f.close()
--------------------------------------------------------------------------

  Memory set to   2.000 GiB by Python script.

*** tstart() called on cx1-3-16-4.cx1.hpc.ic.ac.uk
*** at Tue Jul  5 16:29:33 2016


         ---------------------------------------------------------
                                   SCF
            by Justin Turney, Rob Parrish, and Andy Simmonett
                              RHF Reference
                        1 Threads,   2000 MiB Core
         ---------------------------------------------------------

  ==> Geometry <==

    Molecular point group: c1
    Full point group: C1

    Geometry (in Angstrom), charge = 0, multiplicity = 1:

       Center              X                  Y                   Z               Mass       
    ------------   -----------------  -----------------  -----------------  -----------------
           H          2.344191676393     1.347764548202    -1.187437626344     1.007825032070
           N          1.535701676393     0.759067548202    -1.244819626344    14.003074004780
           C          1.353989676393     0.010213548202    -0.009632626344    12.000000000000
           H          1.686080676393     0.135092548202    -2.014855626344     1.007825032070
           C          0.070475676393    -0.811424451798    -0.063593626344    12.000000000000
           H          1.287022676393     0.726673548202     0.803530373656     1.007825032070
           H          2.195681676393    -0.647536451798     0.221234373656     1.007825032070
           C         -1.195715323607     0.042805548202     0.012628373656    12.000000000000
           H          0.074066676393    -1.394905451798    -0.979894626344     1.007825032070
           H          0.070658676393    -1.527514451798     0.757849373656     1.007825032070
           C         -1.901830323607    -0.060261451798     1.364101373656    12.000000000000
           H         -1.882406323607    -0.259652451798    -0.775382626344     1.007825032070
           H         -0.945394323607     1.083336548202    -0.183816626344     1.007825032070
           H         -2.196719323607    -1.084247451798     1.574370373656     1.007825032070
           H         -2.796705323607     0.553840548202     1.388593373656     1.007825032070
           H         -1.252973323607     0.268123548202     2.171176373656     1.007825032070

  Running in c1 symmetry.

  Rotational constants: A =      0.38221  B =      0.07984  C =      0.07704 [cm^-1]
  Rotational constants: A =  11458.34495  B =   2393.57665  C =   2309.69140 [MHz]
  Nuclear repulsion =  189.875571045718686

  Charge       = 0
  Multiplicity = 1
  Electrons    = 42
  Nalpha       = 21
  Nbeta        = 21

  ==> Algorithm <==

  SCF Algorithm Type is DF.
  DIIS enabled.
  MOM disabled.
  Fractional occupation disabled.
  Guess Type is CORE.
  Energy threshold   = 1.00e-06
  Density threshold  = 1.00e-06
  Integral threshold = 0.00e+00

  ==> Primary Basis <==

  Basis Set: 6-31G*
    Number of shells: 52
    Number of basis function: 97
    Number of Cartesian functions: 97
    Spherical Harmonics?: false
    Max angular momentum: 2

  ==> Pre-Iterations <==

   -------------------------------------------------------
    Irrep   Nso     Nmo     Nalpha   Nbeta   Ndocc  Nsocc
   -------------------------------------------------------
     A         97      97       0       0       0       0
   -------------------------------------------------------
    Total      97      97      21      21      21       0
   -------------------------------------------------------

 OEINTS: Overlap, kinetic, potential, dipole, and quadrupole integrals
         stored in file 35.

  ==> Integral Setup <==

  ==> DFJK: Density-Fitted J/K Matrices <==

    J tasked:                  Yes
    K tasked:                  Yes
    wK tasked:                  No
    OpenMP threads:              1
    Integrals threads:           1
    Memory (MB):              1430
    Algorithm:                Core
    Integral Cache:           NONE
    Schwarz Cutoff:          1E-12
    Fitting Condition:       1E-12

   => Auxiliary Basis Set <=

  Basis Set: 
    Number of shells: 219
    Number of basis function: 680
    Number of Cartesian functions: 680
    Spherical Harmonics?: false
    Max angular momentum: 3

  Minimum eigenvalue in the overlap matrix is 4.7517951323E-03.
  Using Symmetric Orthogonalization.
  SCF Guess: Core (One-Electron) Hamiltonian.

  ==> Iterations <==

                           Total Energy        Delta E     RMS |[F,P]|

   @DF-RHF iter   1:  -159.64363685804682   -1.59644e+02   8.07731e-02 
   @DF-RHF iter   2:   -88.98378583307414    7.06599e+01   8.85246e-02 DIIS
   @DF-RHF iter   3:  -175.54958740923718   -8.65658e+01   4.62997e-02 DIIS
   @DF-RHF iter   4:  -154.02533649286261    2.15243e+01   7.18226e-02 DIIS
   @DF-RHF iter   5:  -209.44208368613675   -5.54167e+01   1.70183e-02 DIIS
   @DF-RHF iter   6:  -212.15759352964608   -2.71551e+00   5.59548e-03 DIIS
   @DF-RHF iter   7:  -212.29241837006714   -1.34825e-01   1.99408e-03 DIIS
   @DF-RHF iter   8:  -212.31024077135970   -1.78224e-02   3.87036e-04 DIIS
   @DF-RHF iter   9:  -212.31162466559454   -1.38389e-03   1.22432e-04 DIIS
   @DF-RHF iter  10:  -212.31175605841793   -1.31393e-04   4.13172e-05 DIIS
   @DF-RHF iter  11:  -212.31176913135482   -1.30729e-05   1.62803e-05 DIIS
   @DF-RHF iter  12:  -212.31177109938483   -1.96803e-06   4.39427e-06 DIIS
   @DF-RHF iter  13:  -212.31177122875010   -1.29365e-07   1.19473e-06 DIIS
   @DF-RHF iter  14:  -212.31177123959623   -1.08461e-08   3.53065e-07 DIIS

  ==> Post-Iterations <==

    Orbital Energies (a.u.)
    -----------------------

    Doubly Occupied:                                                      

       1A    -15.533966     2A    -11.240549     3A    -11.209067  
       4A    -11.204404     5A    -11.203175     6A     -1.178527  
       7A     -1.053374     8A     -0.956008     9A     -0.850105  
      10A     -0.779937    11A     -0.664033    12A     -0.629085  
      13A     -0.611794    14A     -0.581748    15A     -0.548594  
      16A     -0.526440    17A     -0.501277    18A     -0.467893  
      19A     -0.460114    20A     -0.452452    21A     -0.380928  

    Virtual:                                                              

      22A      0.226026    23A      0.253409    24A      0.272408  
      25A      0.290572    26A      0.301244    27A      0.318807  
      28A      0.329185    29A      0.336758    30A      0.347050  
      31A      0.352748    32A      0.366360    33A      0.411156  
      34A      0.452287    35A      0.467481    36A      0.471357  
      37A      0.721837    38A      0.738685    39A      0.745937  
      40A      0.793334    41A      0.806397    42A      0.824250  
      43A      0.847537    44A      0.927582    45A      0.953607  
      46A      0.999408    47A      1.008426    48A      1.035597  
      49A      1.054704    50A      1.114467    51A      1.147414  
      52A      1.166506    53A      1.169850    54A      1.184319  
      55A      1.196939    56A      1.221082    57A      1.232365  
      58A      1.243543    59A      1.252892    60A      1.260648  
      61A      1.274260    62A      1.284362    63A      1.341573  
      64A      1.418051    65A      1.652160    66A      1.705126  
      67A      1.724453    68A      1.839282    69A      1.907630  
      70A      1.959348    71A      2.037834    72A      2.103284  
      73A      2.183221    74A      2.212986    75A      2.257379  
      76A      2.280781    77A      2.358474    78A      2.412262  
      79A      2.419635    80A      2.457889    81A      2.557718  
      82A      2.604299    83A      2.645810    84A      2.695263  
      85A      2.710361    86A      2.804879    87A      2.830391  
      88A      2.865251    89A      2.947411    90A      3.018093  
      91A      3.052903    92A      3.121581    93A      4.220663  
      94A      4.580694    95A      4.697705    96A      4.880809  
      97A      4.978310  

    Final Occupation by Irrep:
              A 
    DOCC [    21 ]

  Energy converged.

  @DF-RHF Final Energy:  -212.31177123959623

   => Energetics <=

    Nuclear Repulsion Energy =            189.8755710457186865
    One-Electron Energy =                -662.3076779055124916
    Two-Electron Energy =                 260.1203356201970109
    DFT Exchange-Correlation Energy =       0.0000000000000000
    Empirical Dispersion Energy =           0.0000000000000000
    PCM Polarization Energy =               0.0000000000000000
    EFP Energy =                            0.0000000000000000
    Total Energy =                       -212.3117712395967942

    Alert: EFP and PCM quantities not currently incorporated into SCF psivars.

Properties will be evaluated at   0.000000,   0.000000,   0.000000 Bohr
  ==> Properties <==


Properties computed using the SCF density matrix

  Nuclear Dipole Moment: (a.u.)
     X:    -1.3324      Y:    -0.7513      Z:     1.6680

  Electronic Dipole Moment: (a.u.)
     X:     1.8389      Y:     0.4847      Z:    -1.6563

  Dipole Moment: (a.u.)
     X:     0.5065      Y:    -0.2666      Z:     0.0116     Total:     0.5725

  Dipole Moment: (Debye)
     X:     1.2874      Y:    -0.6776      Z:     0.0296     Total:     1.4552


  Saving occupied orbitals to File 180.

*** tstop() called on cx1-3-16-4.cx1.hpc.ic.ac.uk at Tue Jul  5 16:29:40 2016
Module time:
	user time   =       6.81 seconds =       0.11 minutes
	system time =       0.05 seconds =       0.00 minutes
	total time  =          7 seconds =       0.12 minutes
Total time:
	user time   =       6.81 seconds =       0.11 minutes
	system time =       0.05 seconds =       0.00 minutes
	total time  =          7 seconds =       0.12 minutes


Properties will be evaluated at   0.000000,   0.000000,   0.000000 Bohr

Properties computed using the  density matrix

  Nuclear Dipole Moment: (a.u.)
     X:    -1.3324      Y:    -0.7513      Z:     1.6680

  Electronic Dipole Moment: (a.u.)
     X:     1.8389      Y:     0.4847      Z:    -1.6563

  Dipole Moment: (a.u.)
     X:     0.5065      Y:    -0.2666      Z:     0.0116     Total:     0.5725

  Dipole Moment: (Debye)
     X:     1.2874      Y:    -0.6776      Z:     0.0296     Total:     1.4552

  Quadrupole Moment: (Debye Ang)
    XX:   -30.7304     YY:   -34.9018     ZZ:   -33.8898
    XY:     0.8442     XZ:    -1.4719     YZ:     1.8309

  Traceless Quadrupole Moment: (Debye Ang)
    XX:     2.4436     YY:    -1.7278     ZZ:    -0.7158
    XY:     0.8442     XZ:    -1.4719     YZ:     1.8309

  Mulliken Charges: (a.u.)
   Center  Symbol    Alpha    Beta     Spin     Total
       1     H     0.33219  0.33219  0.00000  0.33563
       2     N     3.92001  3.92001  0.00000 -0.84003
       3     C     3.06741  3.06741  0.00000 -0.13482
       4     H     0.33506  0.33506  0.00000  0.32988
       5     C     3.15478  3.15478  0.00000 -0.30957
       6     H     0.42077  0.42077  0.00000  0.15845
       7     H     0.43236  0.43236  0.00000  0.13528
       8     C     3.15340  3.15340  0.00000 -0.30679
       9     H     0.42371  0.42371  0.00000  0.15258
      10     H     0.42141  0.42141  0.00000  0.15717
      11     C     3.24077  3.24077  0.00000 -0.48154
      12     H     0.42240  0.42240  0.00000  0.15519
      13     H     0.40741  0.40741  0.00000  0.18519
      14     H     0.42361  0.42361  0.00000  0.15279
      15     H     0.42049  0.42049  0.00000  0.15901
      16     H     0.42422  0.42422  0.00000  0.15157

   Total alpha = 21.00000, Total beta = 21.00000, Total charge =  0.00000


*** PSI4 exiting successfully. Buy a developer a beer!
