
    -----------------------------------------------------------------------
          Psi4: An Open-Source Ab Initio Electronic Structure Package
                               Psi4 1.1 release

                         Git: Rev {HEAD} add49b9 


    R. M. Parrish, L. A. Burns, D. G. A. Smith, A. C. Simmonett,
    A. E. DePrince III, E. G. Hohenstein, U. Bozkaya, A. Yu. Sokolov,
    R. Di Remigio, R. M. Richard, J. F. Gonthier, A. M. James,
    H. R. McAlexander, A. Kumar, M. Saitow, X. Wang, B. P. Pritchard,
    P. Verma, H. F. Schaefer III, K. Patkowski, R. A. King, E. F. Valeev,
    F. A. Evangelista, J. M. Turney, T. D. Crawford, and C. D. Sherrill,
    J. Chem. Theory Comput. in press (2017).
    (doi: 10.1021/acs.jctc.7b00174)

    -----------------------------------------------------------------------


    Psi4 started on: Friday, 11 August 2017 10:01PM

    Process ID:   2644
    PSIDATADIR: /home/raimis/opt/miniconda3/envs/htmd/share/psi4
    Memory:     500.0 MiB
    Threads:    1
    
  ==> Input File <==

--------------------------------------------------------------------------
set {
	reference rks
	basis 6-31G*
}


set_num_threads( 8 )
memory 2 gb

molecule MOL {
1 1

C	 -0.108532	 1.419375	 -2.012485
C	 1.029377	 2.245869	 -1.956497
C	 0.921179	 3.590282	 -2.297914
C	 -0.314812	 4.117079	 -2.685262
C	 -1.448007	 3.299534	 -2.737345
C	 -1.350327	 1.951482	 -2.407292
C	 -0.000000	 -0.000000	 -1.658508
H	 1.999785	 1.831714	 -1.697610
H	 1.801213	 4.224633	 -2.271985
H	 -0.395138	 5.167578	 -2.947244
H	 -2.408311	 3.714941	 -3.025072
H	 -2.241564	 1.330246	 -2.407964
N	 -0.712589	 -0.905950	 -2.322235
N	 0.810806	 -0.378524	 -0.674447
H	 0.990967	 -1.350805	 -0.453136
H	 1.224644	 0.316357	 -0.066860
H	 -1.377189	 -1.485970	 -1.827091
H	 -0.673431	 -1.006470	 -3.329771

	symmetry c1
}
set optking { dynamic_level = 1 }
set optking {
	frozen_dihedral = ("
		1 7 13 17
	")
}

ee,wfn = optimize('b3lyp-d3', return_wfn=True)
oeprop( wfn, 'DIPOLE', 'QUADRUPOLE', 'MULLIKEN_CHARGES')
f=open( 'psi4out.xyz', 'w' )
f.write( "18  " )
f.write( str(ee) + "\n" )
f.write( MOL.save_string_xyz() )
f.close()
--------------------------------------------------------------------------
  Threads set to 8 by Python driver.

  Memory set to   1.863 GiB by Python driver.
gradient() will perform analytic gradient computation.

*** tstart() called on computer03
*** at Fri Aug 11 22:01:08 2017

   => Loading Basis Set <=

    Name: 6-31G*
    Role: ORBITAL
    Keyword: BASIS
    atoms 1-7         entry C          line   102 file /home/raimis/opt/miniconda3/envs/htmd/share/psi4/basis/6-31gs.gbs 
    atoms 8-12, 15-18 entry H          line    35 file /home/raimis/opt/miniconda3/envs/htmd/share/psi4/basis/6-31gs.gbs 
    atoms 13-14       entry N          line   119 file /home/raimis/opt/miniconda3/envs/htmd/share/psi4/basis/6-31gs.gbs 


         ---------------------------------------------------------
                                   SCF
            by Justin Turney, Rob Parrish, and Andy Simmonett
                              RKS Reference
                        8 Threads,   1907 MiB Core
         ---------------------------------------------------------

  ==> Geometry <==

    Molecular point group: c1
    Full point group: C1

    Geometry (in Angstrom), charge = 1, multiplicity = 1:

       Center              X                  Y                   Z               Mass       
    ------------   -----------------  -----------------  -----------------  -----------------
           C          0.015072352768    -0.185715023101     0.045668627828    12.000000000000
           C          1.152981352768     0.640778976899     0.101656627828    12.000000000000
           C          1.044783352768     1.985191976899    -0.239760372172    12.000000000000
           C         -0.191207647232     2.511988976899    -0.627108372172    12.000000000000
           C         -1.324402647232     1.694443976899    -0.679191372172    12.000000000000
           C         -1.226722647232     0.346391976899    -0.349138372172    12.000000000000
           C          0.123604352768    -1.605090023101     0.399645627828    12.000000000000
           H          2.123389352768     0.226623976899     0.360543627828     1.007825032070
           H          1.924817352768     2.619542976899    -0.213831372172     1.007825032070
           H         -0.271533647232     3.562487976899    -0.889090372172     1.007825032070
           H         -2.284706647232     2.109850976899    -0.966918372172     1.007825032070
           H         -2.117959647232    -0.274844023101    -0.349810372172     1.007825032070
           N         -0.588984647232    -2.511040023101    -0.264081372172    14.003074004780
           N          0.934410352768    -1.983614023101     1.383706627828    14.003074004780
           H          1.114571352768    -2.955895023101     1.605017627828     1.007825032070
           H          1.348248352768    -1.288733023101     1.991293627828     1.007825032070
           H         -1.253584647232    -3.091060023101     0.231062627828     1.007825032070
           H         -0.549826647232    -2.611560023101    -1.271617372172     1.007825032070

  Running in c1 symmetry.

  Rotational constants: A =      0.12113  B =      0.03958  C =      0.03135 [cm^-1]
  Rotational constants: A =   3631.45562  B =   1186.71141  C =    939.74585 [MHz]
  Nuclear repulsion =  416.671555690479806

  Charge       = 1
  Multiplicity = 1
  Electrons    = 64
  Nalpha       = 32
  Nbeta        = 32

  ==> Algorithm <==

  SCF Algorithm Type is DF.
  DIIS enabled.
  MOM disabled.
  Fractional occupation disabled.
  Guess Type is SAD.
  Energy threshold   = 1.00e-08
  Density threshold  = 1.00e-08
  Integral threshold = 0.00e+00

  ==> Primary Basis <==

  Basis Set: 6-31G*
    Blend: 6-31G*
    Number of shells: 72
    Number of basis function: 153
    Number of Cartesian functions: 153
    Spherical Harmonics?: false
    Max angular momentum: 2

  ==> DFT Potential <==

   => B3LYP Composite Functional <= 

    B3LYP Hybrid-GGA Exchange-Correlation Functional (VWN1-RPA)

    P.J. Stephens et. al., J. Phys. Chem., 98, 11623-11627, 1994

    Points   =           5000
    Deriv    =              1
    GGA      =           TRUE
    Meta     =          FALSE

    X_LRC        =          FALSE
    X_Hybrid     =           TRUE
    X_Alpha      =   2.000000E-01
    X_Omega      =   0.000000E+00
    C_LRC        =          FALSE
    C_Hybrid     =          FALSE
    C_Alpha      =   0.000000E+00
    C_Omega      =   0.000000E+00

   => Exchange Functionals <=

    0.8000    B3_X
    0.2000      HF 

   => Correlation Functionals <=

    0.1900 VWN3RPA_C
    0.8100   LYP_C

   => Molecular Quadrature <=

    Radial Scheme    =       TREUTLER
    Pruning Scheme   =           FLAT
    Nuclear Scheme   =       TREUTLER

    BS radius alpha  =              1
    Pruning alpha    =              1
    Radial Points    =             75
    Spherical Points =            302
    Total Points     =         397094
    Total Blocks     =            342
    Max Points       =           4768
    Max Functions    =            151

   => -D3ZERO: Empirical Dispersion <=

    Grimme's -D3 (zero-damping) Dispersion Correction
    Grimme S.; Antony J.; Ehrlich S.; Krieg H. (2010), J. Chem. Phys., 132: 154104

        S6 =   1.000000E+00
        S8 =   1.703000E+00
       SR6 =   1.261000E+00
    ALPHA6 =   1.400000E+01

   => Loading Basis Set <=

    Name: (6-31G* AUX)
    Role: JKFIT
    Keyword: DF_BASIS_SCF
    atoms 1-7         entry C          line   120 file /home/raimis/opt/miniconda3/envs/htmd/share/psi4/basis/cc-pvdz-jkfit.gbs 
    atoms 8-12, 15-18 entry H          line    50 file /home/raimis/opt/miniconda3/envs/htmd/share/psi4/basis/cc-pvdz-jkfit.gbs 
    atoms 13-14       entry N          line   170 file /home/raimis/opt/miniconda3/envs/htmd/share/psi4/basis/cc-pvdz-jkfit.gbs 

  ==> Pre-Iterations <==

   -------------------------------------------------------
    Irrep   Nso     Nmo     Nalpha   Nbeta   Ndocc  Nsocc
   -------------------------------------------------------
     A        153     153       0       0       0       0
   -------------------------------------------------------
    Total     153     153      32      32      32       0
   -------------------------------------------------------

  ==> Integral Setup <==

  ==> DFJK: Density-Fitted J/K Matrices <==

    J tasked:                  Yes
    K tasked:                  Yes
    wK tasked:                  No
    OpenMP threads:              8
    Integrals threads:           8
    Memory (MB):              1430
    Algorithm:                Core
    Integral Cache:           NONE
    Schwarz Cutoff:          1E-12
    Fitting Condition:       1E-12

   => Auxiliary Basis Set <=

  Basis Set: (6-31G* AUX)
    Blend: CC-PVDZ-JKFIT
    Number of shells: 297
    Number of basis function: 954
    Number of Cartesian functions: 954
    Spherical Harmonics?: false
    Max angular momentum: 3

  Minimum eigenvalue in the overlap matrix is 4.8720316791E-04.
  Using Symmetric Orthogonalization.

  SCF Guess: Superposition of Atomic Densities via on-the-fly atomic UHF.

  ==> Iterations <==

                           Total Energy        Delta E     RMS |[F,P]|

   @DF-RKS iter   0:  -379.80444724511261   -3.79804e+02   6.80249e-02 
   @DF-RKS iter   1:  -381.04575134810540   -1.24130e+00   1.10764e-02 
   @DF-RKS iter   2:  -380.87599497680236    1.69756e-01   1.12627e-02 DIIS
   @DF-RKS iter   3:  -381.42320821354230   -5.47213e-01   2.71551e-03 DIIS
   @DF-RKS iter   4:  -381.44436329734549   -2.11551e-02   9.28625e-04 DIIS
   @DF-RKS iter   5:  -381.44653417787561   -2.17088e-03   3.06103e-04 DIIS
   @DF-RKS iter   6:  -381.44710848344312   -5.74306e-04   1.01285e-04 DIIS
   @DF-RKS iter   7:  -381.44713654181794   -2.80584e-05   3.63212e-05 DIIS
   @DF-RKS iter   8:  -381.44714019440670   -3.65259e-06   5.67487e-06 DIIS
   @DF-RKS iter   9:  -381.44714029119405   -9.67873e-08   3.99430e-06 DIIS
   @DF-RKS iter  10:  -381.44714033634170   -4.51477e-08   6.08697e-07 DIIS
   @DF-RKS iter  11:  -381.44714033705588   -7.14181e-10   3.79174e-07 DIIS
   @DF-RKS iter  12:  -381.44714033754798   -4.92093e-10   6.41344e-08 DIIS
   @DF-RKS iter  13:  -381.44714033756100   -1.30171e-11   1.35945e-08 DIIS
   @DF-RKS iter  14:  -381.44714033756071    2.84217e-13   5.90487e-09 DIIS

  ==> Post-Iterations <==

    Orbital Energies (a.u.)
    -----------------------

    Doubly Occupied:                                                      

       1A    -14.577004     2A    -14.539518     3A    -10.494681  
       4A    -10.370205     5A    -10.357084     6A    -10.356266  
       7A    -10.346679     8A    -10.341499     9A    -10.340807  
      10A     -1.177944    11A     -1.084259    12A     -1.014175  
      13A     -0.924676    14A     -0.902482    15A     -0.841633  
      16A     -0.778706    17A     -0.767239    18A     -0.740254  
      19A     -0.724953    20A     -0.705742    21A     -0.670405  
      22A     -0.627237    23A     -0.607139    24A     -0.583061  
      25A     -0.577328    26A     -0.554778    27A     -0.518675  
      28A     -0.506595    29A     -0.498137    30A     -0.457503  
      31A     -0.414797    32A     -0.406077  

    Virtual:                                                              

      33A     -0.240744    34A     -0.155776    35A     -0.137321  
      36A     -0.098002    37A     -0.071560    38A     -0.048570  
      39A     -0.037305    40A     -0.010926    41A      0.006713  
      42A      0.009127    43A      0.022211    44A      0.054404  
      45A      0.060935    46A      0.092748    47A      0.134169  
      48A      0.139169    49A      0.156510    50A      0.158497  
      51A      0.209122    52A      0.241160    53A      0.298966  
      54A      0.354338    55A      0.359958    56A      0.381662  
      57A      0.394603    58A      0.398391    59A      0.417444  
      60A      0.422037    61A      0.442008    62A      0.449101  
      63A      0.453025    64A      0.470435    65A      0.473013  
      66A      0.483006    67A      0.489080    68A      0.512803  
      69A      0.527017    70A      0.537938    71A      0.554019  
      72A      0.582026    73A      0.618795    74A      0.641737  
      75A      0.670383    76A      0.686096    77A      0.698297  
      78A      0.701845    79A      0.709382    80A      0.722428  
      81A      0.733785    82A      0.737284    83A      0.770862  
      84A      0.777483    85A      0.808717    86A      0.819706  
      87A      0.854587    88A      0.915036    89A      0.949182  
      90A      0.970675    91A      0.995270    92A      1.016946  
      93A      1.050431    94A      1.072905    95A      1.130912  
      96A      1.142101    97A      1.243023    98A      1.275712  
      99A      1.277635   100A      1.309540   101A      1.319123  
     102A      1.341572   103A      1.359379   104A      1.382576  
     105A      1.438668   106A      1.493259   107A      1.543700  
     108A      1.569210   109A      1.627497   110A      1.663392  
     111A      1.701010   112A      1.730794   113A      1.747703  
     114A      1.782457   115A      1.809035   116A      1.827374  
     117A      1.893741   118A      1.939674   119A      1.966674  
     120A      1.974212   121A      1.992161   122A      2.000955  
     123A      2.023060   124A      2.032883   125A      2.121270  
     126A      2.130823   127A      2.153964   128A      2.193940  
     129A      2.235381   130A      2.353466   131A      2.362688  
     132A      2.390506   133A      2.448503   134A      2.457073  
     135A      2.487244   136A      2.511825   137A      2.553115  
     138A      2.584942   139A      2.598711   140A      2.627352  
     141A      2.735707   142A      2.843339   143A      2.980925  
     144A      3.257325   145A      3.625624   146A      3.684015  
     147A      3.913036   148A      3.945682   149A      3.963184  
     150A      4.044615   151A      4.173127   152A      4.252575  
     153A      4.545678  

    Final Occupation by Irrep:
              A 
    DOCC [    32 ]

  Energy converged.

  @DF-RKS Final Energy:  -381.44714033756071

   => Energetics <=

    Nuclear Repulsion Energy =            416.6715556904798063
    One-Electron Energy =               -1328.6727764163497341
    Two-Electron Energy =                 574.9743504857108292
    DFT Exchange-Correlation Energy =     -44.4083649874017112
    Empirical Dispersion Energy =          -0.0119051100000000
    PCM Polarization Energy =               0.0000000000000000
    EFP Energy =                            0.0000000000000000
    Total Energy =                       -381.4471403375607110



Properties will be evaluated at   0.000000,   0.000000,   0.000000 Bohr

Properties computed using the SCF density matrix

  Nuclear Dipole Moment: (a.u.)
     X:     0.0303      Y:    -1.5840      Z:     0.4623

  Electronic Dipole Moment: (a.u.)
     X:     0.1462      Y:    -0.3964      Z:     0.2104

  Dipole Moment: (a.u.)
     X:     0.1765      Y:    -1.9804      Z:     0.6728     Total:     2.0990

  Dipole Moment: (Debye)
     X:     0.4486      Y:    -5.0338      Z:     1.7100     Total:     5.3352


*** tstop() called on computer03 at Fri Aug 11 22:02:08 2017
Module time:
	user time   =      99.34 seconds =       1.66 minutes
	system time =       1.53 seconds =       0.03 minutes
	total time  =         60 seconds =       1.00 minutes
Total time:
	user time   =      99.34 seconds =       1.66 minutes
	system time =       1.53 seconds =       0.03 minutes
	total time  =         60 seconds =       1.00 minutes

*** tstart() called on computer03
*** at Fri Aug 11 22:02:08 2017


         ------------------------------------------------------------
                                   SCF GRAD                          
                          Rob Parrish, Justin Turney,                
                       Andy Simmonett, and Alex Sokolov              
         ------------------------------------------------------------

  ==> Geometry <==

    Molecular point group: c1
    Full point group: C1

    Geometry (in Angstrom), charge = 1, multiplicity = 1:

       Center              X                  Y                   Z               Mass       
    ------------   -----------------  -----------------  -----------------  -----------------
           C          0.015072352768    -0.185715023101     0.045668627828    12.000000000000
           C          1.152981352768     0.640778976899     0.101656627828    12.000000000000
           C          1.044783352768     1.985191976899    -0.239760372172    12.000000000000
           C         -0.191207647232     2.511988976899    -0.627108372172    12.000000000000
           C         -1.324402647232     1.694443976899    -0.679191372172    12.000000000000
           C         -1.226722647232     0.346391976899    -0.349138372172    12.000000000000
           C          0.123604352768    -1.605090023101     0.399645627828    12.000000000000
           H          2.123389352768     0.226623976899     0.360543627828     1.007825032070
           H          1.924817352768     2.619542976899    -0.213831372172     1.007825032070
           H         -0.271533647232     3.562487976899    -0.889090372172     1.007825032070
           H         -2.284706647232     2.109850976899    -0.966918372172     1.007825032070
           H         -2.117959647232    -0.274844023101    -0.349810372172     1.007825032070
           N         -0.588984647232    -2.511040023101    -0.264081372172    14.003074004780
           N          0.934410352768    -1.983614023101     1.383706627828    14.003074004780
           H          1.114571352768    -2.955895023101     1.605017627828     1.007825032070
           H          1.348248352768    -1.288733023101     1.991293627828     1.007825032070
           H         -1.253584647232    -3.091060023101     0.231062627828     1.007825032070
           H         -0.549826647232    -2.611560023101    -1.271617372172     1.007825032070

  Nuclear repulsion =  416.671555690479806

  ==> Basis Set <==

  Basis Set: 6-31G*
    Blend: 6-31G*
    Number of shells: 72
    Number of basis function: 153
    Number of Cartesian functions: 153
    Spherical Harmonics?: false
    Max angular momentum: 2

  ==> DFJKGrad: Density-Fitted SCF Gradients <==

    Gradient:                    1
    J tasked:                  Yes
    K tasked:                  Yes
    wK tasked:                  No
    OpenMP threads:              8
    Integrals threads:           8
    Memory (MB):              1430
    Schwarz Cutoff:          0E+00
    Fitting Condition:       1E-12

   => Auxiliary Basis Set <=

  Basis Set: (6-31G* AUX)
    Blend: CC-PVDZ-JKFIT
    Number of shells: 297
    Number of basis function: 954
    Number of Cartesian functions: 954
    Spherical Harmonics?: false
    Max angular momentum: 3

  ==> DFT Potential <==

   => B3LYP Composite Functional <= 

    B3LYP Hybrid-GGA Exchange-Correlation Functional (VWN1-RPA)

    P.J. Stephens et. al., J. Phys. Chem., 98, 11623-11627, 1994

    Points   =           5000
    Deriv    =              1
    GGA      =           TRUE
    Meta     =          FALSE

    X_LRC        =          FALSE
    X_Hybrid     =           TRUE
    X_Alpha      =   2.000000E-01
    X_Omega      =   0.000000E+00
    C_LRC        =          FALSE
    C_Hybrid     =          FALSE
    C_Alpha      =   0.000000E+00
    C_Omega      =   0.000000E+00

   => Exchange Functionals <=

    0.8000    B3_X
    0.2000      HF 

   => Correlation Functionals <=

    0.1900 VWN3RPA_C
    0.8100   LYP_C

   => Molecular Quadrature <=

    Radial Scheme    =       TREUTLER
    Pruning Scheme   =           FLAT
    Nuclear Scheme   =       TREUTLER

    BS radius alpha  =              1
    Pruning alpha    =              1
    Radial Points    =             75
    Spherical Points =            302
    Total Points     =         397094
    Total Blocks     =            342
    Max Points       =           4768
    Max Functions    =            151


  -Total Gradient:
     Atom            X                  Y                   Z
    ------   -----------------  -----------------  -----------------
       1       -0.011764564646     0.007692689480     0.001274669446
       2       -0.000868117561    -0.006088994175     0.000240870758
       3       -0.002754058948     0.001214322663    -0.001411215917
       4        0.000542134936    -0.000072693453     0.000214967003
       5        0.000508308256     0.000987637257    -0.001176546213
       6        0.003389363740    -0.000004951344     0.001918458630
       7       -0.017186403574    -0.028425440845    -0.005536570050
       8       -0.000214750812     0.000193340484     0.000391563778
       9        0.000036537272    -0.000222724627     0.000207784565
      10       -0.000101655206    -0.000053150166     0.000218973117
      11        0.000015788799    -0.000005849290    -0.000098124194
      12       -0.001779622966     0.001143791473     0.001328550067
      13        0.018078948647     0.026059336566     0.004834820942
      14        0.009874891555    -0.003694897000    -0.001315206130
      15        0.001322955304     0.002324064955     0.002669034093
      16        0.000400406841    -0.001299311004    -0.003145945806
      17       -0.008043661019     0.012179837759    -0.000173341814
      18        0.008537903951    -0.011932380852    -0.000440863943


*** tstop() called on computer03 at Fri Aug 11 22:02:19 2017
Module time:
	user time   =      23.61 seconds =       0.39 minutes
	system time =       0.33 seconds =       0.01 minutes
	total time  =         11 seconds =       0.18 minutes
Total time:
	user time   =     123.11 seconds =       2.05 minutes
	system time =       1.87 seconds =       0.03 minutes
	total time  =         71 seconds =       1.18 minutes

			-----------------------------------------
			 OPTKING 2.0: for geometry optimizations 
			  - R.A. King,  Bethel University        
			-----------------------------------------
	At level 1: Red. Int., RFO, no backsteps, dynamic trust

	Internal coordinates to be generated automatically.
	Detected frag 1 with atoms:  1 2 3 4 5 6 7 8 9 10 11 12 13 14 15 16 17 18
	---Fragment 1 Bond Connectivity---
	 1 : 2 6 7
	 2 : 1 3 8
	 3 : 2 4 9
	 4 : 3 5 10
	 5 : 4 6 11
	 6 : 1 5 12
	 7 : 1 13 14
	 8 : 2
	 9 : 3
	 10 : 4
	 11 : 5
	 12 : 6
	 13 : 7 17 18
	 14 : 7 15 16
	 15 : 14
	 16 : 14
	 17 : 13
	 18 : 13

	Assuming in current code that numbering for constraints corresponds to unified fragment.
	Frozen dihedral atom list: 
	     1     7    13    17
	---Fragment 1 Geometry and Gradient---
	 C           0.0284826189       -0.3509505324        0.0863011995
	 C           2.1788189931        1.2108967780        0.1921031862
	 C           1.9743544049        3.7514691575       -0.4530814409
	 C          -0.3613300878        4.7469712152       -1.1850630790
	 C          -2.5027582929        3.2020350639       -1.2834856852
	 C          -2.3181698443        0.6545859710       -0.6597759059
	 C           0.2335783756       -3.0331805623        0.7552207868
	 H           4.0126243502        0.4282572515        0.6813287156
	 H           3.6373776526        4.9502188197       -0.4040827320
	 H          -0.5131242291        6.7321266280       -1.6801373108
	 H          -4.3174698573        3.9870405275       -1.8272109163
	 H          -4.0023636938       -0.5193799329       -0.6610458018
	 N          -1.1130196797       -4.7451779524       -0.4990414702
	 N           1.7657796625       -3.7484872570        2.6148265749
	 H           2.1062346123       -5.5858320712        3.0330437550
	 H           2.5478201458       -2.4353524721        3.7629996068
	 H          -2.3689316677       -5.8412569040        0.4366450861
	 H          -1.0390217838       -4.9351332233       -2.4030085792
	            -0.0117645646        0.0076926895        0.0012746694
	            -0.0008681176       -0.0060889942        0.0002408708
	            -0.0027540589        0.0012143227       -0.0014112159
	             0.0005421349       -0.0000726935        0.0002149670
	             0.0005083083        0.0009876373       -0.0011765462
	             0.0033893637       -0.0000049513        0.0019184586
	            -0.0171864036       -0.0284254408       -0.0055365700
	            -0.0002147508        0.0001933405        0.0003915638
	             0.0000365373       -0.0002227246        0.0002077846
	            -0.0001016552       -0.0000531502        0.0002189731
	             0.0000157888       -0.0000058493       -0.0000981242
	            -0.0017796230        0.0011437915        0.0013285501
	             0.0180789486        0.0260593366        0.0048348209
	             0.0098748916       -0.0036948970       -0.0013152061
	             0.0013229553        0.0023240650        0.0026690341
	             0.0004004068       -0.0012993110       -0.0031459458
	            -0.0080436610        0.0121798378       -0.0001733418
	             0.0085379040       -0.0119323809       -0.0004408639

	Previous optimization step data not found.  Starting new optimization.

	---Fragment 1 Intrafragment Coordinates---
	 - Coordinate -           - BOHR/RAD -       - ANG/DEG -
	 R(1,2)           =         2.659795	       1.407503
	 R(1,6)           =         2.659796	       1.407503
	 R(1,7)           =         2.771980	       1.466869
	 R(2,3)           =         2.629178	       1.391301
	 R(2,8)           =         2.052975	       1.086388
	 R(3,4)           =         2.642394	       1.398294
	 R(3,9)           =         2.050621	       1.085142
	 R(4,5)           =         2.642391	       1.398293
	 R(4,10)          =         2.051580	       1.085650
	 R(5,6)           =         2.629179	       1.391302
	 R(5,11)          =         2.050622	       1.085142
	 R(6,12)          =         2.052975	       1.086388
	 R(7,13)          =         2.513451	       1.330061
	 R(7,14)          =         2.513451	       1.330061
	 R(13,17)         =         1.911600	       1.011575
	 R(13,18)         =         1.914850	       1.013295
	 R(14,15)         =         1.914850	       1.013295
	 R(14,16)         =         1.911599	       1.011575
	 B(1,2,3)         =         2.088382	     119.655468
	 B(1,2,8)         =         2.103395	     120.515664
	 B(1,6,5)         =         2.088381	     119.655412
	 B(1,6,12)        =         2.103396	     120.515703
	 B(1,7,13)        =         2.093264	     119.935168
	 B(1,7,14)        =         2.093264	     119.935190
	 B(2,1,6)         =         2.097218	     120.161723
	 B(2,1,7)         =         2.092984	     119.919152
	 B(2,3,4)         =         2.095278	     120.050596
	 B(2,3,9)         =         2.089720	     119.732154
	 B(3,2,8)         =         2.090148	     119.756656
	 B(3,4,5)         =         2.101793	     120.423880
	 B(3,4,10)        =         2.090696	     119.788039
	 B(4,3,9)         =         2.098135	     120.214291
	 B(4,5,6)         =         2.095279	     120.050642
	 B(4,5,11)        =         2.098136	     120.214322
	 B(5,4,10)        =         2.090696	     119.788082
	 B(5,6,12)        =         2.090148	     119.756674
	 B(6,1,7)         =         2.092984	     119.919126
	 B(6,5,11)        =         2.089719	     119.732078
	 B(7,13,17)       =         2.092411	     119.886337
	 B(7,13,18)       =         2.144861	     122.891462
	 B(7,14,15)       =         2.144860	     122.891417
	 B(7,14,16)       =         2.092412	     119.886364
	 B(13,7,14)       =         2.096658	     120.129641
	 B(15,14,16)      =         2.043399	     117.078158
	 B(17,13,18)      =         2.043399	     117.078143
	 D(1,2,3,4)       =         0.007799	       0.446867
	 D(1,2,3,9)       =        -3.122896	    -178.928757
	 D(1,6,5,4)       =         0.007800	       0.446880
	 D(1,6,5,11)      =        -3.122897	    -178.928805
	*D(1,7,13,17)     =        -2.094396	    -120.000032
	 D(1,7,13,18)     =         0.968780	      55.507032
	 D(1,7,14,15)     =        -3.032164	    -173.730209
	 D(1,7,14,16)     =         0.187846	      10.762773
	 D(2,1,6,5)       =        -0.003906	      -0.223791
	 D(2,1,6,12)      =        -3.091437	    -177.126308
	 D(2,1,7,13)      =        -2.505168	    -143.535539
	 D(2,1,7,14)      =         0.636425	      36.464451
	 D(2,3,4,5)       =        -0.003942	      -0.225848
	 D(2,3,4,10)      =         3.137649	     179.774073
	 D(3,2,1,6)       =        -0.003907	      -0.223866
	 D(3,2,1,7)       =         3.137687	     179.776216
	 D(3,4,5,6)       =        -0.003944	      -0.225952
	 D(3,4,5,11)      =         3.126700	     179.146696
	 D(4,3,2,8)       =         3.095745	     177.373114
	 D(4,5,6,12)      =         3.095745	     177.373150
	 D(5,4,3,9)       =         3.126700	     179.146737
	 D(5,6,1,7)       =         3.137685	     179.776126
	 D(6,1,2,8)       =        -3.091438	    -177.126361
	 D(6,1,7,13)      =         0.636426	      36.464544
	 D(6,1,7,14)      =        -2.505166	    -143.535466
	 D(6,5,4,10)      =         3.137650	     179.774127
	 D(7,1,2,8)       =         0.050156	       2.873722
	 D(7,1,6,12)      =         0.050154	       2.873609
	 D(8,2,3,9)       =        -0.034950	      -2.002509
	 D(9,3,4,10)      =        -0.014894	      -0.853342
	 D(10,4,5,11)     =        -0.014892	      -0.853225
	 D(11,5,6,12)     =        -0.034951	      -2.002536
	 D(13,7,14,15)    =         0.109428	       6.269781
	 D(13,7,14,16)    =        -2.953747	    -169.237237
	 D(14,7,13,17)    =         1.047197	      59.999978
	 D(14,7,13,18)    =        -2.172812	    -124.492958

	Current energy   :      -381.4471403376

	Generating empirical Hessian (Schlegel '84) for each fragment.
	Taking RFO optimization step.
	Going to follow RFO solution 1.
	Using RFO vector 1.

	Determining step-restricting scale parameter for RS-RFO.
	Maximum step size allowed    0.50000

	 Iter      |step|        alpha        rfo_root  
	------------------------------------------------
	    0     0.57969       1.00000           1
	    1     0.51411       1.44039           1
	    2     0.50058       1.55491           1
	    3     0.50000       1.56007           1
	------------------------------------------------
	Norm of target step-size    0.50000
	Projected energy change by RFO approximation:        -0.0013468669

	Back-transformation to cartesian coordinates...
	Could not converge backtransformation.
	Using first guess instead.

	Back-transformation to cartesian coordinates to adjust frozen coordinates...
	Successfully converged to displaced geometry.

	--- Internal Coordinate Step in ANG or DEG, aJ/ANG or AJ/DEG ---
	 ---------------------------------------------------------------------------
	   Coordinate                Previous        Force       Change         New 
	   ----------                --------       ------       ------       ------
	    1 R(1,2)          =      1.407503     0.035538     0.005913     1.413416
	    2 R(1,6)          =      1.407503     0.005470     0.001467     1.408970
	    3 R(1,7)          =      1.466869    -0.039895    -0.006705     1.460164
	    4 R(2,3)          =      1.391301    -0.013106    -0.001287     1.390014
	    5 R(2,8)          =      1.086388     0.001420     0.000550     1.086938
	    6 R(3,4)          =      1.398294     0.012607     0.002137     1.400431
	    7 R(3,9)          =      1.085142     0.000786     0.000884     1.086026
	    8 R(4,5)          =      1.398293     0.011229     0.002587     1.400880
	    9 R(4,10)         =      1.085650     0.000795     0.000435     1.086085
	   10 R(5,6)          =      1.391302    -0.006761    -0.000419     1.390883
	   11 R(5,11)         =      1.085142    -0.000082     0.000439     1.085582
	   12 R(6,12)         =      1.086388    -0.006631     0.000861     1.087249
	   13 R(7,13)         =      1.330061     0.246974     0.030856     1.360917
	   14 R(7,14)         =      1.330061    -0.053595    -0.005450     1.324612
	   15 R(13,17)        =      1.011575     0.014703     0.004075     1.015650
	   16 R(13,18)        =      1.013295    -0.016082     0.029749     1.043044
	   17 R(14,15)        =      1.013295     0.011636     0.002768     1.016063
	   18 R(14,16)        =      1.011575     0.021564     0.003105     1.014680
	   19 B(1,2,3)        =    119.655468     0.000032     0.134677   119.790145
	   20 B(1,2,8)        =    120.515664    -0.000020    -0.061225   120.454439
	   21 B(1,6,5)        =    119.655412    -0.000031    -0.150990   119.504422
	   22 B(1,6,12)       =    120.515703    -0.000097    -0.384087   120.131616
	   23 B(1,7,13)       =    119.935168     0.000604     1.521945   121.457114
	   24 B(1,7,14)       =    119.935190     0.000019     0.048103   119.983294
	   25 B(2,1,6)        =    120.161723    -0.000013     0.010609   120.172332
	   26 B(2,1,7)        =    119.919152     0.000414     1.142239   121.061391
	   27 B(2,3,4)        =    120.050596    -0.000079    -0.272579   119.778017
	   28 B(2,3,9)        =    119.732154     0.000059     0.220045   119.952199
	   29 B(3,2,8)        =    119.756656    -0.000012    -0.067477   119.689179
	   30 B(3,4,5)        =    120.423880     0.000069     0.205411   120.629291
	   31 B(3,4,10)       =    119.788039    -0.000040    -0.140961   119.647077
	   32 B(4,3,9)        =    120.214291     0.000019     0.051047   120.265337
	   33 B(4,5,6)        =    120.050642     0.000022     0.063144   120.113786
	   34 B(4,5,11)       =    120.214322    -0.000010     0.012426   120.226748
	   35 B(5,4,10)       =    119.788082    -0.000029    -0.065635   119.722447
	   36 B(5,6,12)       =    119.756674     0.000130     0.558777   120.315451
	   37 B(6,1,7)        =    119.919126    -0.000401    -1.152849   118.766277
	   38 B(6,5,11)       =    119.732078    -0.000012    -0.072682   119.659396
	   39 B(7,13,17)      =    119.886337     0.000479     1.628486   121.514823
	   40 B(7,13,18)      =    122.891462    -0.000497    -2.774079   120.117383
	   41 B(7,14,15)      =    122.891417    -0.000359    -1.529412   121.362005
	   42 B(7,14,16)      =    119.886364     0.000210     0.849958   120.736321
	   43 B(13,7,14)      =    120.129641    -0.000623    -1.901630   118.228011
	   44 B(15,14,16)     =    117.078158     0.000142     0.527302   117.605460
	   45 B(17,13,18)     =    117.078143    -0.000027    -0.700295   116.377848
	   46 D(1,2,3,4)      =      0.446867    -0.000002    -0.171019     0.275848
	   47 D(1,2,3,9)      =   -178.928757    -0.000000    -0.030409  -178.959166
	   48 D(1,6,5,4)      =      0.446880     0.000008     0.665740     1.112620
	   49 D(1,6,5,11)     =   -178.928805     0.000002     0.137551  -178.791254
	   50 *D(1,7,13,17)   =   -120.000032     0.000000     0.000000  -120.000032
	   51 D(1,7,13,18)    =     55.507032    -0.000161   -12.136205    43.370827
	   52 D(1,7,14,15)    =   -173.730209    -0.000029    -2.660131  -176.390340
	   53 D(1,7,14,16)    =     10.762773    -0.000006    -0.752327    10.010445
	   54 D(2,1,6,5)      =     -0.223791    -0.000012    -1.045492    -1.269284
	   55 D(2,1,6,12)     =   -177.126308    -0.000019    -1.618149  -178.744457
	   56 D(2,1,7,13)     =   -143.535539    -0.000074    -7.544236  -151.079775
	   57 D(2,1,7,14)     =     36.464451     0.000002    -0.814400    35.650051
	   58 D(2,3,4,5)      =     -0.225848    -0.000002    -0.209376    -0.435224
	   59 D(2,3,4,10)     =    179.774073     0.000002     0.187859   179.961932
	   60 D(3,2,1,6)      =     -0.223866     0.000009     0.798435     0.574569
	   61 D(3,2,1,7)      =    179.776216     0.000008     0.790538   180.566755
	   62 D(3,4,5,6)      =     -0.225952    -0.000001    -0.041621    -0.267573
	   63 D(3,4,5,11)     =    179.146696     0.000005     0.489055   179.635752
	   64 D(4,3,2,8)      =    177.373114    -0.000001    -0.043039   177.330075
	   65 D(4,5,6,12)     =    177.373150     0.000013     1.209917   178.583067
	   66 D(5,4,3,9)      =    179.146737    -0.000004    -0.349376   178.797361
	   67 D(5,6,1,7)      =    179.776126    -0.000011    -1.037773   178.738352
	   68 D(6,1,2,8)      =   -177.126361     0.000007     0.669593  -176.456768
	   69 D(6,1,7,13)     =     36.464544    -0.000075    -7.552025    28.912519
	   70 D(6,1,7,14)     =   -143.535466     0.000001    -0.822189  -144.357655
	   71 D(6,5,4,10)     =    179.774127    -0.000005    -0.439154   179.334973
	   72 D(7,1,2,8)      =      2.873722     0.000007     0.661697     3.535418
	   73 D(7,1,6,12)     =      2.873609    -0.000018    -1.610431     1.263179
	   74 D(8,2,3,9)      =     -2.002509     0.000001     0.097571    -1.904939
	   75 D(9,3,4,10)     =     -0.853342     0.000000     0.047859    -0.805483
	   76 D(10,4,5,11)    =     -0.853225     0.000001     0.091522    -0.761703
	   77 D(11,5,6,12)    =     -2.002536     0.000007     0.681729    -1.320807
	   78 D(13,7,14,15)   =      6.269781     0.000046     3.854576    10.124357
	   79 D(13,7,14,16)   =   -169.237237     0.000070     5.762380  -163.474858
	   80 D(14,7,13,17)   =     59.999978    -0.000076    -6.615505    53.384474
	   81 D(14,7,13,18)   =   -124.492958    -0.000237   -18.751709  -143.244667
	 ---------------------------------------------------------------------------
	Successfully symmetrized geometry.

  ==> Convergence Check <==

  Measures of convergence in internal coordinates in au.
  Criteria marked as inactive (o), active & met (*), and active & unmet ( ).
  --------------------------------------------------------------------------------------------- ~
   Step     Total Energy     Delta E     MAX Force     RMS Force      MAX Disp      RMS Disp    ~
  --------------------------------------------------------------------------------------------- ~
    Convergence Criteria    1.00e-06 *    3.00e-04 *             o    1.20e-03 *             o  ~
  --------------------------------------------------------------------------------------------- ~
      1    -381.44714034   -3.81e+02      3.00e-02      4.55e-03 o    3.27e-01      5.39e-02 o  ~
  ---------------------------------------------------------------------------------------------

	Writing optimization data to binary file.
	Structure for next step:
	Cartesian Geometry (in Angstrom)
	    C     0.0632736257  -0.1886396275   0.0245038455
	    C     1.1821394540   0.6702609367   0.1149079480
	    C     1.0476220660   2.0158094102  -0.2068723617
	    C    -0.1970999395   2.5127481921  -0.6129832303
	    C    -1.3080085165   1.6645317088  -0.7071886975
	    C    -1.1822481387   0.3134062934  -0.4019025696
	    C     0.1702790071  -1.6039063080   0.3675039068
	    H     2.1579627268   0.2769484883   0.3878710624
	    H     1.9094271557   2.6746079625  -0.1546233195
	    H    -0.2999438857   3.5645756378  -0.8633076826
	    H    -2.2712205857   2.0578715894  -1.0170169980
	    H    -2.0473196611  -0.3433136728  -0.4517005091
	    N    -0.6273602667  -2.5386936951  -0.2173378509
	    N     0.9616770346  -1.9869270212   1.3582513191
	    H     1.0938272892  -2.9697075004   1.5797509054
	    H     1.3799094520  -1.3041171949   1.9814911664
	    H    -1.2540770808  -3.1200035139   0.3311600250
	    H    -0.8058903865  -2.5057011012  -1.2444596586
			--------------------------
			 OPTKING Finished Execution 
			--------------------------

    Structure for next step:
    Molecular point group: c1
    Full point group: C1

    Geometry (in Angstrom), charge = 1, multiplicity = 1:

    C            0.047956429767    -0.184972753273     0.028919364866
    C            1.166822258126     0.673927810897     0.119323467385
    C            1.032304870102     2.019476284404    -0.202456842343
    C           -0.212417135399     2.516415066309    -0.608567710973
    C           -1.323325712394     1.668198583035    -0.702773178178
    C           -1.197565334623     0.317073167676    -0.397487050227
    C            0.154961811262    -1.600239433823     0.371919426108
    H            2.142645530881     0.280615362548     0.392286581710
    H            1.894109959771     2.678274836732    -0.150207800141
    H           -0.315261081546     3.568242511989    -0.858892163304
    H           -2.286537781617     2.061538463605    -1.012601478669
    H           -2.062636857019    -0.339646798570    -0.447284989730
    N           -0.642677462571    -2.535026820883    -0.212922331547
    N            0.946359838728    -1.983260146932     1.362666838465
    H            1.078510093315    -2.966040626163     1.584166424776
    H            1.364592256119    -1.300450320671     1.985906685747
    H           -1.269394276638    -3.116336639644     0.335575544374
    H           -0.821207582354    -2.502034226984    -1.240044139283

gradient() will perform analytic gradient computation.

*** tstart() called on computer03
*** at Fri Aug 11 22:02:19 2017

   => Loading Basis Set <=

    Name: 6-31G*
    Role: ORBITAL
    Keyword: BASIS
    atoms 1-7         entry C          line   102 file /home/raimis/opt/miniconda3/envs/htmd/share/psi4/basis/6-31gs.gbs 
    atoms 8-12, 15-18 entry H          line    35 file /home/raimis/opt/miniconda3/envs/htmd/share/psi4/basis/6-31gs.gbs 
    atoms 13-14       entry N          line   119 file /home/raimis/opt/miniconda3/envs/htmd/share/psi4/basis/6-31gs.gbs 


         ---------------------------------------------------------
                                   SCF
            by Justin Turney, Rob Parrish, and Andy Simmonett
                              RKS Reference
                        8 Threads,   1907 MiB Core
         ---------------------------------------------------------

  ==> Geometry <==

    Molecular point group: c1
    Full point group: C1

    Geometry (in Angstrom), charge = 1, multiplicity = 1:

       Center              X                  Y                   Z               Mass       
    ------------   -----------------  -----------------  -----------------  -----------------
           C          0.047956429767    -0.184972753273     0.028919364866    12.000000000000
           C          1.166822258126     0.673927810897     0.119323467385    12.000000000000
           C          1.032304870102     2.019476284404    -0.202456842343    12.000000000000
           C         -0.212417135399     2.516415066309    -0.608567710973    12.000000000000
           C         -1.323325712394     1.668198583035    -0.702773178178    12.000000000000
           C         -1.197565334623     0.317073167676    -0.397487050227    12.000000000000
           C          0.154961811262    -1.600239433823     0.371919426108    12.000000000000
           H          2.142645530881     0.280615362548     0.392286581710     1.007825032070
           H          1.894109959771     2.678274836732    -0.150207800141     1.007825032070
           H         -0.315261081546     3.568242511989    -0.858892163304     1.007825032070
           H         -2.286537781617     2.061538463605    -1.012601478669     1.007825032070
           H         -2.062636857019    -0.339646798570    -0.447284989730     1.007825032070
           N         -0.642677462571    -2.535026820883    -0.212922331547    14.003074004780
           N          0.946359838728    -1.983260146932     1.362666838465    14.003074004780
           H          1.078510093315    -2.966040626163     1.584166424776     1.007825032070
           H          1.364592256119    -1.300450320671     1.985906685747     1.007825032070
           H         -1.269394276638    -3.116336639644     0.335575544374     1.007825032070
           H         -0.821207582354    -2.502034226984    -1.240044139283     1.007825032070

  Running in c1 symmetry.

  Rotational constants: A =      0.12067  B =      0.03966  C =      0.03106 [cm^-1]
  Rotational constants: A =   3617.48208  B =   1188.87877  C =    931.26390 [MHz]
  Nuclear repulsion =  415.840078299683569

  Charge       = 1
  Multiplicity = 1
  Electrons    = 64
  Nalpha       = 32
  Nbeta        = 32

  ==> Algorithm <==

  SCF Algorithm Type is DF.
  DIIS enabled.
  MOM disabled.
  Fractional occupation disabled.
  Guess Type is READ.
  Energy threshold   = 1.00e-08
  Density threshold  = 1.00e-08
  Integral threshold = 0.00e+00

  ==> Primary Basis <==

  Basis Set: 6-31G*
    Blend: 6-31G*
    Number of shells: 72
    Number of basis function: 153
    Number of Cartesian functions: 153
    Spherical Harmonics?: false
    Max angular momentum: 2

  ==> DFT Potential <==

   => B3LYP Composite Functional <= 

    B3LYP Hybrid-GGA Exchange-Correlation Functional (VWN1-RPA)

    P.J. Stephens et. al., J. Phys. Chem., 98, 11623-11627, 1994

    Points   =           5000
    Deriv    =              1
    GGA      =           TRUE
    Meta     =          FALSE

    X_LRC        =          FALSE
    X_Hybrid     =           TRUE
    X_Alpha      =   2.000000E-01
    X_Omega      =   0.000000E+00
    C_LRC        =          FALSE
    C_Hybrid     =          FALSE
    C_Alpha      =   0.000000E+00
    C_Omega      =   0.000000E+00

   => Exchange Functionals <=

    0.8000    B3_X
    0.2000      HF 

   => Correlation Functionals <=

    0.1900 VWN3RPA_C
    0.8100   LYP_C

   => Molecular Quadrature <=

    Radial Scheme    =       TREUTLER
    Pruning Scheme   =           FLAT
    Nuclear Scheme   =       TREUTLER

    BS radius alpha  =              1
    Pruning alpha    =              1
    Radial Points    =             75
    Spherical Points =            302
    Total Points     =         397055
    Total Blocks     =            334
    Max Points       =           4999
    Max Functions    =            151

   => -D3ZERO: Empirical Dispersion <=

    Grimme's -D3 (zero-damping) Dispersion Correction
    Grimme S.; Antony J.; Ehrlich S.; Krieg H. (2010), J. Chem. Phys., 132: 154104

        S6 =   1.000000E+00
        S8 =   1.703000E+00
       SR6 =   1.261000E+00
    ALPHA6 =   1.400000E+01

   => Loading Basis Set <=

    Name: (6-31G* AUX)
    Role: JKFIT
    Keyword: DF_BASIS_SCF
    atoms 1-7         entry C          line   120 file /home/raimis/opt/miniconda3/envs/htmd/share/psi4/basis/cc-pvdz-jkfit.gbs 
    atoms 8-12, 15-18 entry H          line    50 file /home/raimis/opt/miniconda3/envs/htmd/share/psi4/basis/cc-pvdz-jkfit.gbs 
    atoms 13-14       entry N          line   170 file /home/raimis/opt/miniconda3/envs/htmd/share/psi4/basis/cc-pvdz-jkfit.gbs 

  Reading orbitals from file 180, no projection.

  ==> Pre-Iterations <==

   -------------------------------------------------------
    Irrep   Nso     Nmo     Nalpha   Nbeta   Ndocc  Nsocc
   -------------------------------------------------------
     A        153     153       0       0       0       0
   -------------------------------------------------------
    Total     153     153      32      32      32       0
   -------------------------------------------------------

  ==> Integral Setup <==

  ==> DFJK: Density-Fitted J/K Matrices <==

    J tasked:                  Yes
    K tasked:                  Yes
    wK tasked:                  No
    OpenMP threads:              8
    Integrals threads:           8
    Memory (MB):              1430
    Algorithm:                Core
    Integral Cache:           NONE
    Schwarz Cutoff:          1E-12
    Fitting Condition:       1E-12

   => Auxiliary Basis Set <=

  Basis Set: (6-31G* AUX)
    Blend: CC-PVDZ-JKFIT
    Number of shells: 297
    Number of basis function: 954
    Number of Cartesian functions: 954
    Spherical Harmonics?: false
    Max angular momentum: 3

  Minimum eigenvalue in the overlap matrix is 4.9190321870E-04.
  Using Symmetric Orthogonalization.

  SCF Guess: Orbitals guess was supplied from a previous computation.

  ==> Iterations <==

                           Total Energy        Delta E     RMS |[F,P]|

   @DF-RKS iter   0:  -381.40586174142538   -3.81406e+02   2.35915e-03 
   @DF-RKS iter   1:  -381.45438549882851   -4.85238e-02   3.55074e-04 
   @DF-RKS iter   2:  -381.45422550691791    1.59992e-04   4.69131e-04 DIIS
   @DF-RKS iter   3:  -381.45486455805843   -6.39051e-04   7.94530e-05 DIIS
   @DF-RKS iter   4:  -381.45488747000508   -2.29119e-05   4.98565e-05 DIIS
   @DF-RKS iter   5:  -381.45489438933237   -6.91933e-06   1.33089e-05 DIIS
   @DF-RKS iter   6:  -381.45489485692212   -4.67590e-07   3.55850e-06 DIIS
   @DF-RKS iter   7:  -381.45489493028037   -7.33583e-08   1.41089e-06 DIIS
   @DF-RKS iter   8:  -381.45489493581107   -5.53069e-09   4.01196e-07 DIIS
   @DF-RKS iter   9:  -381.45489493659340   -7.82336e-10   1.19866e-07 DIIS
   @DF-RKS iter  10:  -381.45489493664894   -5.55360e-11   5.96747e-08 DIIS
   @DF-RKS iter  11:  -381.45489493666014   -1.11982e-11   1.82229e-08 DIIS
   @DF-RKS iter  12:  -381.45489493666287   -2.72848e-12   4.46050e-09 DIIS

  ==> Post-Iterations <==

    Orbital Energies (a.u.)
    -----------------------

    Doubly Occupied:                                                      

       1A    -14.574440     2A    -14.547923     3A    -10.495093  
       4A    -10.373001     5A    -10.359424     6A    -10.358297  
       7A    -10.348710     8A    -10.343508     9A    -10.342678  
      10A     -1.174502    11A     -1.077307    12A     -1.015048  
      13A     -0.925868    14A     -0.904217    15A     -0.840221  
      16A     -0.778318    17A     -0.768513    18A     -0.737411  
      19A     -0.724629    20A     -0.690942    21A     -0.670701  
      22A     -0.628591    23A     -0.608139    24A     -0.583814  
      25A     -0.579537    26A     -0.559838    27A     -0.518601  
      28A     -0.508164    29A     -0.499737    30A     -0.461359  
      31A     -0.415568    32A     -0.408050  

    Virtual:                                                              

      33A     -0.237958    34A     -0.157561    35A     -0.134228  
      36A     -0.101175    37A     -0.074366    38A     -0.050906  
      39A     -0.038360    40A     -0.020453    41A      0.005493  
      42A      0.008836    43A      0.020794    44A      0.052151  
      45A      0.058999    46A      0.087386    47A      0.126259  
      48A      0.132060    49A      0.155420    50A      0.159107  
      51A      0.209994    52A      0.235215    53A      0.297519  
      54A      0.352909    55A      0.363411    56A      0.379102  
      57A      0.391590    58A      0.397237    59A      0.416091  
      60A      0.419568    61A      0.439579    62A      0.447611  
      63A      0.453096    64A      0.468890    65A      0.472335  
      66A      0.479410    67A      0.488195    68A      0.518499  
      69A      0.521997    70A      0.532682    71A      0.554371  
      72A      0.579689    73A      0.614532    74A      0.653097  
      75A      0.674523    76A      0.684662    77A      0.697954  
      78A      0.701027    79A      0.713236    80A      0.714057  
      81A      0.725009    82A      0.754024    83A      0.771923  
      84A      0.775422    85A      0.805896    86A      0.816361  
      87A      0.856050    88A      0.911189    89A      0.941411  
      90A      0.976575    91A      0.988289    92A      1.020763  
      93A      1.058465    94A      1.076225    95A      1.127218  
      96A      1.139607    97A      1.225910    98A      1.272744  
      99A      1.275671   100A      1.305181   101A      1.316396  
     102A      1.339342   103A      1.353386   104A      1.362721  
     105A      1.446242   106A      1.470644   107A      1.555995  
     108A      1.576444   109A      1.627036   110A      1.657430  
     111A      1.676844   112A      1.735222   113A      1.748538  
     114A      1.796813   115A      1.807981   116A      1.820841  
     117A      1.892180   118A      1.918790   119A      1.948139  
     120A      1.975639   121A      1.980888   122A      1.998053  
     123A      2.024676   124A      2.032386   125A      2.115917  
     126A      2.130588   127A      2.152628   128A      2.185140  
     129A      2.232475   130A      2.333733   131A      2.336675  
     132A      2.372656   133A      2.443172   134A      2.451530  
     135A      2.481847   136A      2.503049   137A      2.540814  
     138A      2.583582   139A      2.595269   140A      2.624938  
     141A      2.731735   142A      2.829206   143A      2.982373  
     144A      3.251673   145A      3.623733   146A      3.661742  
     147A      3.908300   148A      3.942564   149A      3.961334  
     150A      4.042739   151A      4.169660   152A      4.252991  
     153A      4.543829  

    Final Occupation by Irrep:
              A 
    DOCC [    32 ]

  Energy converged.

  @DF-RKS Final Energy:  -381.45489493666287

   => Energetics <=

    Nuclear Repulsion Energy =            415.8400782996835687
    One-Electron Energy =               -1327.0151973103450018
    Two-Electron Energy =                 574.1125354694114549
    DFT Exchange-Correlation Energy =     -44.3803248054128545
    Empirical Dispersion Energy =          -0.0119865900000000
    PCM Polarization Energy =               0.0000000000000000
    EFP Energy =                            0.0000000000000000
    Total Energy =                       -381.4548949366628108



Properties will be evaluated at   0.000000,   0.000000,   0.000000 Bohr

Properties computed using the SCF density matrix

  Nuclear Dipole Moment: (a.u.)
     X:    -0.2589      Y:    -1.5204      Z:     0.5487

  Electronic Dipole Moment: (a.u.)
     X:     0.3046      Y:    -0.3536      Z:     0.1495

  Dipole Moment: (a.u.)
     X:     0.0457      Y:    -1.8740      Z:     0.6982     Total:     2.0004

  Dipole Moment: (Debye)
     X:     0.1162      Y:    -4.7633      Z:     1.7747     Total:     5.0845


*** tstop() called on computer03 at Fri Aug 11 22:03:11 2017
Module time:
	user time   =      84.93 seconds =       1.42 minutes
	system time =       1.19 seconds =       0.02 minutes
	total time  =         52 seconds =       0.87 minutes
Total time:
	user time   =     208.99 seconds =       3.48 minutes
	system time =       3.11 seconds =       0.05 minutes
	total time  =        123 seconds =       2.05 minutes

*** tstart() called on computer03
*** at Fri Aug 11 22:03:11 2017


         ------------------------------------------------------------
                                   SCF GRAD                          
                          Rob Parrish, Justin Turney,                
                       Andy Simmonett, and Alex Sokolov              
         ------------------------------------------------------------

  ==> Geometry <==

    Molecular point group: c1
    Full point group: C1

    Geometry (in Angstrom), charge = 1, multiplicity = 1:

       Center              X                  Y                   Z               Mass       
    ------------   -----------------  -----------------  -----------------  -----------------
           C          0.047956429767    -0.184972753273     0.028919364866    12.000000000000
           C          1.166822258126     0.673927810897     0.119323467385    12.000000000000
           C          1.032304870102     2.019476284404    -0.202456842343    12.000000000000
           C         -0.212417135399     2.516415066309    -0.608567710973    12.000000000000
           C         -1.323325712394     1.668198583035    -0.702773178178    12.000000000000
           C         -1.197565334623     0.317073167676    -0.397487050227    12.000000000000
           C          0.154961811262    -1.600239433823     0.371919426108    12.000000000000
           H          2.142645530881     0.280615362548     0.392286581710     1.007825032070
           H          1.894109959771     2.678274836732    -0.150207800141     1.007825032070
           H         -0.315261081546     3.568242511989    -0.858892163304     1.007825032070
           H         -2.286537781617     2.061538463605    -1.012601478669     1.007825032070
           H         -2.062636857019    -0.339646798570    -0.447284989730     1.007825032070
           N         -0.642677462571    -2.535026820883    -0.212922331547    14.003074004780
           N          0.946359838728    -1.983260146932     1.362666838465    14.003074004780
           H          1.078510093315    -2.966040626163     1.584166424776     1.007825032070
           H          1.364592256119    -1.300450320671     1.985906685747     1.007825032070
           H         -1.269394276638    -3.116336639644     0.335575544374     1.007825032070
           H         -0.821207582354    -2.502034226984    -1.240044139283     1.007825032070

  Nuclear repulsion =  415.840078299683569

  ==> Basis Set <==

  Basis Set: 6-31G*
    Blend: 6-31G*
    Number of shells: 72
    Number of basis function: 153
    Number of Cartesian functions: 153
    Spherical Harmonics?: false
    Max angular momentum: 2

  ==> DFJKGrad: Density-Fitted SCF Gradients <==

    Gradient:                    1
    J tasked:                  Yes
    K tasked:                  Yes
    wK tasked:                  No
    OpenMP threads:              8
    Integrals threads:           8
    Memory (MB):              1430
    Schwarz Cutoff:          0E+00
    Fitting Condition:       1E-12

   => Auxiliary Basis Set <=

  Basis Set: (6-31G* AUX)
    Blend: CC-PVDZ-JKFIT
    Number of shells: 297
    Number of basis function: 954
    Number of Cartesian functions: 954
    Spherical Harmonics?: false
    Max angular momentum: 3

  ==> DFT Potential <==

   => B3LYP Composite Functional <= 

    B3LYP Hybrid-GGA Exchange-Correlation Functional (VWN1-RPA)

    P.J. Stephens et. al., J. Phys. Chem., 98, 11623-11627, 1994

    Points   =           5000
    Deriv    =              1
    GGA      =           TRUE
    Meta     =          FALSE

    X_LRC        =          FALSE
    X_Hybrid     =           TRUE
    X_Alpha      =   2.000000E-01
    X_Omega      =   0.000000E+00
    C_LRC        =          FALSE
    C_Hybrid     =          FALSE
    C_Alpha      =   0.000000E+00
    C_Omega      =   0.000000E+00

   => Exchange Functionals <=

    0.8000    B3_X
    0.2000      HF 

   => Correlation Functionals <=

    0.1900 VWN3RPA_C
    0.8100   LYP_C

   => Molecular Quadrature <=

    Radial Scheme    =       TREUTLER
    Pruning Scheme   =           FLAT
    Nuclear Scheme   =       TREUTLER

    BS radius alpha  =              1
    Pruning alpha    =              1
    Radial Points    =             75
    Spherical Points =            302
    Total Points     =         397055
    Total Blocks     =            334
    Max Points       =           4999
    Max Functions    =            151


  -Total Gradient:
     Atom            X                  Y                   Z
    ------   -----------------  -----------------  -----------------
       1       -0.009197939323     0.004016155533     0.008540591441
       2        0.000859613259    -0.000208796179    -0.000035702617
       3        0.000072887015     0.000896766864    -0.000897877472
       4        0.001119821842     0.000746435507     0.000309853358
       5       -0.000381953028    -0.000502744582    -0.000122400189
       6        0.000848773048    -0.001006214510     0.001046767291
       7        0.013163578035    -0.002900955762    -0.003218217634
       8        0.000202950269     0.000373782034     0.000271906500
       9        0.000579132897     0.000353264331     0.000024398479
      10        0.000121259953     0.000206168367    -0.000041621159
      11       -0.000377295917    -0.000219249912    -0.000152242852
      12       -0.001412843535    -0.000906235044     0.000242049204
      13       -0.000352287028    -0.002623506931     0.022724314551
      14        0.002154744668     0.002261538727    -0.004508917976
      15       -0.000168928930    -0.000987984143     0.001290478392
      16        0.000378056826     0.000805183370     0.000462453028
      17       -0.009693694510     0.006359440603     0.000447413754
      18        0.002082807542    -0.006680440146    -0.026375906689


*** tstop() called on computer03 at Fri Aug 11 22:03:22 2017
Module time:
	user time   =      23.93 seconds =       0.40 minutes
	system time =       0.37 seconds =       0.01 minutes
	total time  =         11 seconds =       0.18 minutes
Total time:
	user time   =     233.00 seconds =       3.88 minutes
	system time =       3.49 seconds =       0.06 minutes
	total time  =        134 seconds =       2.23 minutes

			-----------------------------------------
			 OPTKING 2.0: for geometry optimizations 
			  - R.A. King,  Bethel University        
			-----------------------------------------
	At level 1: Red. Int., RFO, no backsteps, dynamic trust

	Previous internal coordinate definitions found.
	---Fragment 1 Geometry and Gradient---
	 C           0.0906245186       -0.3495478457        0.0546496795
	 C           2.2049745136        1.2735389959        0.2254886746
	 C           1.9507734901        3.8162571094       -0.3825879858
	 C          -0.4014102118        4.7553353120       -1.1500263071
	 C          -2.5007231810        3.1524384572       -1.3280488403
	 C          -2.2630705087        0.5991814510       -0.7511416663
	 C           0.2928353843       -3.0240142770        0.7028258588
	 H           4.0490132532        0.5302861839        0.7413142050
	 H           3.5793490895        5.0612059500       -0.2838516053
	 H          -0.5957571045        6.7430011234       -1.6230709663
	 H          -4.3209301998        3.8957431086       -1.9135394764
	 H          -3.8978187714       -0.6418394312       -0.8452461339
	 N          -1.2144843960       -4.7905064310       -0.4023648942
	 N           1.7883609184       -3.7478185280        2.5750671351
	 H           2.0380887079       -5.6050044825        2.9936406917
	 H           2.5787056471       -2.4574949555        3.7528197615
	 H          -2.3988075375       -5.8890227868        0.6341458758
	 H          -1.5518574289       -4.7281594641       -2.3433438159
	            -0.0091979393        0.0040161555        0.0085405914
	             0.0008596133       -0.0002087962       -0.0000357026
	             0.0000728870        0.0008967669       -0.0008978775
	             0.0011198218        0.0007464355        0.0003098534
	            -0.0003819530       -0.0005027446       -0.0001224002
	             0.0008487730       -0.0010062145        0.0010467673
	             0.0131635780       -0.0029009558       -0.0032182176
	             0.0002029503        0.0003737820        0.0002719065
	             0.0005791329        0.0003532643        0.0000243985
	             0.0001212600        0.0002061684       -0.0000416212
	            -0.0003772959       -0.0002192499       -0.0001522429
	            -0.0014128435       -0.0009062350        0.0002420492
	            -0.0003522870       -0.0026235069        0.0227243146
	             0.0021547447        0.0022615387       -0.0045089180
	            -0.0001689289       -0.0009879841        0.0012904784
	             0.0003780568        0.0008051834        0.0004624530
	            -0.0096936945        0.0063594406        0.0004474138
	             0.0020828075       -0.0066804401       -0.0263759067

	---Fragment 1 Intrafragment Coordinates---
	 - Coordinate -           - BOHR/RAD -       - ANG/DEG -
	 R(1,2)           =         2.670969	       1.413416
	 R(1,6)           =         2.662568	       1.408970
	 R(1,7)           =         2.759310	       1.460164
	 R(2,3)           =         2.626745	       1.390014
	 R(2,8)           =         2.054015	       1.086938
	 R(3,4)           =         2.646431	       1.400431
	 R(3,9)           =         2.052293	       1.086026
	 R(4,5)           =         2.647279	       1.400880
	 R(4,10)          =         2.052403	       1.086085
	 R(5,6)           =         2.628388	       1.390883
	 R(5,11)          =         2.051452	       1.085582
	 R(6,12)          =         2.054602	       1.087249
	 R(7,13)          =         2.571761	       1.360917
	 R(7,14)          =         2.503153	       1.324612
	 R(13,17)         =         1.919300	       1.015650
	 R(13,18)         =         1.971067	       1.043044
	 R(14,15)         =         1.920080	       1.016063
	 R(14,16)         =         1.917467	       1.014680
	 B(1,2,3)         =         2.090732	     119.790145
	 B(1,2,8)         =         2.102327	     120.454439
	 B(1,6,5)         =         2.085746	     119.504422
	 B(1,6,12)        =         2.096692	     120.131616
	 B(1,7,13)        =         2.119827	     121.457114
	 B(1,7,14)        =         2.094104	     119.983294
	 B(2,1,6)         =         2.097403	     120.172332
	 B(2,1,7)         =         2.112920	     121.061391
	 B(2,3,4)         =         2.090521	     119.778017
	 B(2,3,9)         =         2.093561	     119.952199
	 B(3,2,8)         =         2.088970	     119.689179
	 B(3,4,5)         =         2.105378	     120.629291
	 B(3,4,10)        =         2.088235	     119.647077
	 B(4,3,9)         =         2.099026	     120.265337
	 B(4,5,6)         =         2.096381	     120.113786
	 B(4,5,11)        =         2.098353	     120.226748
	 B(5,4,10)        =         2.089551	     119.722447
	 B(5,6,12)        =         2.099901	     120.315451
	 B(6,1,7)         =         2.072863	     118.766277
	 B(6,5,11)        =         2.088450	     119.659396
	 B(7,13,17)       =         2.120834	     121.514823
	 B(7,13,18)       =         2.096444	     120.117383
	 B(7,14,15)       =         2.118167	     121.362005
	 B(7,14,16)       =         2.107246	     120.736321
	 B(13,7,14)       =         2.063468	     118.228011
	 B(15,14,16)      =         2.052602	     117.605460
	 B(17,13,18)      =         2.031177	     116.377848
	 D(1,2,3,4)       =         0.004814	       0.275848
	 D(1,2,3,9)       =        -3.123427	    -178.959166
	 D(1,6,5,4)       =         0.019419	       1.112620
	 D(1,6,5,11)      =        -3.120496	    -178.791254
	*D(1,7,13,17)     =        -2.094396	    -120.000032
	 D(1,7,13,18)     =         0.756964	      43.370827
	 D(1,7,14,15)     =        -3.078592	    -176.390340
	 D(1,7,14,16)     =         0.174715	      10.010445
	 D(2,1,6,5)       =        -0.022153	      -1.269284
	 D(2,1,6,12)      =        -3.119679	    -178.744457
	 D(2,1,7,13)      =        -2.636840	    -151.079775
	 D(2,1,7,14)      =         0.622211	      35.650051
	 D(2,3,4,5)       =        -0.007596	      -0.435224
	 D(2,3,4,10)      =         3.140928	     179.961932
	 D(3,2,1,6)       =         0.010028	       0.574569
	 D(3,2,1,7)       =        -3.131701	    -179.433245
	 D(3,4,5,6)       =        -0.004670	      -0.267573
	 D(3,4,5,11)      =         3.135235	     179.635752
	 D(4,3,2,8)       =         3.094994	     177.330075
	 D(4,5,6,12)      =         3.116863	     178.583067
	 D(5,4,3,9)       =         3.120603	     178.797361
	 D(5,6,1,7)       =         3.119573	     178.738352
	 D(6,1,2,8)       =        -3.079752	    -176.456768
	 D(6,1,7,13)      =         0.504619	      28.912519
	 D(6,1,7,14)      =        -2.519516	    -144.357655
	 D(6,5,4,10)      =         3.129986	     179.334973
	 D(7,1,2,8)       =         0.061705	       3.535418
	 D(7,1,6,12)      =         0.022047	       1.263179
	 D(8,2,3,9)       =        -0.033247	      -1.904939
	 D(9,3,4,10)      =        -0.014058	      -0.805483
	 D(10,4,5,11)     =        -0.013294	      -0.761703
	 D(11,5,6,12)     =        -0.023052	      -1.320807
	 D(13,7,14,15)    =         0.176703	      10.124357
	 D(13,7,14,16)    =        -2.853175	    -163.474858
	 D(14,7,13,17)    =         0.931735	      53.384474
	 D(14,7,13,18)    =        -2.500091	    -143.244667

	Current energy   :      -381.4548949367

	Energy change for the previous step:
		Projected    :        -0.0013468669
		Actual       :        -0.0077545991
	Energy ratio indicates good step: Trust radius increased to 1.000e+00.


	Performing BFGS update.
	Previous computed or guess Hessian on step 1.
	Steps to be used in Hessian update: 1
	Taking RFO optimization step.
	Going to follow RFO solution 1.
	Using RFO vector 1.
	Norm of target step-size    0.52223
	Projected energy change by RFO approximation:        -0.0038174534

	Back-transformation to cartesian coordinates...
	Could not converge backtransformation.
	Using first guess instead.

	Back-transformation to cartesian coordinates to adjust frozen coordinates...
	Successfully converged to displaced geometry.

	--- Internal Coordinate Step in ANG or DEG, aJ/ANG or AJ/DEG ---
	 ---------------------------------------------------------------------------
	   Coordinate                Previous        Force       Change         New 
	   ----------                --------       ------       ------       ------
	    1 R(1,2)          =      1.413416    -0.015121    -0.000511     1.412905
	    2 R(1,6)          =      1.408970     0.007548     0.002253     1.411223
	    3 R(1,7)          =      1.460164    -0.016824    -0.004807     1.455357
	    4 R(2,3)          =      1.390014    -0.008336    -0.001440     1.388574
	    5 R(2,8)          =      1.086938    -0.000947     0.000245     1.087183
	    6 R(3,4)          =      1.400431    -0.000061     0.000910     1.401341
	    7 R(3,9)          =      1.086026    -0.005567    -0.000207     1.085819
	    8 R(4,5)          =      1.400880    -0.015844    -0.000931     1.399949
	    9 R(4,10)         =      1.086085    -0.001638    -0.000116     1.085968
	   10 R(5,6)          =      1.390883    -0.004329    -0.000567     1.390316
	   11 R(5,11)         =      1.085582    -0.002464    -0.000053     1.085528
	   12 R(6,12)         =      1.087249    -0.013674    -0.001656     1.085592
	   13 R(7,13)         =      1.360917    -0.066452     0.000201     1.361119
	   14 R(7,14)         =      1.324612     0.010319     0.000263     1.324874
	   15 R(13,17)        =      1.015650    -0.021273    -0.001426     1.014224
	   16 R(13,18)        =      1.043044    -0.209318     0.027568     1.070612
	   17 R(14,15)        =      1.016063    -0.010003    -0.000427     1.015636
	   18 R(14,16)        =      1.014680    -0.008088    -0.000431     1.014249
	   19 B(1,2,3)        =    119.790145    -0.000000     0.028547   119.818692
	   20 B(1,2,8)        =    120.454439    -0.000031    -0.141823   120.312616
	   21 B(1,6,5)        =    119.504422     0.000043     0.107320   119.611742
	   22 B(1,6,12)       =    120.131616    -0.000023    -0.144112   119.987504
	   23 B(1,7,13)       =    121.457114     0.000228     1.131395   122.588508
	   24 B(1,7,14)       =    119.983294     0.000189     0.711022   120.694315
	   25 B(2,1,6)        =    120.172332    -0.000046    -0.123827   120.048505
	   26 B(2,1,7)        =    121.061391    -0.000102    -0.150228   120.911163
	   27 B(2,3,4)        =    119.778017     0.000040     0.037183   119.815199
	   28 B(2,3,9)        =    119.952199    -0.000015     0.015611   119.967810
	   29 B(3,2,8)        =    119.689179     0.000032     0.133615   119.822794
	   30 B(3,4,5)        =    120.629291    -0.000003     0.047204   120.676495
	   31 B(3,4,10)       =    119.647077     0.000012     0.005946   119.653024
	   32 B(4,3,9)        =    120.265337    -0.000025    -0.055686   120.209652
	   33 B(4,5,6)        =    120.113786    -0.000033    -0.105704   120.008082
	   34 B(4,5,11)       =    120.226748    -0.000010    -0.046457   120.180291
	   35 B(5,4,10)       =    119.722447    -0.000009    -0.052985   119.669461
	   36 B(5,6,12)       =    120.315451    -0.000019     0.033115   120.348566
	   37 B(6,1,7)        =    118.766277     0.000148     0.269067   119.035343
	   38 B(6,5,11)       =    119.659396     0.000043     0.151737   119.811133
	   39 B(7,13,17)      =    121.514823     0.000085    -0.442218   121.072605
	   40 B(7,13,18)      =    120.117383    -0.000293    -4.878484   115.238899
	   41 B(7,14,15)      =    121.362005    -0.000067    -0.598828   120.763178
	   42 B(7,14,16)      =    120.736321     0.000049     0.485952   121.222273
	   43 B(13,7,14)      =    118.228011    -0.000415    -1.807894   116.420117
	   44 B(15,14,16)     =    117.605460     0.000022     0.231914   117.837375
	   45 B(17,13,18)     =    116.377848     0.000048    -2.392345   113.985503
	   46 D(1,2,3,4)      =      0.275848    -0.000004    -0.602108    -0.326261
	   47 D(1,2,3,9)      =   -178.959166    -0.000003    -0.383777  -179.342943
	   48 D(1,6,5,4)      =      1.112620     0.000000     0.083514     1.196134
	   49 D(1,6,5,11)     =   -178.791254     0.000002     0.242750  -178.548504
	   50 *D(1,7,13,17)   =   -120.000032    -0.000000    -0.000000  -120.000032
	   51 D(1,7,13,18)    =     43.370827    -0.000148   -19.397016    23.973811
	   52 D(1,7,14,15)    =   -176.390340     0.000016     1.953923  -174.436417
	   53 D(1,7,14,16)    =     10.010445     0.000004     0.495499    10.505944
	   54 D(2,1,6,5)      =     -1.269284    -0.000004    -0.535298    -1.804582
	   55 D(2,1,6,12)     =   -178.744457    -0.000003    -0.442317  -179.186774
	   56 D(2,1,7,13)     =   -151.079775    -0.000018    -3.149852  -154.229627
	   57 D(2,1,7,14)     =     35.650051    -0.000015    -3.393784    32.256267
	   58 D(2,3,4,5)      =     -0.435224     0.000001     0.150616    -0.284608
	   59 D(2,3,4,10)     =    179.961932     0.000001     0.122102   180.084034
	   60 D(3,2,1,6)      =      0.574569     0.000005     0.795615     1.370184
	   61 D(3,2,1,7)      =   -179.433245     0.000010     1.623856  -177.809389
	   62 D(3,4,5,6)      =     -0.267573     0.000001     0.111597    -0.155976
	   63 D(3,4,5,11)     =    179.635752    -0.000000    -0.048041   179.587711
	   64 D(4,3,2,8)      =    177.330075    -0.000001    -0.112287   177.217788
	   65 D(4,5,6,12)     =    178.583067    -0.000000    -0.014354   178.568713
	   66 D(5,4,3,9)      =    178.797361    -0.000001    -0.067695   178.729666
	   67 D(5,6,1,7)      =    178.738352    -0.000008    -1.348012   177.390340
	   68 D(6,1,2,8)      =   -176.456768     0.000002     0.295097  -176.161671
	   69 D(6,1,7,13)     =     28.912519    -0.000013    -2.329901    26.582618
	   70 D(6,1,7,14)     =   -144.357655    -0.000010    -2.573833  -146.931488
	   71 D(6,5,4,10)     =    179.334973     0.000001     0.140349   179.475322
	   72 D(7,1,2,8)      =      3.535418     0.000007     1.123337     4.658755
	   73 D(7,1,6,12)     =      1.263179    -0.000007    -1.255031     0.008148
	   74 D(8,2,3,9)      =     -1.904939     0.000000     0.106044    -1.798895
	   75 D(9,3,4,10)     =     -0.805483    -0.000001    -0.096209    -0.901692
	   76 D(10,4,5,11)    =     -0.761703    -0.000000    -0.019289    -0.780991
	   77 D(11,5,6,12)    =     -1.320807     0.000001     0.144882    -1.175925
	   78 D(13,7,14,15)   =     10.124357     0.000010     1.539809    11.664166
	   79 D(13,7,14,16)   =   -163.474858    -0.000002     0.081385  -163.393473
	   80 D(14,7,13,17)   =     53.384474     0.000005     0.388851    53.773325
	   81 D(14,7,13,18)   =   -143.244667    -0.000143   -19.008165  -162.252832
	 ---------------------------------------------------------------------------
	Successfully symmetrized geometry.

  ==> Convergence Check <==

  Measures of convergence in internal coordinates in au.
  Criteria marked as inactive (o), active & met (*), and active & unmet ( ).
  ---------------------------------------------------------------------------------------------
   Step     Total Energy     Delta E     MAX Force     RMS Force      MAX Disp      RMS Disp   
  ---------------------------------------------------------------------------------------------
    Convergence Criteria    1.00e-06 *    3.00e-04 *             o    1.20e-03 *             o
  ---------------------------------------------------------------------------------------------
      2    -381.45489494   -7.75e-03      2.54e-02      3.43e-03 o    3.39e-01      5.59e-02 o  ~
  ---------------------------------------------------------------------------------------------

	Writing optimization data to binary file.
	Structure for next step:
	Cartesian Geometry (in Angstrom)
	    C     0.0593880971  -0.1964167639   0.0085126670
	    C     1.1653364871   0.6737313120   0.1350872311
	    C     1.0223497965   2.0209307366  -0.1694541909
	    C    -0.2162996639   2.5086604984  -0.6072035224
	    C    -1.3130300344   1.6499112454  -0.7471627736
	    C    -1.1790685957   0.2974939780  -0.4539036755
	    C     0.1698233624  -1.6027853139   0.3662783274
	    H     2.1371424603   0.2865060285   0.4310899256
	    H     1.8733669020   2.6897717628  -0.0832859051
	    H    -0.3248140850   3.5624839927  -0.8459672160
	    H    -2.2706255527   2.0375644986  -1.0804904926
	    H    -2.0317218138  -0.3691261167  -0.5382304772
	    N    -0.6254042050  -2.5628581442  -0.1800886994
	    N     0.9752487197  -1.9906391374   1.3441084485
	    H     1.1173418713  -2.9770908287   1.5396560694
	    H     1.4094316295  -1.3172012511   1.9659348388
	    H    -1.2310732796  -3.1333576140   0.3998647822
	    H    -1.0401522719  -2.3218245628  -1.1372186882
			--------------------------
			 OPTKING Finished Execution 
			--------------------------

    Structure for next step:
    Molecular point group: c1
    Full point group: C1

    Geometry (in Angstrom), charge = 1, multiplicity = 1:

    C            0.050823581253    -0.187339916865     0.013945979455
    C            1.156771971277     0.682808159063     0.140520543625
    C            1.013785280680     2.030007583650    -0.164020878423
    C           -0.224864179680     2.517737345446    -0.601770209895
    C           -1.321594550201     1.658988092455    -0.741729461111
    C           -1.187633111518     0.306570825078    -0.448470362956
    C            0.161258846554    -1.593708466782     0.371711639949
    H            2.128577944508     0.295582875612     0.436523238057
    H            1.864802386192     2.698848609893    -0.077852592632
    H           -0.333378600868     3.571560839764    -0.840533903473
    H           -2.279190068549     2.046641345626    -1.075057180111
    H           -2.040286329658    -0.360049269669    -0.532797164741
    N           -0.633968720817    -2.553781297135    -0.174655386889
    N            0.966684203894    -1.981562290363     1.349541760975
    H            1.108777355473    -2.968013981633     1.545089381898
    H            1.400867113647    -1.308124403996     1.971368151341
    H           -1.239637795435    -3.124280766978     0.405298094702
    H           -1.048716787764    -2.312747715690    -1.131785375746

gradient() will perform analytic gradient computation.

*** tstart() called on computer03
*** at Fri Aug 11 22:03:22 2017

   => Loading Basis Set <=

    Name: 6-31G*
    Role: ORBITAL
    Keyword: BASIS
    atoms 1-7         entry C          line   102 file /home/raimis/opt/miniconda3/envs/htmd/share/psi4/basis/6-31gs.gbs 
    atoms 8-12, 15-18 entry H          line    35 file /home/raimis/opt/miniconda3/envs/htmd/share/psi4/basis/6-31gs.gbs 
    atoms 13-14       entry N          line   119 file /home/raimis/opt/miniconda3/envs/htmd/share/psi4/basis/6-31gs.gbs 


         ---------------------------------------------------------
                                   SCF
            by Justin Turney, Rob Parrish, and Andy Simmonett
                              RKS Reference
                        8 Threads,   1907 MiB Core
         ---------------------------------------------------------

  ==> Geometry <==

    Molecular point group: c1
    Full point group: C1

    Geometry (in Angstrom), charge = 1, multiplicity = 1:

       Center              X                  Y                   Z               Mass       
    ------------   -----------------  -----------------  -----------------  -----------------
[...]
	             0.0063975434        0.0012252197       -0.0099999764
	            -0.0000027831       -0.0000045448        0.0000097555
	             0.0000007747       -0.0000014402        0.0000041477
	             0.0000009610       -0.0000027024       -0.0000012010
	            -0.0000013101       -0.0000052383        0.0000007154
	            -0.0000127494       -0.0000003148       -0.0000009235
	             0.0086317491       -0.0099975142        0.0057775488
	             0.0000309151       -0.0000341159       -0.0000365627
	             0.0000166844        0.0000063540       -0.0000050054
	             0.0000126774        0.0000033136       -0.0000245326
	            -0.0089517230        0.0078853523       -0.0018254171
	             0.0000253709       -0.0001052957        0.0001290879

	---Fragment 1 Intrafragment Coordinates---
	 - Coordinate -           - BOHR/RAD -       - ANG/DEG -
	 R(1,2)           =         2.666673	       1.411142
	 R(1,6)           =         2.664460	       1.409971
	 R(1,7)           =         2.754630	       1.457688
	 R(2,3)           =         2.625231	       1.389212
	 R(2,8)           =         2.053382	       1.086603
	 R(3,4)           =         2.645184	       1.399771
	 R(3,9)           =         2.050502	       1.085079
	 R(4,5)           =         2.643412	       1.398834
	 R(4,10)          =         2.051754	       1.085742
	 R(5,6)           =         2.627104	       1.390203
	 R(5,11)          =         2.050497	       1.085076
	 R(6,12)          =         2.052020	       1.085882
	 R(7,13)          =         2.560925	       1.355183
	 R(7,14)          =         2.507354	       1.326835
	 R(13,17)         =         1.920297	       1.016177
	 R(13,18)         =         1.917047	       1.014458
	 R(14,15)         =         1.916948	       1.014405
	 R(14,16)         =         1.913058	       1.012347
	 B(1,2,3)         =         2.092080	     119.867345
	 B(1,2,8)         =         2.100158	     120.330185
	 B(1,6,5)         =         2.090175	     119.758186
	 B(1,6,12)        =         2.104004	     120.550541
	 B(1,7,13)        =         2.138090	     122.503554
	 B(1,7,14)        =         2.101626	     120.414287
	 B(2,1,6)         =         2.092513	     119.892162
	 B(2,1,7)         =         2.101549	     120.409876
	 B(2,3,4)         =         2.092783	     119.907658
	 B(2,3,9)         =         2.092615	     119.897983
	 B(3,2,8)         =         2.089697	     119.730830
	 B(3,4,5)         =         2.103960	     120.548029
	 B(3,4,10)        =         2.089650	     119.728136
	 B(4,3,9)         =         2.097677	     120.188046
	 B(4,5,6)         =         2.094700	     120.017476
	 B(4,5,11)        =         2.097808	     120.195552
	 B(5,4,10)        =         2.089566	     119.723338
	 B(5,6,12)        =         2.087707	     119.616818
	 B(6,1,7)         =         2.089014	     119.691657
	 B(6,5,11)        =         2.090653	     119.785607
	 B(7,13,17)       =         2.072698	     118.756851
	 B(7,13,18)       =         2.008558	     115.081880
	 B(7,14,15)       =         2.113781	     121.110747
	 B(7,14,16)       =         2.113581	     121.099291
	 B(13,7,14)       =         2.040923	     116.936255
	 B(15,14,16)      =         2.055782	     117.787633
	 B(17,13,18)      =         1.945054	     111.443383
	 D(1,2,3,4)       =        -0.000934	      -0.053500
	 D(1,2,3,9)       =        -3.126606	    -179.141307
	 D(1,6,5,4)       =         0.014701	       0.842283
	 D(1,6,5,11)      =        -3.119490	    -178.733583
	*D(1,7,13,17)     =        -2.094396	    -120.000032
	 D(1,7,13,18)     =         0.276295	      15.830523
	 D(1,7,14,15)     =        -3.011729	    -172.559376
	 D(1,7,14,16)     =         0.139767	       8.008078
	 D(2,1,6,5)       =        -0.020580	      -1.179142
	 D(2,1,6,12)      =        -3.107201	    -178.029528
	 D(2,1,7,13)      =        -2.622585	    -150.263030
	 D(2,1,7,14)      =         0.598015	      34.263732
	 D(2,3,4,5)       =        -0.005016	      -0.287392
	 D(2,3,4,10)      =         3.141065	     179.969747
	 D(3,2,1,6)       =         0.013686	       0.784134
	 D(3,2,1,7)       =        -3.111916	    -178.299668
	 D(3,4,5,6)       =        -0.001938	      -0.111058
	 D(3,4,5,11)      =         3.132221	     179.463053
	 D(4,3,2,8)       =         3.087124	     176.879172
	 D(4,5,6,12)      =         3.101839	     177.722294
	 D(5,4,3,9)       =         3.120609	     178.797740
	 D(5,6,1,7)       =         3.105138	     177.911281
	 D(6,1,2,8)       =        -3.074047	    -176.129915
	 D(6,1,7,13)      =         0.534967	      30.651334
	 D(6,1,7,14)      =        -2.527619	    -144.821904
	 D(6,5,4,10)      =         3.135167	     179.631815
	 D(7,1,2,8)       =         0.083536	       4.786283
	 D(7,1,6,12)      =         0.018516	       1.060895
	 D(8,2,3,9)       =        -0.038548	      -2.208635
	 D(9,3,4,10)      =        -0.016495	      -0.945121
	 D(10,4,5,11)     =        -0.013859	      -0.794074
	 D(11,5,6,12)     =        -0.032351	      -1.853573
	 D(13,7,14,15)    =         0.204595	      11.722414
	 D(13,7,14,16)    =        -2.927094	    -167.710132
	 D(14,7,13,17)    =         0.970776	      55.621378
	 D(14,7,13,18)    =        -2.941719	    -168.548067

	Current energy   :      -381.4605504901

	Energy change for the previous step:
		Projected    :        -0.0000009468
		Actual       :        -0.0000000831
	Energy ratio indicates iffy step: Trust radius decreased to 6.250e-02.


	Performing BFGS update.
	Previous computed or guess Hessian on step 1.
	Steps to be used in Hessian update: 7 6
	Taking RFO optimization step.
	Going to follow RFO solution 1.
	Rejecting RFO root 1 because normalization gives large value.
	Rejecting RFO root 2 because normalization gives large value.
	Using RFO vector 3.
	Norm of target step-size    0.00256
	Projected energy change by RFO approximation:        -0.0000000576

	Back-transformation to cartesian coordinates...
	Could not converge backtransformation.
	Using first guess instead.

	Back-transformation to cartesian coordinates to adjust frozen coordinates...
	Successfully converged to displaced geometry.

	--- Internal Coordinate Step in ANG or DEG, aJ/ANG or AJ/DEG ---
	 ---------------------------------------------------------------------------
	   Coordinate                Previous        Force       Change         New 
	   ----------                --------       ------       ------       ------
	    1 R(1,2)          =      1.411142    -0.000001    -0.000009     1.411133
	    2 R(1,6)          =      1.409971     0.000136     0.000015     1.409986
	    3 R(1,7)          =      1.457688     0.000010     0.000030     1.457718
	    4 R(2,3)          =      1.389212    -0.000049    -0.000002     1.389210
	    5 R(2,8)          =      1.086603    -0.000010     0.000002     1.086605
	    6 R(3,4)          =      1.399771     0.000045     0.000008     1.399780
	    7 R(3,9)          =      1.085079    -0.000008    -0.000000     1.085079
	    8 R(4,5)          =      1.398834    -0.000050    -0.000006     1.398828
	    9 R(4,10)         =      1.085742     0.000008     0.000002     1.085743
	   10 R(5,6)          =      1.390203    -0.000047    -0.000001     1.390202
	   11 R(5,11)         =      1.085076     0.000004     0.000002     1.085078
	   12 R(6,12)         =      1.085882    -0.000079    -0.000013     1.085869
	   13 R(7,13)         =      1.355183     0.000425     0.000044     1.355227
	   14 R(7,14)         =      1.326835     0.000081    -0.000014     1.326821
	   15 R(13,17)        =      1.016177    -0.000135    -0.000022     1.016155
	   16 R(13,18)        =      1.014458     0.001229     0.000128     1.014585
	   17 R(14,15)        =      1.014405     0.000044     0.000011     1.014416
	   18 R(14,16)        =      1.012347     0.000055     0.000016     1.012363
	   19 B(1,2,3)        =    119.867345    -0.000000    -0.001094   119.866251
	   20 B(1,2,8)        =    120.330185     0.000000     0.000948   120.331133
	   21 B(1,6,5)        =    119.758186    -0.000000    -0.001708   119.756478
	   22 B(1,6,12)       =    120.550541    -0.000001    -0.003273   120.547268
	   23 B(1,7,13)       =    122.503554     0.000002     0.007147   122.510700
	   24 B(1,7,14)       =    120.414287    -0.000001    -0.010278   120.404010
	   25 B(2,1,6)        =    119.892162    -0.000000     0.002348   119.894511
	   26 B(2,1,7)        =    120.409876     0.000001     0.002004   120.411880
	   27 B(2,3,4)        =    119.907658    -0.000000    -0.000685   119.906972
	   28 B(2,3,9)        =    119.897983     0.000000     0.000638   119.898622
	   29 B(3,2,8)        =    119.730830    -0.000000    -0.000329   119.730501
	   30 B(3,4,5)        =    120.548029     0.000000     0.001549   120.549578
	   31 B(3,4,10)       =    119.728136    -0.000000    -0.000213   119.727923
	   32 B(4,3,9)        =    120.188046    -0.000000     0.000038   120.188084
	   33 B(4,5,6)        =    120.017476    -0.000000    -0.000357   120.017120
	   34 B(4,5,11)       =    120.195552    -0.000000    -0.000568   120.194984
	   35 B(5,4,10)       =    119.723338    -0.000000    -0.001342   119.721996
	   36 B(5,6,12)       =    119.616818     0.000001     0.005468   119.622286
	   37 B(6,1,7)        =    119.691657    -0.000001    -0.004387   119.687270
	   38 B(6,5,11)       =    119.785607     0.000000     0.000922   119.786529
	   39 B(7,13,17)      =    118.756851    -0.000004     0.004336   118.761187
	   40 B(7,13,18)      =    115.081880    -0.000005    -0.032841   115.049039
	   41 B(7,14,15)      =    121.110747    -0.000001    -0.004000   121.106746
	   42 B(7,14,16)      =    121.099291     0.000001     0.003460   121.102751
	   43 B(13,7,14)      =    116.936255    -0.000002     0.003626   116.939881
	   44 B(15,14,16)     =    117.787633    -0.000000     0.000393   117.788027
	   45 B(17,13,18)     =    111.443383     0.000007     0.021541   111.464924
	   46 D(1,2,3,4)      =     -0.053500     0.000000     0.007816    -0.045684
	   47 D(1,2,3,9)      =   -179.141307     0.000000     0.008447  -179.132860
	   48 D(1,6,5,4)      =      0.842283    -0.000000    -0.002174     0.840109
	   49 D(1,6,5,11)     =   -178.733583    -0.000000    -0.001859  -178.735442
	   50 *D(1,7,13,17)   =   -120.000032     0.000000     0.000000  -120.000032
	   51 D(1,7,13,18)    =     15.830523     0.000000    -0.000085    15.830439
	   52 D(1,7,14,15)    =   -172.559376    -0.000001     0.002877  -172.556499
	   53 D(1,7,14,16)    =      8.008078    -0.000000     0.020497     8.028575
	   54 D(2,1,6,5)      =     -1.179142     0.000000     0.004326    -1.174816
	   55 D(2,1,6,12)     =   -178.029528    -0.000000    -0.006168  -178.035696
	   56 D(2,1,7,13)     =   -150.263030    -0.000001     0.069709  -150.193321
	   57 D(2,1,7,14)     =     34.263732     0.000001     0.061894    34.325627
	   58 D(2,3,4,5)      =     -0.287392    -0.000000    -0.005666    -0.293059
	   59 D(2,3,4,10)     =    179.969747    -0.000000    -0.004064   179.965682
	   60 D(3,2,1,6)      =      0.784134    -0.000000    -0.007170     0.776964
	   61 D(3,2,1,7)      =   -178.299668     0.000000    -0.004642  -178.304310
	   62 D(3,4,5,6)      =     -0.111058     0.000000     0.002804    -0.108254
	   63 D(3,4,5,11)     =    179.463053     0.000000     0.002495   179.465548
	   64 D(4,3,2,8)      =    176.879172    -0.000000    -0.002286   176.876886
	   65 D(4,5,6,12)     =    177.722294     0.000000     0.007947   177.730241
	   66 D(5,4,3,9)      =    178.797740    -0.000000    -0.006293   178.791447
	   67 D(5,6,1,7)      =    177.911281    -0.000000     0.001875   177.913156
	   68 D(6,1,2,8)      =   -176.129915     0.000000     0.003033  -176.126882
	   69 D(6,1,7,13)     =     30.651334    -0.000001     0.072170    30.723504
	   70 D(6,1,7,14)     =   -144.821904     0.000001     0.064355  -144.757548
	   71 D(6,5,4,10)     =    179.631815     0.000000     0.001205   179.633020
	   72 D(7,1,2,8)      =      4.786283     0.000000     0.005561     4.791844
	   73 D(7,1,6,12)     =      1.060895    -0.000000    -0.008619     1.052276
	   74 D(8,2,3,9)      =     -2.208635    -0.000000    -0.001655    -2.210291
	   75 D(9,3,4,10)     =     -0.945121    -0.000000    -0.004691    -0.949812
	   76 D(10,4,5,11)    =     -0.794074    -0.000000     0.000896    -0.793178
	   77 D(11,5,6,12)    =     -1.853573     0.000000     0.008262    -1.845311
	   78 D(13,7,14,15)   =     11.722414     0.000000    -0.004716    11.717698
	   79 D(13,7,14,16)   =   -167.710132     0.000001     0.012905  -167.697227
	   80 D(14,7,13,17)   =     55.621378    -0.000001     0.006956    55.628334
	   81 D(14,7,13,18)   =   -168.548067    -0.000001     0.006871  -168.541196
	 ---------------------------------------------------------------------------
	Successfully symmetrized geometry.

  ==> Convergence Check <==

  Measures of convergence in internal coordinates in au.
  Criteria marked as inactive (o), active & met (*), and active & unmet ( ).
  ---------------------------------------------------------------------------------------------
   Step     Total Energy     Delta E     MAX Force     RMS Force      MAX Disp      RMS Disp   
  ---------------------------------------------------------------------------------------------
    Convergence Criteria    1.00e-06 *    3.00e-04 *             o    1.20e-03 *             o
  ---------------------------------------------------------------------------------------------
      8    -381.46055049   -8.31e-08 *    1.49e-04 *    2.75e-05 o    1.26e-03      2.84e-04 o  ~
  ---------------------------------------------------------------------------------------------


  **** Optimization is complete! (in 8 steps) ****

  ==> Optimization Summary <==

  Measures of convergence in internal coordinates in au.
  --------------------------------------------------------------------------------------------------------------- ~
   Step         Total Energy             Delta E       MAX Force       RMS Force        MAX Disp        RMS Disp  ~
  --------------------------------------------------------------------------------------------------------------- ~
      1    -381.447140337561   -381.447140337561      0.02997721      0.00454611      0.32727907      0.05392246  ~
      2    -381.454894936663     -0.007754599102      0.02540662      0.00342981      0.33854179      0.05593139  ~
      3    -381.457437781983     -0.002542845320      0.04191263      0.00485276      0.10708063      0.02003482  ~
      4    -381.460316188233     -0.002878406250      0.01007656      0.00127291      0.04064200      0.01103060  ~
      5    -381.460532860176     -0.000216671943      0.00277625      0.00035252      0.01037663      0.00266433  ~
      6    -381.460549180573     -0.000016320397      0.00042733      0.00008697      0.00773082      0.00176050  ~
      7    -381.460550406984     -0.000001226411      0.00017702      0.00003902      0.00201436      0.00048231  ~
      8    -381.460550490077     -0.000000083093      0.00014917      0.00002753      0.00125960      0.00028429  ~
  --------------------------------------------------------------------------------------------------------------- ~

	Writing optimization data to binary file.
	Final energy is   -381.4605504900772
	Final (previous) structure:
	Cartesian Geometry (in Angstrom)
	    C     0.0384317946  -0.1889451287   0.0178110775
	    C     1.1484714741   0.6738177970   0.1393638512
	    C     1.0146854970   2.0212468731  -0.1711949629
	    C    -0.2199928928   2.5183406535  -0.6045846031
	    C    -1.3229359727   1.6677965143  -0.7343017900
	    C    -1.1979535865   0.3161536438  -0.4341241908
	    C     0.1557376097  -1.5971378613   0.3757019660
	    H     2.1199868248   0.2808813322   0.4265298303
	    H     1.8713873877   2.6823625556  -0.0912912518
	    H    -0.3214067968   3.5720215403  -0.8460518891
	    H    -2.2796148370   2.0608637149  -1.0624083265
	    H    -2.0672467770  -0.3311087827  -0.5013605211
	    N    -0.5843354659  -2.5638616458  -0.2194943326
	    N     0.9427215460  -1.9727398730   1.3757367102
	    H     1.1200040366  -2.9537888590   1.5631708145
	    H     1.3794208955  -1.2899394420   1.9823034500
	    H    -1.2021770421  -3.1300505084   0.3552388548
	    H    -1.0329589244  -2.2892055414  -1.0869190736
	Saving final (previous) structure.
			--------------------------
			 OPTKING Finished Execution 
			--------------------------

    Final optimized geometry and variables:
    Molecular point group: c1
    Full point group: C1

    Geometry (in Angstrom), charge = 1, multiplicity = 1:

    C            0.038431794598    -0.188945128655     0.017811077489
    C            1.148471474086     0.673817796959     0.139363851154
    C            1.014685497033     2.021246873149    -0.171194962870
    C           -0.219992892772     2.518340653532    -0.604584603052
    C           -1.322935972744     1.667796514281    -0.734301790031
    C           -1.197953586478     0.316153643833    -0.434124190769
    C            0.155737609655    -1.597137861257     0.375701965988
    H            2.119986824805     0.280881332194     0.426529830291
    H            1.871387387696     2.682362555581    -0.091291251796
    H           -0.321406796761     3.572021540328    -0.846051889083
    H           -2.279614836995     2.060863714884    -1.062408326535
    H           -2.067246777027    -0.331108782696    -0.501360521092
    N           -0.584335465929    -2.563861645820    -0.219494332617
    N            0.942721545989    -1.972739873012     1.375736710216
    H            1.120004036616    -2.953788859050     1.563170814486
    H            1.379420895451    -1.289939442002     1.982303449956
    H           -1.202177042099    -3.130050508431     0.355238854802
    H           -1.032958924386    -2.289205541439    -1.086919073625

	Cleaning optimization helper files.


Properties will be evaluated at   0.000000,   0.000000,   0.000000 Bohr

Properties computed using the  density matrix

  Nuclear Dipole Moment: (a.u.)
     X:    -0.3878      Y:    -1.2974      Z:     0.6896

  Electronic Dipole Moment: (a.u.)
     X:     0.3312      Y:    -0.3677      Z:     0.1102

  Dipole Moment: (a.u.)
     X:    -0.0566      Y:    -1.6650      Z:     0.7998     Total:     1.8481

  Dipole Moment: (Debye)
     X:    -0.1440      Y:    -4.2321      Z:     2.0330     Total:     4.6973

  Quadrupole Moment: (Debye Ang)
    XX:   -38.4553     YY:   -20.5066     ZZ:   -44.7374
    XY:     1.9739     XZ:     7.9378     YZ:    -9.4144

  Traceless Quadrupole Moment: (Debye Ang)
    XX:    -3.8888     YY:    14.0598     ZZ:   -10.1710
    XY:     1.9739     XZ:     7.9378     YZ:    -9.4144

  Mulliken Charges: (a.u.)
   Center  Symbol    Alpha    Beta     Spin     Total
       1     C     2.94649  2.94649  0.00000  0.10701
       2     C     3.08216  3.08216  0.00000 -0.16432
       3     C     3.06207  3.06207  0.00000 -0.12415
       4     C     3.05009  3.05009  0.00000 -0.10018
       5     C     3.06215  3.06215  0.00000 -0.12430
       6     C     3.07944  3.07944  0.00000 -0.15888
       7     C     2.75213  2.75213  0.00000  0.49574
       8     H     0.41253  0.41253  0.00000  0.17494
       9     H     0.40373  0.40373  0.00000  0.19253
      10     H     0.40180  0.40180  0.00000  0.19639
      11     H     0.40393  0.40393  0.00000  0.19213
      12     H     0.41737  0.41737  0.00000  0.16525
      13     N     3.86398  3.86398  0.00000 -0.72796
      14     N     3.84812  3.84812  0.00000 -0.69623
      15     H     0.30069  0.30069  0.00000  0.39862
      16     H     0.30066  0.30066  0.00000  0.39869
      17     H     0.30446  0.30446  0.00000  0.39108
      18     H     0.30818  0.30818  0.00000  0.38363

   Total alpha = 32.00000, Total beta = 32.00000, Total charge =  1.00000


*** Psi4 exiting successfully. Buy a developer a beer!
