    -----------------------------------------------------------------------
          Psi4: An Open-Source Ab Initio Electronic Structure Package
                              Psi4 (no tag) Driver

                          Git: Rev {detached?}  

    J. M. Turney, A. C. Simmonett, R. M. Parrish, E. G. Hohenstein,
    F. A. Evangelista, J. T. Fermann, B. J. Mintz, L. A. Burns, J. J. Wilke,
    M. L. Abrams, N. J. Russ, M. L. Leininger, C. L. Janssen, E. T. Seidl,
    W. D. Allen, H. F. Schaefer, R. A. King, E. F. Valeev, C. D. Sherrill,
    and T. D. Crawford, WIREs Comput. Mol. Sci. 2, 556-565 (2012)
    (doi: 10.1002/wcms.93)

                         Additional Contributions by
    A. E. DePrince, M. Saitow, U. Bozkaya, A. Yu. Sokolov
    -----------------------------------------------------------------------


    Psi4 started on: Tue Jul  5 16:37:57 2016

    Process ID:  30255
    PSI4DATADIR: /export131/home/mjharvey/miniconda3/share
    Memory level set to 256.000 MB

  ==> Input File <==

--------------------------------------------------------------------------
set {
	reference rhf
	basis 6-31G*
}


set_num_threads( 1 )
memory 2 gb

molecule MOL {
0 1

O	 0.750580	 1.306280	 -0.054982
C	 0.576249	 0.131685	 -0.000108
C	 -0.766779	 -0.556801	 -0.000461
O	 1.567518	 -0.747576	 0.070236
C	 -1.945214	 0.412366	 0.000161
H	 -0.796911	 -1.211249	 -0.867467
H	 -0.796854	 -1.212390	 0.865687
C	 -3.287791	 -0.317055	 0.000105
H	 -1.876087	 1.060580	 -0.866812
H	 -1.875822	 1.059691	 0.867761
H	 -3.394745	 -0.949193	 -0.877058
H	 -4.111778	 0.388953	 0.000015
H	 -3.394954	 -0.949187	 0.877259
C	 2.885789	 -0.230567	 0.078601
H	 3.081235	 0.326377	 -0.826471
H	 3.538370	 -1.087538	 0.138651
H	 3.035506	 0.414796	 0.932183

	symmetry c1
}
set optking {
	frozen_dihedral = ("
		9 5 3 6,
		14 4 2 1
	")
}

ee = energy('scf')
oeprop('DIPOLE', 'QUADRUPOLE', 'MULLIKEN_CHARGES')
f=open( 'psi4out.xyz', 'w' )
f.write( "17  " )
f.write( str(ee) + "\n" )
f.write( MOL.save_string_xyz() )
f.close()
--------------------------------------------------------------------------

  Memory set to   2.000 GiB by Python script.

*** tstart() called on cx1-3-2-3.cx1.hpc.ic.ac.uk
*** at Tue Jul  5 16:37:57 2016


         ---------------------------------------------------------
                                   SCF
            by Justin Turney, Rob Parrish, and Andy Simmonett
                              RHF Reference
                        1 Threads,   2000 MiB Core
         ---------------------------------------------------------

  ==> Geometry <==

    Molecular point group: c1
    Full point group: C1

    Geometry (in Angstrom), charge = 0, multiplicity = 1:

       Center              X                  Y                   Z               Mass       
    ------------   -----------------  -----------------  -----------------  -----------------
           O          0.750764145080     1.305928241825    -0.068984592874    15.994914619560
           C          0.576433145080     0.131333241825    -0.014110592874    12.000000000000
           C         -0.766594854920    -0.557152758175    -0.014463592874    12.000000000000
           O          1.567702145080    -0.747927758175     0.056233407126    15.994914619560
           C         -1.945029854920     0.412014241825    -0.013841592874    12.000000000000
           H         -0.796726854920    -1.211600758175    -0.881469592874     1.007825032070
           H         -0.796669854920    -1.212741758175     0.851684407126     1.007825032070
           C         -3.287606854920    -0.317406758175    -0.013897592874    12.000000000000
           H         -1.875902854920     1.060228241825    -0.880814592874     1.007825032070
           H         -1.875637854920     1.059339241825     0.853758407126     1.007825032070
           H         -3.394560854920    -0.949544758175    -0.891060592874     1.007825032070
           H         -4.111593854920     0.388601241825    -0.013987592874     1.007825032070
           H         -3.394769854920    -0.949538758175     0.863256407126     1.007825032070
           C          2.885973145080    -0.230918758175     0.064598407126    12.000000000000
           H          3.081419145080     0.326025241825    -0.840473592874     1.007825032070
           H          3.538554145080    -1.087889758175     0.124648407126     1.007825032070
           H          3.035690145080     0.414444241825     0.918180407126     1.007825032070

  Running in c1 symmetry.

  Rotational constants: A =      0.28571  B =      0.04006  C =      0.03607 [cm^-1]
  Rotational constants: A =   8565.23919  B =   1201.09837  C =   1081.27232 [MHz]
  Nuclear repulsion =  312.477539071061699

  Charge       = 0
  Multiplicity = 1
  Electrons    = 56
  Nalpha       = 28
  Nbeta        = 28

  ==> Algorithm <==

  SCF Algorithm Type is DF.
  DIIS enabled.
  MOM disabled.
  Fractional occupation disabled.
  Guess Type is CORE.
  Energy threshold   = 1.00e-06
  Density threshold  = 1.00e-06
  Integral threshold = 0.00e+00

  ==> Primary Basis <==

  Basis Set: 6-31G*
    Number of shells: 62
    Number of basis function: 125
    Number of Cartesian functions: 125
    Spherical Harmonics?: false
    Max angular momentum: 2

  ==> Pre-Iterations <==

   -------------------------------------------------------
    Irrep   Nso     Nmo     Nalpha   Nbeta   Ndocc  Nsocc
   -------------------------------------------------------
     A        125     125       0       0       0       0
   -------------------------------------------------------
    Total     125     125      28      28      28       0
   -------------------------------------------------------

 OEINTS: Overlap, kinetic, potential, dipole, and quadrupole integrals
         stored in file 35.

  ==> Integral Setup <==

  ==> DFJK: Density-Fitted J/K Matrices <==

    J tasked:                  Yes
    K tasked:                  Yes
    wK tasked:                  No
    OpenMP threads:              1
    Integrals threads:           1
    Memory (MB):              1430
    Algorithm:                Core
    Integral Cache:           NONE
    Schwarz Cutoff:          1E-12
    Fitting Condition:       1E-12

   => Auxiliary Basis Set <=

  Basis Set: 
    Number of shells: 258
    Number of basis function: 817
    Number of Cartesian functions: 817
    Spherical Harmonics?: false
    Max angular momentum: 3

  Minimum eigenvalue in the overlap matrix is 2.8065327072E-03.
  Using Symmetric Orthogonalization.
  SCF Guess: Core (One-Electron) Hamiltonian.

  ==> Iterations <==

                           Total Energy        Delta E     RMS |[F,P]|

   @DF-RHF iter   1:  -231.19347557164014   -2.31193e+02   7.81781e-02 
   @DF-RHF iter   2:  -131.00069834860204    1.00193e+02   8.98769e-02 DIIS
   @DF-RHF iter   3:  -219.06733863902576   -8.80666e+01   7.74277e-02 DIIS
   @DF-RHF iter   4:  -287.68668030408611   -6.86193e+01   6.44311e-02 DIIS
   @DF-RHF iter   5:  -339.82034530764696   -5.21337e+01   2.11516e-02 DIIS
   @DF-RHF iter   6:  -344.10356492547834   -4.28322e+00   1.07728e-02 DIIS
   @DF-RHF iter   7:  -344.81623008826472   -7.12665e-01   3.11944e-03 DIIS
   @DF-RHF iter   8:  -344.88480968791538   -6.85796e-02   1.55220e-03 DIIS
   @DF-RHF iter   9:  -344.90434063450988   -1.95309e-02   4.33772e-04 DIIS
   @DF-RHF iter  10:  -344.90647004280828   -2.12941e-03   1.44542e-04 DIIS
   @DF-RHF iter  11:  -344.90677985530755   -3.09812e-04   6.56635e-05 DIIS
   @DF-RHF iter  12:  -344.90684332553195   -6.34702e-05   1.69858e-05 DIIS
   @DF-RHF iter  13:  -344.90684908139320   -5.75586e-06   7.62686e-06 DIIS
   @DF-RHF iter  14:  -344.90685011357306   -1.03218e-06   2.03777e-06 DIIS
   @DF-RHF iter  15:  -344.90685018706341   -7.34904e-08   5.18630e-07 DIIS

  ==> Post-Iterations <==

    Orbital Energies (a.u.)
    -----------------------

    Doubly Occupied:                                                      

       1A    -20.604066     2A    -20.545875     3A    -11.372709  
       4A    -11.281138     5A    -11.236065     6A    -11.222012  
       7A    -11.214613     8A     -1.469775     9A     -1.363237  
      10A     -1.080649    11A     -1.001519    12A     -0.939817  
      13A     -0.827297    14A     -0.767410    15A     -0.700400  
      16A     -0.683613    17A     -0.672336    18A     -0.637040  
      19A     -0.595213    20A     -0.574859    21A     -0.568918  
      22A     -0.527446    23A     -0.521919    24A     -0.498769  
      25A     -0.487117    26A     -0.478861    27A     -0.456378  
      28A     -0.438249  

    Virtual:                                                              

      29A      0.199185    30A      0.228905    31A      0.261345  
      32A      0.284117    33A      0.292998    34A      0.304316  
      35A      0.310411    36A      0.316746    37A      0.326662  
      38A      0.334365    39A      0.342654    40A      0.369335  
      41A      0.401582    42A      0.423570    43A      0.474826  
      44A      0.522559    45A      0.564600    46A      0.725492  
      47A      0.728611    48A      0.741970    49A      0.742090  
      50A      0.770988    51A      0.775028    52A      0.793734  
      53A      0.842341    54A      0.876003    55A      0.898899  
      56A      0.946272    57A      0.967561    58A      1.002333  
      59A      1.059798    60A      1.068356    61A      1.094749  
      62A      1.118896    63A      1.124481    64A      1.137823  
      65A      1.139236    66A      1.163976    67A      1.172957  
      68A      1.202767    69A      1.207835    70A      1.224382  
      71A      1.228879    72A      1.231985    73A      1.261496  
      74A      1.300690    75A      1.315340    76A      1.379425  
      77A      1.406931    78A      1.546177    79A      1.620088  
      80A      1.625141    81A      1.664374    82A      1.728277  
      83A      1.755809    84A      1.801239    85A      1.872615  
      86A      1.882629    87A      1.976145    88A      2.034259  
      89A      2.039316    90A      2.134390    91A      2.143823  
      92A      2.168958    93A      2.209866    94A      2.253843  
      95A      2.277459    96A      2.302561    97A      2.352577  
      98A      2.363633    99A      2.395398   100A      2.429739  
     101A      2.445435   102A      2.498848   103A      2.550874  
     104A      2.655463   105A      2.663567   106A      2.679238  
     107A      2.683030   108A      2.733869   109A      2.816000  
     110A      2.836402   111A      2.903835   112A      2.959239  
     113A      3.063203   114A      3.072137   115A      3.159221  
     116A      3.348826   117A      3.449996   118A      3.577572  
     119A      4.413496   120A      4.554122   121A      4.613865  
     122A      4.683020   123A      4.747287   124A      4.842645  
     125A      4.994291  

    Final Occupation by Irrep:
              A 
    DOCC [    28 ]

  Energy converged.

  @DF-RHF Final Energy:  -344.90685018706341

   => Energetics <=

    Nuclear Repulsion Energy =            312.4775390710616989
    One-Electron Energy =               -1089.2339929228257915
    Two-Electron Energy =                 431.8496036647005667
    DFT Exchange-Correlation Energy =       0.0000000000000000
    Empirical Dispersion Energy =           0.0000000000000000
    PCM Polarization Energy =               0.0000000000000000
    EFP Energy =                            0.0000000000000000
    Total Energy =                       -344.9068501870634691

    Alert: EFP and PCM quantities not currently incorporated into SCF psivars.

Properties will be evaluated at   0.000000,   0.000000,   0.000000 Bohr
  ==> Properties <==


Properties computed using the SCF density matrix

  Nuclear Dipole Moment: (a.u.)
     X:    -6.1670      Y:    -2.0248      Z:     0.0972

  Electronic Dipole Moment: (a.u.)
     X:     6.2723      Y:     1.3360      Z:    -0.0600

  Dipole Moment: (a.u.)
     X:     0.1053      Y:    -0.6888      Z:     0.0371     Total:     0.6978

  Dipole Moment: (Debye)
     X:     0.2676      Y:    -1.7508      Z:     0.0944     Total:     1.7736


  Saving occupied orbitals to File 180.

*** tstop() called on cx1-3-2-3.cx1.hpc.ic.ac.uk at Tue Jul  5 16:38:07 2016
Module time:
	user time   =       9.59 seconds =       0.16 minutes
	system time =       0.05 seconds =       0.00 minutes
	total time  =         10 seconds =       0.17 minutes
Total time:
	user time   =       9.59 seconds =       0.16 minutes
	system time =       0.05 seconds =       0.00 minutes
	total time  =         10 seconds =       0.17 minutes


Properties will be evaluated at   0.000000,   0.000000,   0.000000 Bohr

Properties computed using the  density matrix

  Nuclear Dipole Moment: (a.u.)
     X:    -6.1670      Y:    -2.0248      Z:     0.0972

  Electronic Dipole Moment: (a.u.)
     X:     6.2723      Y:     1.3360      Z:    -0.0600

  Dipole Moment: (a.u.)
     X:     0.1053      Y:    -0.6888      Z:     0.0371     Total:     0.6978

  Dipole Moment: (Debye)
     X:     0.2676      Y:    -1.7508      Z:     0.0944     Total:     1.7736

  Quadrupole Moment: (Debye Ang)
    XX:   -36.5844     YY:   -48.6001     ZZ:   -42.0118
    XY:    -1.0624     XZ:     0.1972     YZ:     0.3448

  Traceless Quadrupole Moment: (Debye Ang)
    XX:     5.8144     YY:    -6.2013     ZZ:     0.3870
    XY:    -1.0624     XZ:     0.1972     YZ:     0.3448

  Mulliken Charges: (a.u.)
   Center  Symbol    Alpha    Beta     Spin     Total
       1     O     4.28583  4.28583  0.00000 -0.57167
       2     C     2.60608  2.60608  0.00000  0.78784
       3     C     3.20606  3.20606  0.00000 -0.41211
       4     O     4.30697  4.30697  0.00000 -0.61394
       5     C     3.15197  3.15197  0.00000 -0.30393
       6     H     0.40075  0.40075  0.00000  0.19849
       7     H     0.40112  0.40112  0.00000  0.19775
       8     C     3.24277  3.24277  0.00000 -0.48555
       9     H     0.41023  0.41023  0.00000  0.17955
      10     H     0.41154  0.41154  0.00000  0.17691
      11     H     0.42132  0.42132  0.00000  0.15736
      12     H     0.41511  0.41511  0.00000  0.16977
      13     H     0.42136  0.42136  0.00000  0.15729
      14     C     3.09249  3.09249  0.00000 -0.18499
      15     H     0.40902  0.40902  0.00000  0.18195
      16     H     0.40837  0.40837  0.00000  0.18326
      17     H     0.40899  0.40899  0.00000  0.18201

   Total alpha = 28.00000, Total beta = 28.00000, Total charge = -0.00000


*** PSI4 exiting successfully. Buy a developer a beer!
