
    -----------------------------------------------------------------------
          Psi4: An Open-Source Ab Initio Electronic Structure Package
                               Psi4 1.1 release

                         Git: Rev {HEAD} add49b9 


    R. M. Parrish, L. A. Burns, D. G. A. Smith, A. C. Simmonett,
    A. E. DePrince III, E. G. Hohenstein, U. Bozkaya, A. Yu. Sokolov,
    R. Di Remigio, R. M. Richard, J. F. Gonthier, A. M. James,
    H. R. McAlexander, A. Kumar, M. Saitow, X. Wang, B. P. Pritchard,
    P. Verma, H. F. Schaefer III, K. Patkowski, R. A. King, E. F. Valeev,
    F. A. Evangelista, J. M. Turney, T. D. Crawford, and C. D. Sherrill,
    J. Chem. Theory Comput. in press (2017).
    (doi: 10.1021/acs.jctc.7b00174)

    -----------------------------------------------------------------------


    Psi4 started on: Tuesday, 12 December 2017 02:42PM

    Process ID:  27579
    PSIDATADIR: /opt/acellera/miniconda3/share/psi4
    Memory:     500.0 MiB
    Threads:    1
    
  ==> Input File <==

--------------------------------------------------------------------------
set_num_threads(1)
set_memory(3145728000)

set { reference rks }
set { basis 6-31G* }

molecule MOL {
    1 1
    noreorient
    nocom
    symmetry c1
    C    0.000000   0.000000  -0.177864
    C    0.036678   1.219374   0.524165
    C    0.031764   1.213119   1.915444
    C   -0.000000  -0.000000   2.610107
    C   -0.031764  -1.213119   1.915444
    C   -0.036677  -1.219374   0.524165
    C    0.000000  -0.000000  -1.644734
    H    0.018170   2.164705  -0.010853
    H    0.042402   2.152895   2.457886
    H   -0.000000  -0.000000   3.695756
    H   -0.042402  -2.152895   2.457886
    H   -0.018170  -2.164705  -0.010853
    N   -0.234187  -1.128577  -2.308460
    N    0.234187   1.128577  -2.308461
    H    0.154336   1.201112  -3.315997
    H    0.570662   1.943991  -1.813317
    H   -0.570662  -1.943991  -1.813316
    H   -0.154337  -1.201113  -3.315997
}

set optking { frozen_dihedral = (" 2 1 7 13 ") }

set optking { dynamic_level = 1 
 geom_maxiter = 250
 print_trajectory_xyz_file = True }

energy, wfn = optimize('B3LYP-D3', return_wfn=True)

import os
os.chdir(os.environ['HTMD_PSI4_WORKDIR'])

oeprop(wfn, 'DIPOLE', 'QUADRUPOLE', 'MULLIKEN_CHARGES')

with open('psi4out.xyz', 'w') as f:
    f.write('18 ' )
    f.write('%.12f\n' % energy)
    f.write(MOL.save_string_xyz())
--------------------------------------------------------------------------
  Threads set to 1 by Python driver.

  Memory set to   2.930 GiB by Python driver.
gradient() will perform analytic gradient computation.

*** tstart() called on computer05
*** at Tue Dec 12 14:42:25 2017

   => Loading Basis Set <=

    Name: 6-31G*
    Role: ORBITAL
    Keyword: BASIS
    atoms 1-7         entry C          line   102 file /opt/acellera/miniconda3/share/psi4/basis/6-31gs.gbs 
    atoms 8-12, 15-18 entry H          line    35 file /opt/acellera/miniconda3/share/psi4/basis/6-31gs.gbs 
    atoms 13-14       entry N          line   119 file /opt/acellera/miniconda3/share/psi4/basis/6-31gs.gbs 


         ---------------------------------------------------------
                                   SCF
            by Justin Turney, Rob Parrish, and Andy Simmonett
                              RKS Reference
                        1 Threads,   3000 MiB Core
         ---------------------------------------------------------

  ==> Geometry <==

    Molecular point group: c1
    Full point group: C1

    Geometry (in Angstrom), charge = 1, multiplicity = 1:

       Center              X                  Y                   Z               Mass       
    ------------   -----------------  -----------------  -----------------  -----------------
           C          0.000000000000     0.000000000000    -0.177864000000    12.000000000000
           C          0.036678000000     1.219374000000     0.524165000000    12.000000000000
           C          0.031764000000     1.213119000000     1.915444000000    12.000000000000
           C          0.000000000000     0.000000000000     2.610107000000    12.000000000000
           C         -0.031764000000    -1.213119000000     1.915444000000    12.000000000000
           C         -0.036677000000    -1.219374000000     0.524165000000    12.000000000000
           C          0.000000000000     0.000000000000    -1.644734000000    12.000000000000
           H          0.018170000000     2.164705000000    -0.010853000000     1.007825032070
           H          0.042402000000     2.152895000000     2.457886000000     1.007825032070
           H          0.000000000000     0.000000000000     3.695756000000     1.007825032070
           H         -0.042402000000    -2.152895000000     2.457886000000     1.007825032070
           H         -0.018170000000    -2.164705000000    -0.010853000000     1.007825032070
           N         -0.234187000000    -1.128577000000    -2.308460000000    14.003074004780
           N          0.234187000000     1.128577000000    -2.308461000000    14.003074004780
           H          0.154336000000     1.201112000000    -3.315997000000     1.007825032070
           H          0.570662000000     1.943991000000    -1.813317000000     1.007825032070
           H         -0.570662000000    -1.943991000000    -1.813316000000     1.007825032070
           H         -0.154337000000    -1.201113000000    -3.315997000000     1.007825032070

  Running in c1 symmetry.

  Rotational constants: A =      0.12190  B =      0.04068  C =      0.03063 [cm^-1]
  Rotational constants: A =   3654.48992  B =   1219.53245  C =    918.32618 [MHz]
  Nuclear repulsion =  417.634027843062313

  Charge       = 1
  Multiplicity = 1
  Electrons    = 64
  Nalpha       = 32
  Nbeta        = 32

  ==> Algorithm <==

  SCF Algorithm Type is DF.
  DIIS enabled.
  MOM disabled.
  Fractional occupation disabled.
  Guess Type is SAD.
  Energy threshold   = 1.00e-08
  Density threshold  = 1.00e-08
  Integral threshold = 0.00e+00

  ==> Primary Basis <==

  Basis Set: 6-31G*
    Blend: 6-31G*
    Number of shells: 72
    Number of basis function: 153
    Number of Cartesian functions: 153
    Spherical Harmonics?: false
    Max angular momentum: 2

  ==> DFT Potential <==

   => B3LYP Composite Functional <= 

    B3LYP Hybrid-GGA Exchange-Correlation Functional (VWN1-RPA)

    P.J. Stephens et. al., J. Phys. Chem., 98, 11623-11627, 1994

    Points   =           5000
    Deriv    =              1
    GGA      =           TRUE
    Meta     =          FALSE

    X_LRC        =          FALSE
    X_Hybrid     =           TRUE
    X_Alpha      =   2.000000E-01
    X_Omega      =   0.000000E+00
    C_LRC        =          FALSE
    C_Hybrid     =          FALSE
    C_Alpha      =   0.000000E+00
    C_Omega      =   0.000000E+00

   => Exchange Functionals <=

    0.8000    B3_X
    0.2000      HF 

   => Correlation Functionals <=

    0.1900 VWN3RPA_C
    0.8100   LYP_C

   => Molecular Quadrature <=

    Radial Scheme    =       TREUTLER
    Pruning Scheme   =           FLAT
    Nuclear Scheme   =       TREUTLER

    BS radius alpha  =              1
    Pruning alpha    =              1
    Radial Points    =             75
    Spherical Points =            302
    Total Points     =         396618
    Total Blocks     =            368
    Max Points       =           4981
    Max Functions    =            151

   => -D3ZERO: Empirical Dispersion <=

    Grimme's -D3 (zero-damping) Dispersion Correction
    Grimme S.; Antony J.; Ehrlich S.; Krieg H. (2010), J. Chem. Phys., 132: 154104

        S6 =   1.000000E+00
        S8 =   1.703000E+00
       SR6 =   1.261000E+00
    ALPHA6 =   1.400000E+01

   => Loading Basis Set <=

    Name: (6-31G* AUX)
    Role: JKFIT
    Keyword: DF_BASIS_SCF
    atoms 1-7         entry C          line   120 file /opt/acellera/miniconda3/share/psi4/basis/cc-pvdz-jkfit.gbs 
    atoms 8-12, 15-18 entry H          line    50 file /opt/acellera/miniconda3/share/psi4/basis/cc-pvdz-jkfit.gbs 
    atoms 13-14       entry N          line   170 file /opt/acellera/miniconda3/share/psi4/basis/cc-pvdz-jkfit.gbs 

  ==> Pre-Iterations <==

   -------------------------------------------------------
    Irrep   Nso     Nmo     Nalpha   Nbeta   Ndocc  Nsocc
   -------------------------------------------------------
     A        153     153       0       0       0       0
   -------------------------------------------------------
    Total     153     153      32      32      32       0
   -------------------------------------------------------

  ==> Integral Setup <==

  ==> DFJK: Density-Fitted J/K Matrices <==

    J tasked:                  Yes
    K tasked:                  Yes
    wK tasked:                  No
    OpenMP threads:              1
    Integrals threads:           1
    Memory (MB):              2250
    Algorithm:                Core
    Integral Cache:           NONE
    Schwarz Cutoff:          1E-12
    Fitting Condition:       1E-12

   => Auxiliary Basis Set <=

  Basis Set: (6-31G* AUX)
    Blend: CC-PVDZ-JKFIT
    Number of shells: 297
    Number of basis function: 954
    Number of Cartesian functions: 954
    Spherical Harmonics?: false
    Max angular momentum: 3

  Minimum eigenvalue in the overlap matrix is 4.8053872259E-04.
  Using Symmetric Orthogonalization.

  SCF Guess: Superposition of Atomic Densities via on-the-fly atomic UHF.

  ==> Iterations <==

                           Total Energy        Delta E     RMS |[F,P]|

   @DF-RKS iter   0:  -379.40301958430121   -3.79403e+02   3.34994e-02 
   @DF-RKS iter   1:  -381.00616928763122   -1.60315e+00   6.10350e-03 
   @DF-RKS iter   2:  -380.93776462432714    6.84047e-02   6.57073e-03 DIIS
   @DF-RKS iter   3:  -381.45843547031723   -5.20671e-01   7.74533e-04 DIIS
   @DF-RKS iter   4:  -381.46225519090905   -3.81972e-03   5.48096e-04 DIIS
   @DF-RKS iter   5:  -381.46593510300721   -3.67991e-03   1.28670e-04 DIIS
   @DF-RKS iter   6:  -381.46611908245978   -1.83979e-04   4.26737e-05 DIIS
   @DF-RKS iter   7:  -381.46614174610511   -2.26636e-05   5.91602e-06 DIIS
   @DF-RKS iter   8:  -381.46614208314594   -3.37041e-07   2.70630e-06 DIIS
   @DF-RKS iter   9:  -381.46614216022908   -7.70831e-08   5.37148e-07 DIIS
   @DF-RKS iter  10:  -381.46614216234241   -2.11332e-09   3.12202e-07 DIIS
   @DF-RKS iter  11:  -381.46614216334672   -1.00431e-09   3.05722e-08 DIIS
   @DF-RKS iter  12:  -381.46614216334922   -2.50111e-12   2.71033e-08 DIIS
   @DF-RKS iter  13:  -381.46614216335917   -9.94760e-12   5.71115e-09 DIIS

  ==> Post-Iterations <==

    Orbital Energies (a.u.)
    -----------------------

    Doubly Occupied:                                                      

       1A    -14.565482     2A    -14.565475     3A    -10.496522  
       4A    -10.375874     5A    -10.361416     6A    -10.361405  
       7A    -10.346895     8A    -10.344032     9A    -10.343981  
      10A     -1.182919    11A     -1.091486    12A     -1.017480  
      13A     -0.928651    14A     -0.906633    15A     -0.847568  
      16A     -0.785723    17A     -0.779239    18A     -0.738150  
      19A     -0.737663    20A     -0.689749    21A     -0.668675  
      22A     -0.632551    23A     -0.611253    24A     -0.599947  
      25A     -0.580968    26A     -0.578894    27A     -0.518529  
      28A     -0.510171    29A     -0.502568    30A     -0.471814  
      31A     -0.413428    32A     -0.408820  

    Virtual:                                                              

      33A     -0.223950    34A     -0.158166    35A     -0.113935  
      36A     -0.113521    37A     -0.075485    38A     -0.069208  
      39A     -0.043019    40A     -0.028839    41A      0.012161  
      42A      0.025371    43A      0.028552    44A      0.064379  
      45A      0.079646    46A      0.085015    47A      0.118116  
      48A      0.132240    49A      0.151553    50A      0.187890  
      51A      0.217230    52A      0.248069    53A      0.302056  
      54A      0.348964    55A      0.350475    56A      0.374202  
      57A      0.391918    58A      0.395782    59A      0.417137  
      60A      0.426488    61A      0.434669    62A      0.451590  
      63A      0.453239    64A      0.470276    65A      0.470600  
      66A      0.472639    67A      0.481933    68A      0.498994  
      69A      0.503763    70A      0.537793    71A      0.563227  
      72A      0.591102    73A      0.624017    74A      0.646989  
      75A      0.666539    76A      0.694839    77A      0.695804  
      78A      0.702905    79A      0.717290    80A      0.744295  
      81A      0.772862    82A      0.775270    83A      0.793624  
      84A      0.813014    85A      0.843371    86A      0.846406  
      87A      0.878802    88A      0.926697    89A      0.957176  
      90A      1.021147    91A      1.041838    92A      1.054450  
      93A      1.081524    94A      1.105153    95A      1.132383  
      96A      1.161200    97A      1.186081    98A      1.273238  
      99A      1.277184   100A      1.307838   101A      1.323243  
     102A      1.341533   103A      1.357837   104A      1.398906  
     105A      1.434610   106A      1.451681   107A      1.504475  
     108A      1.595647   109A      1.632999   110A      1.648909  
     111A      1.664871   112A      1.736495   113A      1.753250  
     114A      1.797409   115A      1.816179   116A      1.864641  
     117A      1.900736   118A      1.912328   119A      1.932766  
     120A      1.978401   121A      1.990105   122A      2.019782  
     123A      2.041754   124A      2.065312   125A      2.109690  
     126A      2.121779   127A      2.148264   128A      2.213768  
     129A      2.279628   130A      2.285074   131A      2.313097  
     132A      2.358456   133A      2.443372   134A      2.482030  
     135A      2.493320   136A      2.494476   137A      2.526934  
     138A      2.590546   139A      2.592475   140A      2.652769  
     141A      2.741111   142A      2.886492   143A      3.010456  
     144A      3.258182   145A      3.646708   146A      3.699533  
     147A      3.899834   148A      3.942155   149A      3.961001  
     150A      4.035611   151A      4.169055   152A      4.258034  
     153A      4.547978  

    Final Occupation by Irrep:
              A 
    DOCC [    32 ]

  Energy converged.

  @DF-RKS Final Energy:  -381.46614216335917

   => Energetics <=

    Nuclear Repulsion Energy =            417.6340278430623130
    One-Electron Energy =               -1330.3220598215689279
    Two-Electron Energy =                 575.6442823425705910
    DFT Exchange-Correlation Energy =     -44.4109418774231557
    Empirical Dispersion Energy =          -0.0114506500000000
    PCM Polarization Energy =               0.0000000000000000
    EFP Energy =                            0.0000000000000000
    Total Energy =                       -381.4661421633591658



Properties will be evaluated at   0.000000,   0.000000,   0.000000 Bohr

Properties computed using the SCF density matrix

  Nuclear Dipole Moment: (a.u.)
     X:     0.0000      Y:    -0.0000      Z:     0.0248

  Electronic Dipole Moment: (a.u.)
     X:    -0.0000      Y:     0.0000      Z:    -2.1701

  Dipole Moment: (a.u.)
     X:    -0.0000      Y:    -0.0000      Z:    -2.1453     Total:     2.1453

  Dipole Moment: (Debye)
     X:    -0.0000      Y:    -0.0000      Z:    -5.4528     Total:     5.4528


*** tstop() called on computer05 at Tue Dec 12 14:43:58 2017
Module time:
	user time   =      92.10 seconds =       1.54 minutes
	system time =       0.67 seconds =       0.01 minutes
	total time  =         93 seconds =       1.55 minutes
Total time:
	user time   =      92.10 seconds =       1.54 minutes
	system time =       0.67 seconds =       0.01 minutes
	total time  =         93 seconds =       1.55 minutes

*** tstart() called on computer05
*** at Tue Dec 12 14:43:58 2017


         ------------------------------------------------------------
                                   SCF GRAD                          
                          Rob Parrish, Justin Turney,                
                       Andy Simmonett, and Alex Sokolov              
         ------------------------------------------------------------

  ==> Geometry <==

    Molecular point group: c1
    Full point group: C1

    Geometry (in Angstrom), charge = 1, multiplicity = 1:

       Center              X                  Y                   Z               Mass       
    ------------   -----------------  -----------------  -----------------  -----------------
           C          0.000000000000     0.000000000000    -0.177864000000    12.000000000000
           C          0.036678000000     1.219374000000     0.524165000000    12.000000000000
           C          0.031764000000     1.213119000000     1.915444000000    12.000000000000
           C          0.000000000000     0.000000000000     2.610107000000    12.000000000000
           C         -0.031764000000    -1.213119000000     1.915444000000    12.000000000000
           C         -0.036677000000    -1.219374000000     0.524165000000    12.000000000000
           C          0.000000000000     0.000000000000    -1.644734000000    12.000000000000
           H          0.018170000000     2.164705000000    -0.010853000000     1.007825032070
           H          0.042402000000     2.152895000000     2.457886000000     1.007825032070
           H          0.000000000000     0.000000000000     3.695756000000     1.007825032070
           H         -0.042402000000    -2.152895000000     2.457886000000     1.007825032070
           H         -0.018170000000    -2.164705000000    -0.010853000000     1.007825032070
           N         -0.234187000000    -1.128577000000    -2.308460000000    14.003074004780
           N          0.234187000000     1.128577000000    -2.308461000000    14.003074004780
           H          0.154336000000     1.201112000000    -3.315997000000     1.007825032070
           H          0.570662000000     1.943991000000    -1.813317000000     1.007825032070
           H         -0.570662000000    -1.943991000000    -1.813316000000     1.007825032070
           H         -0.154337000000    -1.201113000000    -3.315997000000     1.007825032070

  Nuclear repulsion =  417.634027843062313

  ==> Basis Set <==

  Basis Set: 6-31G*
    Blend: 6-31G*
    Number of shells: 72
    Number of basis function: 153
    Number of Cartesian functions: 153
    Spherical Harmonics?: false
    Max angular momentum: 2

  ==> DFJKGrad: Density-Fitted SCF Gradients <==

    Gradient:                    1
    J tasked:                  Yes
    K tasked:                  Yes
    wK tasked:                  No
    OpenMP threads:              1
    Integrals threads:           1
    Memory (MB):              2250
    Schwarz Cutoff:          0E+00
    Fitting Condition:       1E-12

   => Auxiliary Basis Set <=

  Basis Set: (6-31G* AUX)
    Blend: CC-PVDZ-JKFIT
    Number of shells: 297
    Number of basis function: 954
    Number of Cartesian functions: 954
    Spherical Harmonics?: false
    Max angular momentum: 3

  ==> DFT Potential <==

   => B3LYP Composite Functional <= 

    B3LYP Hybrid-GGA Exchange-Correlation Functional (VWN1-RPA)

    P.J. Stephens et. al., J. Phys. Chem., 98, 11623-11627, 1994

    Points   =           5000
    Deriv    =              1
    GGA      =           TRUE
    Meta     =          FALSE

    X_LRC        =          FALSE
    X_Hybrid     =           TRUE
    X_Alpha      =   2.000000E-01
    X_Omega      =   0.000000E+00
    C_LRC        =          FALSE
    C_Hybrid     =          FALSE
    C_Alpha      =   0.000000E+00
    C_Omega      =   0.000000E+00

   => Exchange Functionals <=

    0.8000    B3_X
    0.2000      HF 

   => Correlation Functionals <=

    0.1900 VWN3RPA_C
    0.8100   LYP_C

   => Molecular Quadrature <=

    Radial Scheme    =       TREUTLER
    Pruning Scheme   =           FLAT
    Nuclear Scheme   =       TREUTLER

    BS radius alpha  =              1
    Pruning alpha    =              1
    Radial Points    =             75
    Spherical Points =            302
    Total Points     =         396618
    Total Blocks     =            368
    Max Points       =           4981
    Max Functions    =            151


  -Total Gradient:
     Atom            X                  Y                   Z
    ------   -----------------  -----------------  -----------------
       1       -0.000000129928     0.000000014953     0.002058697783
       2        0.002912632488     0.003508726206    -0.002678083332
       3       -0.000257637865    -0.001624587686     0.001114086218
       4        0.000000013723     0.000000004021     0.000390862957
       5        0.000257513922     0.001624595786     0.001114096970
       6       -0.002912370522    -0.003508759153    -0.002678104644
       7       -0.000000062150    -0.000000322032    -0.002586540371
       8        0.000641144741    -0.000767922323    -0.004030235519
       9       -0.000330615637     0.000088544380    -0.000057142259
      10        0.000000013840     0.000000000440     0.000077169094
      11        0.000330620834    -0.000088560071    -0.000057129776
      12       -0.000641209902     0.000767923774    -0.004030254422
      13        0.002297650894    -0.000681281669     0.003017450415
      14       -0.002297589127     0.000681801506     0.003016216728
      15       -0.000843103703     0.000462140412    -0.000691028061
      16        0.000223386202     0.000777885622     0.003360827181
      17       -0.000223390681    -0.000777929367     0.003360759814
      18        0.000843132891    -0.000462274636    -0.000691872588


*** tstop() called on computer05 at Tue Dec 12 14:44:20 2017
Module time:
	user time   =      21.50 seconds =       0.36 minutes
	system time =       0.16 seconds =       0.00 minutes
	total time  =         22 seconds =       0.37 minutes
Total time:
	user time   =     113.61 seconds =       1.89 minutes
	system time =       0.83 seconds =       0.01 minutes
	total time  =        115 seconds =       1.92 minutes

			-----------------------------------------
			 OPTKING 2.0: for geometry optimizations 
			  - R.A. King,  Bethel University        
			-----------------------------------------
	At level 1: Red. Int., RFO, no backsteps, dynamic trust

	Internal coordinates to be generated automatically.
	Detected frag 1 with atoms:  1 2 3 4 5 6 7 8 9 10 11 12 13 14 15 16 17 18
	---Fragment 1 Bond Connectivity---
	 1 : 2 6 7
	 2 : 1 3 8
	 3 : 2 4 9
	 4 : 3 5 10
	 5 : 4 6 11
	 6 : 1 5 12
	 7 : 1 13 14
	 8 : 2
	 9 : 3
	 10 : 4
	 11 : 5
	 12 : 6
	 13 : 7 17 18
	 14 : 7 15 16
	 15 : 14
	 16 : 14
	 17 : 13
	 18 : 13

	Assuming in current code that numbering for constraints corresponds to unified fragment.
	Frozen dihedral atom list: 
	     2     1     7    13
	---Fragment 1 Geometry and Gradient---
	 C           0.0000000000        0.0000000000       -0.3361142489
	 C           0.0693113751        2.3042829136        0.9905282984
	 C           0.0600252609        2.2924626766        3.6196645829
	 C           0.0000000000        0.0000000000        4.9323874075
	 C          -0.0600252609       -2.2924626766        3.6196645829
	 C          -0.0693094854       -2.3042829136        0.9905282984
	 C           0.0000000000        0.0000000000       -3.1080968214
	 H           0.0343363238        4.0906996085       -0.0205091977
	 H           0.0801281675        4.0683819429        4.6447314059
	 H           0.0000000000        0.0000000000        6.9839666940
	 H          -0.0801281675       -4.0683819429        4.6447314059
	 H          -0.0343363238       -4.0906996085       -0.0205091977
	 N          -0.4425492939       -2.1327014499       -4.3623571887
	 N           0.4425492939        2.1327014499       -4.3623590784
	 H           0.2916527724        2.2697727349       -6.2663261875
	 H           1.0783948944        3.6736105948       -3.4266725221
	 H          -1.0783948944       -3.6736105948       -3.4266706324
	 H          -0.2916546622       -2.2697746246       -6.2663261875
	            -0.0000001299        0.0000000150        0.0020586978
	             0.0029126325        0.0035087262       -0.0026780833
	            -0.0002576379       -0.0016245877        0.0011140862
	             0.0000000137        0.0000000040        0.0003908630
	             0.0002575139        0.0016245958        0.0011140970
	            -0.0029123705       -0.0035087592       -0.0026781046
	            -0.0000000621       -0.0000003220       -0.0025865404
	             0.0006411447       -0.0007679223       -0.0040302355
	            -0.0003306156        0.0000885444       -0.0000571423
	             0.0000000138        0.0000000004        0.0000771691
	             0.0003306208       -0.0000885601       -0.0000571298
	            -0.0006412099        0.0007679238       -0.0040302544
	             0.0022976509       -0.0006812817        0.0030174504
	            -0.0022975891        0.0006818015        0.0030162167
	            -0.0008431037        0.0004621404       -0.0006910281
	             0.0002233862        0.0007778856        0.0033608272
	            -0.0002233907       -0.0007779294        0.0033607598
	             0.0008431329       -0.0004622746       -0.0006918726

	Previous optimization step data not found.  Starting new optimization.

	---Fragment 1 Intrafragment Coordinates---
	 - Coordinate -           - BOHR/RAD -       - ANG/DEG -
	 R(1,2)           =         2.659794	       1.407502
	 R(1,6)           =         2.659794	       1.407502
	 R(1,7)           =         2.771983	       1.466870
	 R(2,3)           =         2.629179	       1.391302
	 R(2,8)           =         2.052975	       1.086387
	 R(3,4)           =         2.642391	       1.398293
	 R(3,9)           =         2.050623	       1.085143
	 R(4,5)           =         2.642391	       1.398293
	 R(4,10)          =         2.051579	       1.085649
	 R(5,6)           =         2.629179	       1.391302
	 R(5,11)          =         2.050623	       1.085143
	 R(6,12)          =         2.052975	       1.086387
	 R(7,13)          =         2.513451	       1.330061
	 R(7,14)          =         2.513452	       1.330061
	 R(13,17)         =         1.911599	       1.011575
	 R(13,18)         =         1.914851	       1.013296
	 R(14,15)         =         1.914850	       1.013295
	 R(14,16)         =         1.911599	       1.011575
	 B(1,2,3)         =         2.088380	     119.655334
	 B(1,2,8)         =         2.103396	     120.515735
	 B(1,6,5)         =         2.088380	     119.655336
	 B(1,6,12)        =         2.103396	     120.515739
	 B(1,7,13)        =         2.093263	     119.935137
	 B(1,7,14)        =         2.093264	     119.935175
	 B(2,1,6)         =         2.097220	     120.161836
	 B(2,1,7)         =         2.092983	     119.919082
	 B(2,3,4)         =         2.095280	     120.050699
	 B(2,3,9)         =         2.089718	     119.732039
	 B(3,2,8)         =         2.090149	     119.756716
	 B(3,4,5)         =         2.101792	     120.423818
	 B(3,4,10)        =         2.090697	     119.788091
	 B(4,3,9)         =         2.098135	     120.214304
	 B(4,5,6)         =         2.095280	     120.050698
	 B(4,5,11)        =         2.098135	     120.214304
	 B(5,4,10)        =         2.090697	     119.788091
	 B(5,6,12)        =         2.090149	     119.756718
	 B(6,1,7)         =         2.092983	     119.919082
	 B(6,5,11)        =         2.089718	     119.732040
	 B(7,13,17)       =         2.092412	     119.886368
	 B(7,13,18)       =         2.144860	     122.891417
	 B(7,14,15)       =         2.144859	     122.891388
	 B(7,14,16)       =         2.092411	     119.886331
	 B(13,7,14)       =         2.096659	     120.129688
	 B(15,14,16)      =         2.043400	     117.078222
	 B(17,13,18)      =         2.043399	     117.078152
	 D(1,2,3,4)       =         0.007800	       0.446917
	 D(1,2,3,9)       =        -3.122897	    -178.928796
	 D(1,6,5,4)       =         0.007799	       0.446823
	 D(1,6,5,11)      =        -3.122897	    -178.928843
	 D(1,7,13,17)     =         0.187845	      10.762723
	 D(1,7,13,18)     =        -3.032165	    -173.730279
	 D(1,7,14,15)     =        -3.032164	    -173.730222
	 D(1,7,14,16)     =         0.187845	      10.762719
	 D(2,1,6,5)       =        -0.003905	      -0.223756
	 D(2,1,6,12)      =        -3.091438	    -177.126344
	*D(2,1,7,13)      =        -2.967060	    -170.000026
	 D(2,1,7,14)      =         0.174532	       9.999974
	 D(2,3,4,5)       =        -0.003943	      -0.225922
	 D(2,3,4,10)      =         3.137650	     179.774078
	 D(3,2,1,6)       =        -0.003908	      -0.223897
	 D(3,2,1,7)       =         3.137686	     179.776150
	 D(3,4,5,6)       =        -0.003942	      -0.225875
	 D(3,4,5,11)      =         3.126701	     179.146753
	 D(4,3,2,8)       =         3.095745	     177.373103
	 D(4,5,6,12)      =         3.095746	     177.373164
	 D(5,4,3,9)       =         3.126701	     179.146753
	 D(5,6,1,7)       =         3.137687	     179.776197
	 D(6,1,2,8)       =        -3.091438	    -177.126330
	 D(6,1,7,13)      =         0.174533	      10.000020
	 D(6,1,7,14)      =        -2.967059	    -169.999980
	 D(6,5,4,10)      =         3.137650	     179.774125
	 D(7,1,2,8)       =         0.050156	       2.873717
	 D(7,1,6,12)      =         0.050154	       2.873609
	 D(8,2,3,9)       =        -0.034952	      -2.002610
	 D(9,3,4,10)      =        -0.014892	      -0.853247
	 D(10,4,5,11)     =        -0.014892	      -0.853247
	 D(11,5,6,12)     =        -0.034950	      -2.002502
	 D(13,7,14,15)    =         0.109428	       6.269778
	 D(13,7,14,16)    =        -2.953748	    -169.237281
	 D(14,7,13,17)    =        -2.953748	    -169.237277
	 D(14,7,13,18)    =         0.109427	       6.269721

	Current energy   :      -381.4661421634

	Generating empirical Hessian (Schlegel '84) for each fragment.
	Taking RFO optimization step.
	Going to follow RFO solution 1.
	Using RFO vector 1.
	Norm of target step-size    0.29611
	Projected energy change by RFO approximation:        -0.0029454435

	Back-transformation to cartesian coordinates...
	Could not converge backtransformation.
	Using first guess instead.

	Back-transformation to cartesian coordinates to adjust frozen coordinates...
	Successfully converged to displaced geometry.

	--- Internal Coordinate Step in ANG or DEG, aJ/ANG or AJ/DEG ---
	 ---------------------------------------------------------------------------
	   Coordinate                Previous        Force       Change         New 
	   ----------                --------       ------       ------       ------
	    1 R(1,2)          =      1.407502     0.025782     0.003985     1.411487
	    2 R(1,6)          =      1.407502     0.025775     0.006350     1.413852
	    3 R(1,7)          =      1.466870     0.072353     0.012889     1.479759
	    4 R(2,3)          =      1.391302    -0.010750    -0.000763     1.390539
	    5 R(2,8)          =      1.086387    -0.010759    -0.000562     1.085825
	    6 R(3,4)          =      1.398293    -0.013716    -0.001351     1.396942
	    7 R(3,9)          =      1.085143    -0.000368    -0.000066     1.085077
	    8 R(4,5)          =      1.398293    -0.013723    -0.001898     1.396395
	    9 R(4,10)         =      1.085649    -0.000631     0.000279     1.085928
	   10 R(5,6)          =      1.391302    -0.010765    -0.001235     1.390067
	   11 R(5,11)         =      1.085143    -0.000368     0.000854     1.085997
	   12 R(6,12)         =      1.086387    -0.010759    -0.000679     1.085708
	   13 R(7,13)         =      1.330061     0.014171     0.002063     1.332124
	   14 R(7,14)         =      1.330061     0.014167     0.006667     1.336729
	   15 R(13,17)        =      1.011575    -0.019329     0.000716     1.012291
	   16 R(13,18)        =      1.013296    -0.006492     0.000220     1.013516
	   17 R(14,15)        =      1.013295    -0.006485     0.002341     1.015636
	   18 R(14,16)        =      1.011575    -0.019329    -0.001053     1.010522
	   19 B(1,2,3)        =    119.655334     0.000268     0.875171   120.530505
	   20 B(1,2,8)        =    120.515735     0.000168     0.910834   121.426569
	   21 B(1,6,5)        =    119.655336     0.000268     0.905269   120.560605
	   22 B(1,6,12)       =    120.515739     0.000169     1.024335   121.540074
	   23 B(1,7,13)       =    119.935137     0.000487     1.442022   121.377160
	   24 B(1,7,14)       =    119.935175     0.000487     1.393069   121.328243
	   25 B(2,1,6)        =    120.161836    -0.000536    -1.614220   118.547616
	   26 B(2,1,7)        =    119.919082     0.000268     0.777089   120.696171
	   27 B(2,3,4)        =    120.050699     0.000029     0.067298   120.117997
	   28 B(2,3,9)        =    119.732039    -0.000008    -0.003081   119.728958
	   29 B(3,2,8)        =    119.756716    -0.000436    -1.810999   117.945717
	   30 B(3,4,5)        =    120.423818    -0.000058    -0.280280   120.143537
	   31 B(3,4,10)       =    119.788091     0.000029     0.172205   119.960296
	   32 B(4,3,9)        =    120.214304    -0.000021    -0.064579   120.149724
	   33 B(4,5,6)        =    120.050698     0.000029     0.009174   120.059872
	   34 B(4,5,11)       =    120.214304    -0.000022    -0.046938   120.167366
	   35 B(5,4,10)       =    119.788091     0.000029     0.105220   119.893311
	   36 B(5,6,12)       =    119.756718    -0.000437    -1.920452   117.836265
	   37 B(6,1,7)        =    119.919082     0.000268     0.663328   120.582410
	   38 B(6,5,11)       =    119.732040    -0.000007     0.028729   119.760768
	   39 B(7,13,17)      =    119.886368     0.000248     1.049452   120.935820
	   40 B(7,13,18)      =    122.891417    -0.000140    -0.709302   122.182115
	   41 B(7,14,15)      =    122.891388    -0.000140    -0.484432   122.406956
	   42 B(7,14,16)      =    119.886331     0.000248     1.222275   121.108606
	   43 B(13,7,14)      =    120.129688    -0.000975    -2.994346   117.135341
	   44 B(15,14,16)     =    117.078222    -0.000113    -0.932131   116.146091
	   45 B(17,13,18)     =    117.078152    -0.000113    -0.544713   116.533439
	   46 D(1,2,3,4)      =      0.446917    -0.000002    -0.030819     0.416098
	   47 D(1,2,3,9)      =   -178.928796    -0.000001     0.006796  -178.921999
	   48 D(1,6,5,4)      =      0.446823    -0.000011    -1.775285    -1.328462
	   49 D(1,6,5,11)     =   -178.928843    -0.000007    -1.142077  -180.070920
	   50 D(1,7,13,17)    =     10.762723     0.000020     3.350567    14.113290
	   51 D(1,7,13,18)    =   -173.730279     0.000002     0.827854  -172.902425
	   52 D(1,7,14,15)    =   -173.730222    -0.000024    -4.028399  -177.758621
	   53 D(1,7,14,16)    =     10.762719    -0.000006    -1.583217     9.179502
	   54 D(2,1,6,5)      =     -0.223756     0.000014     2.614758     2.391001
	   55 D(2,1,6,12)     =   -177.126344     0.000016     2.467917  -174.658428
	   56 *D(2,1,7,13)    =   -170.000026     0.000000     0.000000  -170.000026
	   57 D(2,1,7,14)     =      9.999974     0.000026     4.718695    14.718668
	   58 D(2,3,4,5)      =     -0.225922     0.000006     0.919628     0.693705
	   59 D(2,3,4,10)     =    179.774078     0.000003     0.304338   180.078416
	   60 D(3,2,1,6)      =     -0.223897    -0.000008    -1.709009    -1.932906
	   61 D(3,2,1,7)      =    179.776150     0.000016     3.054591   182.830740
	   62 D(3,4,5,6)      =     -0.225875     0.000001    -0.010872    -0.236746
	   63 D(3,4,5,11)     =    179.146753    -0.000002    -0.646197   178.500555
	   64 D(4,3,2,8)      =    177.373103    -0.000002    -0.491035   176.882068
	   65 D(4,5,6,12)     =    177.373164    -0.000008    -1.545296   175.827867
	   66 D(5,4,3,9)      =    179.146753     0.000005     0.882245   180.028997
	   67 D(5,6,1,7)      =    179.776197    -0.000009    -2.143230   177.632967
	   68 D(6,1,2,8)      =   -177.126330    -0.000003    -1.147790  -178.274120
	   69 D(6,1,7,13)     =     10.000020     0.000024     4.860786    14.860806
	   70 D(6,1,7,14)     =   -169.999980     0.000049     9.579480  -160.420499
	   71 D(6,5,4,10)     =    179.774125     0.000004     0.604004   180.378129
	   72 D(7,1,2,8)      =      2.873717     0.000020     3.615810     6.489527
	   73 D(7,1,6,12)     =      2.873609    -0.000008    -2.290071     0.583538
	   74 D(8,2,3,9)      =     -2.002610    -0.000002    -0.453420    -2.456029
	   75 D(9,3,4,10)     =     -0.853247     0.000002     0.266955    -0.586292
	   76 D(10,4,5,11)    =     -0.853247     0.000001    -0.031322    -0.884570
	   77 D(11,5,6,12)    =     -2.002502    -0.000005    -0.912089    -2.914591
	   78 D(13,7,14,15)   =      6.269778     0.000002     0.498085     6.767863
	   79 D(13,7,14,16)   =   -169.237281     0.000020     2.943267  -166.294013
	   80 D(14,7,13,17)   =   -169.237277    -0.000006    -1.178277  -170.415554
	   81 D(14,7,13,18)   =      6.269721    -0.000024    -3.700990     2.568731
	 ---------------------------------------------------------------------------
	Successfully symmetrized geometry.

  ==> Convergence Check <==

  Measures of convergence in internal coordinates in au.
  Criteria marked as inactive (o), active & met (*), and active & unmet ( ).
  --------------------------------------------------------------------------------------------- ~
   Step     Total Energy     Delta E     MAX Force     RMS Force      MAX Disp      RMS Disp    ~
  --------------------------------------------------------------------------------------------- ~
    Convergence Criteria    1.00e-06 *    3.00e-04 *             o    1.20e-03 *             o  ~
  --------------------------------------------------------------------------------------------- ~
      1    -381.46614216   -3.81e+02      1.28e-02      2.74e-03 o    1.67e-01      3.29e-02 o  ~
  ---------------------------------------------------------------------------------------------

	Writing optimization data to binary file.
	Structure for next step:
	Cartesian Geometry (in Angstrom)
	    C    -0.0715086587   0.0057923231  -0.1711399811
	    C    -0.0348805061   1.2183164637   0.5504832037
	    C     0.0041183020   1.2122059421   1.9404616526
	    C     0.0161315837   0.0008143371   2.6360427861
	    C     0.0036496276  -1.2086409978   1.9382034315
	    C    -0.0257538138  -1.2103809625   0.5484485694
	    C    -0.0502318926   0.0063758390  -1.6507461025
	    H    -0.0952425105   2.1786380386   0.0473378062
	    H     0.0142904967   2.1520792426   2.4826121961
	    H     0.0453190190  -0.0009612394   3.7215773060
	    H     0.0375420068  -2.1504575232   2.4778532970
	    H     0.0351881570  -2.1684128387   0.0412773614
	    N    -0.2809436535  -1.1048963274  -2.3481696864
	    N     0.2923791039   1.0989550346  -2.3404794334
	    H     0.2805639730   1.1277423595  -3.3556381715
	    H     0.6770915988   1.9100206114  -1.8764500837
	    H    -0.6810997498  -1.9229985550  -1.9062240601
	    H    -0.1666130834  -1.1441927478  -3.3544490914
			--------------------------
			 OPTKING Finished Execution 
			--------------------------

    Structure for next step:
    Molecular point group: c1
    Full point group: C1

    Geometry (in Angstrom), charge = 1, multiplicity = 1:

    C           -0.071508658715     0.005792323132    -0.171139981071
    C           -0.034880506105     1.218316463736     0.550483203737
    C            0.004118302010     1.212205942112     1.940461652575
    C            0.016131583665     0.000814337149     2.636042786058
    C            0.003649627591    -1.208640997813     1.938203431451
    C           -0.025753813820    -1.210380962544     0.548448569385
    C           -0.050231892605     0.006375838988    -1.650746102516
    H           -0.095242510519     2.178638038594     0.047337806192
    H            0.014290496691     2.152079242644     2.482612196092
    H            0.045319018995    -0.000961239449     3.721577306030
    H            0.037542006780    -2.150457523220     2.477853297031
    H            0.035188156989    -2.168412838694     0.041277361449
    N           -0.280943653506    -1.104896327437    -2.348169686421
    N            0.292379103926     1.098955034641    -2.340479433421
    H            0.280563973015     1.127742359527    -3.355638171468
    H            0.677091598770     1.910020611439    -1.876450083670
    H           -0.681099749765    -1.922998555019    -1.906224060084
    H           -0.166613083398    -1.144192747788    -3.354449091350

gradient() will perform analytic gradient computation.

*** tstart() called on computer05
*** at Tue Dec 12 14:44:20 2017

   => Loading Basis Set <=

    Name: 6-31G*
    Role: ORBITAL
    Keyword: BASIS
    atoms 1-7         entry C          line   102 file /opt/acellera/miniconda3/share/psi4/basis/6-31gs.gbs 
    atoms 8-12, 15-18 entry H          line    35 file /opt/acellera/miniconda3/share/psi4/basis/6-31gs.gbs 
    atoms 13-14       entry N          line   119 file /opt/acellera/miniconda3/share/psi4/basis/6-31gs.gbs 


         ---------------------------------------------------------
                                   SCF
            by Justin Turney, Rob Parrish, and Andy Simmonett
                              RKS Reference
                        1 Threads,   3000 MiB Core
         ---------------------------------------------------------

  ==> Geometry <==

    Molecular point group: c1
    Full point group: C1

    Geometry (in Angstrom), charge = 1, multiplicity = 1:

       Center              X                  Y                   Z               Mass       
    ------------   -----------------  -----------------  -----------------  -----------------
           C         -0.071508658715     0.005792323132    -0.171139981071    12.000000000000
           C         -0.034880506105     1.218316463736     0.550483203737    12.000000000000
           C          0.004118302010     1.212205942112     1.940461652575    12.000000000000
           C          0.016131583665     0.000814337149     2.636042786058    12.000000000000
           C          0.003649627591    -1.208640997813     1.938203431451    12.000000000000
           C         -0.025753813820    -1.210380962544     0.548448569385    12.000000000000
           C         -0.050231892605     0.006375838988    -1.650746102516    12.000000000000
           H         -0.095242510519     2.178638038594     0.047337806192     1.007825032070
           H          0.014290496691     2.152079242644     2.482612196092     1.007825032070
           H          0.045319018995    -0.000961239449     3.721577306030     1.007825032070
           H          0.037542006780    -2.150457523220     2.477853297031     1.007825032070
           H          0.035188156989    -2.168412838694     0.041277361449     1.007825032070
           N         -0.280943653506    -1.104896327437    -2.348169686421    14.003074004780
           N          0.292379103926     1.098955034641    -2.340479433421    14.003074004780
           H          0.280563973015     1.127742359527    -3.355638171468     1.007825032070
           H          0.677091598770     1.910020611439    -1.876450083670     1.007825032070
           H         -0.681099749765    -1.922998555019    -1.906224060084     1.007825032070
           H         -0.166613083398    -1.144192747788    -3.354449091350     1.007825032070

  Running in c1 symmetry.

  Rotational constants: A =      0.12315  B =      0.03952  C =      0.03018 [cm^-1]
  Rotational constants: A =   3691.99711  B =   1184.70341  C =    904.79473 [MHz]
  Nuclear repulsion =  415.581811054670311

  Charge       = 1
  Multiplicity = 1
  Electrons    = 64
  Nalpha       = 32
  Nbeta        = 32

  ==> Algorithm <==

  SCF Algorithm Type is DF.
  DIIS enabled.
  MOM disabled.
  Fractional occupation disabled.
  Guess Type is READ.
  Energy threshold   = 1.00e-08
  Density threshold  = 1.00e-08
  Integral threshold = 0.00e+00

  ==> Primary Basis <==

  Basis Set: 6-31G*
    Blend: 6-31G*
    Number of shells: 72
    Number of basis function: 153
    Number of Cartesian functions: 153
    Spherical Harmonics?: false
    Max angular momentum: 2

  ==> DFT Potential <==

   => B3LYP Composite Functional <= 

    B3LYP Hybrid-GGA Exchange-Correlation Functional (VWN1-RPA)

    P.J. Stephens et. al., J. Phys. Chem., 98, 11623-11627, 1994

    Points   =           5000
    Deriv    =              1
    GGA      =           TRUE
    Meta     =          FALSE

    X_LRC        =          FALSE
    X_Hybrid     =           TRUE
    X_Alpha      =   2.000000E-01
    X_Omega      =   0.000000E+00
    C_LRC        =          FALSE
    C_Hybrid     =          FALSE
    C_Alpha      =   0.000000E+00
    C_Omega      =   0.000000E+00

   => Exchange Functionals <=

    0.8000    B3_X
    0.2000      HF 

   => Correlation Functionals <=

    0.1900 VWN3RPA_C
    0.8100   LYP_C

   => Molecular Quadrature <=

    Radial Scheme    =       TREUTLER
    Pruning Scheme   =           FLAT
    Nuclear Scheme   =       TREUTLER

    BS radius alpha  =              1
    Pruning alpha    =              1
    Radial Points    =             75
    Spherical Points =            302
    Total Points     =         396693
    Total Blocks     =            354
    Max Points       =           4968
    Max Functions    =            151

   => -D3ZERO: Empirical Dispersion <=

    Grimme's -D3 (zero-damping) Dispersion Correction
    Grimme S.; Antony J.; Ehrlich S.; Krieg H. (2010), J. Chem. Phys., 132: 154104

        S6 =   1.000000E+00
        S8 =   1.703000E+00
       SR6 =   1.261000E+00
    ALPHA6 =   1.400000E+01

   => Loading Basis Set <=

    Name: (6-31G* AUX)
    Role: JKFIT
    Keyword: DF_BASIS_SCF
    atoms 1-7         entry C          line   120 file /opt/acellera/miniconda3/share/psi4/basis/cc-pvdz-jkfit.gbs 
    atoms 8-12, 15-18 entry H          line    50 file /opt/acellera/miniconda3/share/psi4/basis/cc-pvdz-jkfit.gbs 
    atoms 13-14       entry N          line   170 file /opt/acellera/miniconda3/share/psi4/basis/cc-pvdz-jkfit.gbs 

  Reading orbitals from file 180, no projection.

  ==> Pre-Iterations <==

   -------------------------------------------------------
    Irrep   Nso     Nmo     Nalpha   Nbeta   Ndocc  Nsocc
   -------------------------------------------------------
     A        153     153       0       0       0       0
   -------------------------------------------------------
    Total     153     153      32      32      32       0
   -------------------------------------------------------

  ==> Integral Setup <==

  ==> DFJK: Density-Fitted J/K Matrices <==

    J tasked:                  Yes
    K tasked:                  Yes
    wK tasked:                  No
    OpenMP threads:              1
    Integrals threads:           1
    Memory (MB):              2250
    Algorithm:                Core
    Integral Cache:           NONE
    Schwarz Cutoff:          1E-12
    Fitting Condition:       1E-12

   => Auxiliary Basis Set <=

  Basis Set: (6-31G* AUX)
    Blend: CC-PVDZ-JKFIT
    Number of shells: 297
    Number of basis function: 954
    Number of Cartesian functions: 954
    Spherical Harmonics?: false
    Max angular momentum: 3

  Minimum eigenvalue in the overlap matrix is 4.8265161251E-04.
  Using Symmetric Orthogonalization.

  SCF Guess: Orbitals guess was supplied from a previous computation.

  ==> Iterations <==

                           Total Energy        Delta E     RMS |[F,P]|

   @DF-RKS iter   0:  -381.43093195586783   -3.81431e+02   1.18592e-03 
   @DF-RKS iter   1:  -381.46677668666518   -3.58447e-02   1.30507e-04 
   @DF-RKS iter   2:  -381.46662612766443    1.50559e-04   1.86112e-04 DIIS
   @DF-RKS iter   3:  -381.46705667179208   -4.30544e-04   4.02426e-05 DIIS
   @DF-RKS iter   4:  -381.46707425635941   -1.75846e-05   1.58192e-05 DIIS
   @DF-RKS iter   5:  -381.46707706339430   -2.80703e-06   5.01216e-06 DIIS
   @DF-RKS iter   6:  -381.46707733582161   -2.72427e-07   1.72515e-06 DIIS
   @DF-RKS iter   7:  -381.46707736663410   -3.08125e-08   4.21638e-07 DIIS
   @DF-RKS iter   8:  -381.46707736848145   -1.84735e-09   1.39564e-07 DIIS
   @DF-RKS iter   9:  -381.46707736870269   -2.21235e-10   4.21863e-08 DIIS
   @DF-RKS iter  10:  -381.46707736872054   -1.78488e-11   1.58794e-08 DIIS
   @DF-RKS iter  11:  -381.46707736872378   -3.24007e-12   5.08272e-09 DIIS

  ==> Post-Iterations <==

    Orbital Energies (a.u.)
    -----------------------

    Doubly Occupied:                                                      

       1A    -14.566048     2A    -14.565242     3A    -10.499308  
       4A    -10.379088     5A    -10.360400     6A    -10.359970  
       7A    -10.345628     8A    -10.342209     9A    -10.342159  
      10A     -1.182291    11A     -1.087048    12A     -1.015628  
      13A     -0.927246    14A     -0.904521    15A     -0.847134  
      16A     -0.785711    17A     -0.774194    18A     -0.737647  
      19A     -0.735724    20A     -0.685319    21A     -0.669610  
      22A     -0.629978    23A     -0.610725    24A     -0.596832  
      25A     -0.582009    26A     -0.575733    27A     -0.518011  
      28A     -0.508813    29A     -0.499969    30A     -0.470080  
      31A     -0.413242    32A     -0.407238  

    Virtual:                                                              

      33A     -0.224336    34A     -0.156480    35A     -0.118334  
      36A     -0.112771    37A     -0.073580    38A     -0.068993  
      39A     -0.038526    40A     -0.033118    41A      0.010690  
      42A      0.022464    43A      0.026089    44A      0.063889  
      45A      0.068839    46A      0.078958    47A      0.116815  
      48A      0.126621    49A      0.155510    50A      0.183279  
      51A      0.211629    52A      0.244995    53A      0.300541  
      54A      0.349817    55A      0.352143    56A      0.374907  
      57A      0.389855    58A      0.396833    59A      0.417232  
      60A      0.420400    61A      0.438942    62A      0.453743  
      63A      0.454677    64A      0.470187    65A      0.472673  
      66A      0.473831    67A      0.482974    68A      0.504627  
      69A      0.511894    70A      0.536251    71A      0.556516  
      72A      0.593299    73A      0.619813    74A      0.652286  
      75A      0.665201    76A      0.688467    77A      0.692021  
      78A      0.703268    79A      0.714717    80A      0.735914  
      81A      0.765358    82A      0.774701    83A      0.789209  
      84A      0.805309    85A      0.832623    86A      0.841195  
      87A      0.869571    88A      0.927482    89A      0.955852  
      90A      1.004656    91A      1.027710    92A      1.055231  
      93A      1.067544    94A      1.107247    95A      1.128962  
      96A      1.155950    97A      1.179666    98A      1.263762  
      99A      1.285833   100A      1.308840   101A      1.324170  
     102A      1.347025   103A      1.355467   104A      1.376183  
     105A      1.435418   106A      1.452325   107A      1.496431  
     108A      1.603524   109A      1.628895   110A      1.644985  
     111A      1.658315   112A      1.739079   113A      1.745401  
     114A      1.800319   115A      1.816576   116A      1.843843  
     117A      1.895643   118A      1.913915   119A      1.946972  
     120A      1.973012   121A      1.987039   122A      2.019024  
     123A      2.024770   124A      2.065848   125A      2.107923  
     126A      2.128590   127A      2.152900   128A      2.197793  
     129A      2.253795   130A      2.271597   131A      2.323176  
     132A      2.347293   133A      2.440300   134A      2.473605  
     135A      2.490284   136A      2.497165   137A      2.522659  
     138A      2.592433   139A      2.606027   140A      2.644435  
     141A      2.736315   142A      2.880971   143A      2.994997  
     144A      3.253635   145A      3.637121   146A      3.671158  
     147A      3.893321   148A      3.944988   149A      3.960870  
     150A      4.041004   151A      4.169828   152A      4.257199  
     153A      4.543834  

    Final Occupation by Irrep:
              A 
    DOCC [    32 ]

  Energy converged.

  @DF-RKS Final Energy:  -381.46707736872378

   => Energetics <=

    Nuclear Repulsion Energy =            415.5818110546703110
    One-Electron Energy =               -1326.3079726409869181
    Two-Electron Energy =                 573.6662035503528614
    DFT Exchange-Correlation Energy =     -44.3955110827601231
    Empirical Dispersion Energy =          -0.0116082500000000
    PCM Polarization Energy =               0.0000000000000000
    EFP Energy =                            0.0000000000000000
    Total Energy =                       -381.4670773687238352



Properties will be evaluated at   0.000000,   0.000000,   0.000000 Bohr

Properties computed using the SCF density matrix

  Nuclear Dipole Moment: (a.u.)
     X:    -1.3677      Y:     0.1640      Z:     0.3928

  Electronic Dipole Moment: (a.u.)
     X:     1.4091      Y:    -0.1818      Z:    -2.5801

  Dipole Moment: (a.u.)
     X:     0.0414      Y:    -0.0178      Z:    -2.1873     Total:     2.1878

  Dipole Moment: (Debye)
     X:     0.1053      Y:    -0.0452      Z:    -5.5596     Total:     5.5608


*** tstop() called on computer05 at Tue Dec 12 14:45:40 2017
Module time:
	user time   =      78.99 seconds =       1.32 minutes
	system time =       0.60 seconds =       0.01 minutes
	total time  =         80 seconds =       1.33 minutes
Total time:
	user time   =     192.67 seconds =       3.21 minutes
	system time =       1.44 seconds =       0.02 minutes
	total time  =        195 seconds =       3.25 minutes

*** tstart() called on computer05
*** at Tue Dec 12 14:45:40 2017


         ------------------------------------------------------------
                                   SCF GRAD                          
                          Rob Parrish, Justin Turney,                
                       Andy Simmonett, and Alex Sokolov              
         ------------------------------------------------------------

  ==> Geometry <==

    Molecular point group: c1
    Full point group: C1

    Geometry (in Angstrom), charge = 1, multiplicity = 1:

       Center              X                  Y                   Z               Mass       
    ------------   -----------------  -----------------  -----------------  -----------------
           C         -0.071508658715     0.005792323132    -0.171139981071    12.000000000000
           C         -0.034880506105     1.218316463736     0.550483203737    12.000000000000
           C          0.004118302010     1.212205942112     1.940461652575    12.000000000000
           C          0.016131583665     0.000814337149     2.636042786058    12.000000000000
           C          0.003649627591    -1.208640997813     1.938203431451    12.000000000000
           C         -0.025753813820    -1.210380962544     0.548448569385    12.000000000000
           C         -0.050231892605     0.006375838988    -1.650746102516    12.000000000000
           H         -0.095242510519     2.178638038594     0.047337806192     1.007825032070
           H          0.014290496691     2.152079242644     2.482612196092     1.007825032070
           H          0.045319018995    -0.000961239449     3.721577306030     1.007825032070
           H          0.037542006780    -2.150457523220     2.477853297031     1.007825032070
           H          0.035188156989    -2.168412838694     0.041277361449     1.007825032070
           N         -0.280943653506    -1.104896327437    -2.348169686421    14.003074004780
           N          0.292379103926     1.098955034641    -2.340479433421    14.003074004780
           H          0.280563973015     1.127742359527    -3.355638171468     1.007825032070
           H          0.677091598770     1.910020611439    -1.876450083670     1.007825032070
           H         -0.681099749765    -1.922998555019    -1.906224060084     1.007825032070
           H         -0.166613083398    -1.144192747788    -3.354449091350     1.007825032070

  Nuclear repulsion =  415.581811054670311

  ==> Basis Set <==

  Basis Set: 6-31G*
    Blend: 6-31G*
    Number of shells: 72
    Number of basis function: 153
    Number of Cartesian functions: 153
    Spherical Harmonics?: false
    Max angular momentum: 2

  ==> DFJKGrad: Density-Fitted SCF Gradients <==

    Gradient:                    1
    J tasked:                  Yes
    K tasked:                  Yes
    wK tasked:                  No
    OpenMP threads:              1
    Integrals threads:           1
    Memory (MB):              2250
    Schwarz Cutoff:          0E+00
    Fitting Condition:       1E-12

   => Auxiliary Basis Set <=

  Basis Set: (6-31G* AUX)
    Blend: CC-PVDZ-JKFIT
    Number of shells: 297
    Number of basis function: 954
    Number of Cartesian functions: 954
    Spherical Harmonics?: false
    Max angular momentum: 3

  ==> DFT Potential <==

   => B3LYP Composite Functional <= 

    B3LYP Hybrid-GGA Exchange-Correlation Functional (VWN1-RPA)

    P.J. Stephens et. al., J. Phys. Chem., 98, 11623-11627, 1994

    Points   =           5000
    Deriv    =              1
    GGA      =           TRUE
    Meta     =          FALSE

    X_LRC        =          FALSE
    X_Hybrid     =           TRUE
    X_Alpha      =   2.000000E-01
    X_Omega      =   0.000000E+00
    C_LRC        =          FALSE
    C_Hybrid     =          FALSE
    C_Alpha      =   0.000000E+00
    C_Omega      =   0.000000E+00

   => Exchange Functionals <=

    0.8000    B3_X
    0.2000      HF 

   => Correlation Functionals <=

    0.1900 VWN3RPA_C
    0.8100   LYP_C

   => Molecular Quadrature <=

    Radial Scheme    =       TREUTLER
    Pruning Scheme   =           FLAT
    Nuclear Scheme   =       TREUTLER

    BS radius alpha  =              1
    Pruning alpha    =              1
    Radial Points    =             75
    Spherical Points =            302
    Total Points     =         396693
    Total Blocks     =            354
    Max Points       =           4968
    Max Functions    =            151


  -Total Gradient:
     Atom            X                  Y                   Z
    ------   -----------------  -----------------  -----------------
       1       -0.004252081404     0.000386243218     0.002447848225
       2        0.004541068354    -0.000123092361     0.001654939945
       3        0.000230286769     0.000259235853     0.000410537351
       4       -0.000260466257    -0.000331073920    -0.001090298804
       5       -0.000357183445     0.000161766205     0.000308102774
       6        0.000401895029    -0.000672084850     0.002980859051
       7       -0.009717577897    -0.000764892646    -0.000106686701
       8        0.000288870597     0.000155744037     0.001118358892
       9       -0.000109147468    -0.000127726396     0.000347424315
      10        0.000113653674    -0.000113022642     0.000180422052
      11        0.000041949959    -0.000397637291     0.000702485300
      12        0.000547375931    -0.000300724663     0.001190538360
      13        0.006099511040     0.002922573790    -0.003563001552
      14        0.001010948067    -0.000553480317    -0.003184416100
      15        0.000424591279     0.000538900656    -0.002804636293
      16        0.000569095947     0.000254506164    -0.000503185475
      17       -0.000041155620    -0.001422139010     0.000853948214
      18        0.000466471706     0.000130702418    -0.000954515434


*** tstop() called on computer05 at Tue Dec 12 14:46:02 2017
Module time:
	user time   =      21.15 seconds =       0.35 minutes
	system time =       0.16 seconds =       0.00 minutes
	total time  =         22 seconds =       0.37 minutes
Total time:
	user time   =     213.82 seconds =       3.56 minutes
	system time =       1.61 seconds =       0.03 minutes
	total time  =        217 seconds =       3.62 minutes

			-----------------------------------------
			 OPTKING 2.0: for geometry optimizations 
			  - R.A. King,  Bethel University        
			-----------------------------------------
	At level 1: Red. Int., RFO, no backsteps, dynamic trust

	Previous internal coordinate definitions found.
	---Fragment 1 Geometry and Gradient---
	 C          -0.1351317811        0.0109459044       -0.3234076946
	 C          -0.0659146039        2.3022844596        1.0402624958
	 C           0.0077824629        2.2907372472        3.6669410947
	 C           0.0304842752        0.0015388742        4.9813989402
	 C           0.0068967966       -2.2840004788        3.6626736753
	 C          -0.0486676550       -2.2872885357        1.0364175941
	 C          -0.0949245202        0.0120485896       -3.1194580487
	 H          -0.1799822611        4.1170292356        0.0894554894
	 H           0.0270051250        4.0668403849        4.6914571448
	 H           0.0856405345       -0.0018164793        7.0327618908
	 H           0.0709441113       -4.0637757793        4.6824641289
	 H           0.0664959798       -4.0977064082        0.0780029086
	 N          -0.5309065639       -2.0879514641       -4.4373976209
	 N           0.5525164334        2.0767240478       -4.4228651488
	 H           0.5301890718        2.1311242080       -6.3412371451
	 H           1.2795176886        3.6094158638       -3.5459767602
	 H          -1.2870919962       -3.6339406229       -3.6022414215
	 H          -0.3148530978       -2.1622109366       -6.3389901094
	            -0.0042520814        0.0003862432        0.0024478482
	             0.0045410684       -0.0001230924        0.0016549399
	             0.0002302868        0.0002592359        0.0004105374
	            -0.0002604663       -0.0003310739       -0.0010902988
	            -0.0003571834        0.0001617662        0.0003081028
	             0.0004018950       -0.0006720849        0.0029808591
	            -0.0097175779       -0.0007648926       -0.0001066867
	             0.0002888706        0.0001557440        0.0011183589
	            -0.0001091475       -0.0001277264        0.0003474243
	             0.0001136537       -0.0001130226        0.0001804221
	             0.0000419500       -0.0003976373        0.0007024853
	             0.0005473759       -0.0003007247        0.0011905384
	             0.0060995110        0.0029225738       -0.0035630016
	             0.0010109481       -0.0005534803       -0.0031844161
	             0.0004245913        0.0005389007       -0.0028046363
	             0.0005690959        0.0002545062       -0.0005031855
	            -0.0000411556       -0.0014221390        0.0008539482
	             0.0004664717        0.0001307024       -0.0009545154

	---Fragment 1 Intrafragment Coordinates---
	 - Coordinate -           - BOHR/RAD -       - ANG/DEG -
	 R(1,2)           =         2.667324	       1.411487
	 R(1,6)           =         2.671794	       1.413852
	 R(1,7)           =         2.796340	       1.479759
	 R(2,3)           =         2.627738	       1.390539
	 R(2,8)           =         2.051912	       1.085825
	 R(3,4)           =         2.639838	       1.396942
	 R(3,9)           =         2.050499	       1.085077
	 R(4,5)           =         2.638803	       1.396395
	 R(4,10)          =         2.052107	       1.085928
	 R(5,6)           =         2.626846	       1.390067
	 R(5,11)          =         2.052237	       1.085997
	 R(6,12)          =         2.051691	       1.085708
	 R(7,13)          =         2.517349	       1.332124
	 R(7,14)          =         2.526051	       1.336729
	 R(13,17)         =         1.912952	       1.012291
	 R(13,18)         =         1.915267	       1.013516
	 R(14,15)         =         1.919273	       1.015636
	 R(14,16)         =         1.909609	       1.010522
	 B(1,2,3)         =         2.103654	     120.530505
	 B(1,2,8)         =         2.119293	     121.426569
	 B(1,6,5)         =         2.104180	     120.560605
	 B(1,6,12)        =         2.121274	     121.540074
	 B(1,7,13)        =         2.118431	     121.377160
	 B(1,7,14)        =         2.117577	     121.328243
	 B(2,1,6)         =         2.069046	     118.547616
	 B(2,1,7)         =         2.106546	     120.696171
	 B(2,3,4)         =         2.096455	     120.117997
	 B(2,3,9)         =         2.089665	     119.728958
	 B(3,2,8)         =         2.058541	     117.945717
	 B(3,4,5)         =         2.096900	     120.143537
	 B(3,4,10)        =         2.093702	     119.960296
	 B(4,3,9)         =         2.097008	     120.149724
	 B(4,5,6)         =         2.095440	     120.059872
	 B(4,5,11)        =         2.097316	     120.167366
	 B(5,4,10)        =         2.092533	     119.893311
	 B(5,6,12)        =         2.056631	     117.836265
	 B(6,1,7)         =         2.104560	     120.582410
	 B(6,5,11)        =         2.090220	     119.760768
	 B(7,13,17)       =         2.110728	     120.935820
	 B(7,13,18)       =         2.132480	     122.182115
	 B(7,14,15)       =         2.136404	     122.406956
	 B(7,14,16)       =         2.113744	     121.108606
	 B(13,7,14)       =         2.044397	     117.135341
	 B(15,14,16)      =         2.027132	     116.146091
	 B(17,13,18)      =         2.033892	     116.533439
	 D(1,2,3,4)       =         0.007262	       0.416098
	 D(1,2,3,9)       =        -3.122778	    -178.921999
	 D(1,6,5,4)       =        -0.023186	      -1.328462
	 D(1,6,5,11)      =         3.140355	     179.929080
	 D(1,7,13,17)     =         0.246323	      14.113290
	 D(1,7,13,18)     =        -3.017717	    -172.902425
	 D(1,7,14,15)     =        -3.102473	    -177.758621
	 D(1,7,14,16)     =         0.160213	       9.179502
	 D(2,1,6,5)       =         0.041731	       2.391001
	 D(2,1,6,12)      =        -3.048365	    -174.658428
	*D(2,1,7,13)      =        -2.967060	    -170.000026
	 D(2,1,7,14)      =         0.256889	      14.718668
	 D(2,3,4,5)       =         0.012107	       0.693705
	 D(2,3,4,10)      =        -3.140224	    -179.921584
	 D(3,2,1,6)       =        -0.033736	      -1.932906
	 D(3,2,1,7)       =        -3.092187	    -177.169260
	 D(3,4,5,6)       =        -0.004132	      -0.236746
	 D(3,4,5,11)      =         3.115422	     178.500555
	 D(4,3,2,8)       =         3.087174	     176.882068
	 D(4,5,6,12)      =         3.068775	     175.827867
	 D(5,4,3,9)       =        -3.141087	    -179.971003
	 D(5,6,1,7)       =         3.100280	     177.632967
	 D(6,1,2,8)       =        -3.111470	    -178.274120
	 D(6,1,7,13)      =         0.259370	      14.860806
	 D(6,1,7,14)      =        -2.799866	    -160.420499
	 D(6,5,4,10)      =        -3.134993	    -179.621871
	 D(7,1,2,8)       =         0.113264	       6.489527
	 D(7,1,6,12)      =         0.010185	       0.583538
	 D(8,2,3,9)       =        -0.042866	      -2.456029
	 D(9,3,4,10)      =        -0.010233	      -0.586292
	 D(10,4,5,11)     =        -0.015439	      -0.884570
	 D(11,5,6,12)     =        -0.050869	      -2.914591
	 D(13,7,14,15)    =         0.118121	       6.767863
	 D(13,7,14,16)    =        -2.902378	    -166.294013
	 D(14,7,13,17)    =        -2.974313	    -170.415554
	 D(14,7,13,18)    =         0.044833	       2.568731

	Current energy   :      -381.4670773687

	Energy change for the previous step:
		Projected    :        -0.0029454435
		Actual       :        -0.0009352054

	Performing BFGS update.
	Previous computed or guess Hessian on step 1.
	Steps to be used in Hessian update: 1
	Taking RFO optimization step.
	Going to follow RFO solution 1.
	Using RFO vector 1.
	Norm of target step-size    0.08068
	Projected energy change by RFO approximation:        -0.0015127663

	Back-transformation to cartesian coordinates...
	Could not converge backtransformation.
	Using first guess instead.

	Back-transformation to cartesian coordinates to adjust frozen coordinates...
	Successfully converged to displaced geometry.

	--- Internal Coordinate Step in ANG or DEG, aJ/ANG or AJ/DEG ---
	 ---------------------------------------------------------------------------
	   Coordinate                Previous        Force       Change         New 
	   ----------                --------       ------       ------       ------
	    1 R(1,2)          =      1.411487    -0.022189    -0.002152     1.409336
	    2 R(1,6)          =      1.413852    -0.036108    -0.004197     1.409655
	    3 R(1,7)          =      1.479759    -0.084368    -0.009654     1.470106
	    4 R(2,3)          =      1.390539    -0.005082    -0.000714     1.389825
	    5 R(2,8)          =      1.085825     0.003270    -0.000031     1.085794
	    6 R(3,4)          =      1.396942     0.006327     0.000429     1.397371
	    7 R(3,9)          =      1.085077    -0.000512    -0.000052     1.085025
	    8 R(4,5)          =      1.396395     0.012097     0.001137     1.397532
	    9 R(4,10)         =      1.085928    -0.001518    -0.000301     1.085628
	   10 R(5,6)          =      1.390067    -0.001909    -0.000294     1.389773
	   11 R(5,11)         =      1.085997    -0.005731    -0.000962     1.085035
	   12 R(6,12)         =      1.085708     0.002144    -0.000124     1.085584
	   13 R(7,13)         =      1.332124     0.004721     0.000297     1.332420
	   14 R(7,14)         =      1.336729    -0.033435    -0.003608     1.333121
	   15 R(13,17)        =      1.012291    -0.012678    -0.002146     1.010144
	   16 R(13,18)        =      1.013516    -0.008195    -0.001072     1.012443
	   17 R(14,15)        =      1.015636    -0.023176    -0.003109     1.012526
	   18 R(14,16)        =      1.010522    -0.001565    -0.000420     1.010102
	   19 B(1,2,3)        =    120.530505    -0.000090    -0.175267   120.355238
	   20 B(1,2,8)        =    121.426569    -0.000039    -0.112172   121.314397
	   21 B(1,6,5)        =    120.560605    -0.000119    -0.253191   120.307414
	   22 B(1,6,12)       =    121.540074    -0.000034    -0.131592   121.408482
	   23 B(1,7,13)       =    121.377160    -0.000285    -0.508214   120.868945
	   24 B(1,7,14)       =    121.328243    -0.000361    -0.661696   120.666547
	   25 B(2,1,6)        =    118.547616     0.000282     0.469489   119.017104
	   26 B(2,1,7)        =    120.696171    -0.000131    -0.255031   120.441140
	   27 B(2,3,4)        =    120.117997    -0.000040    -0.057034   120.060963
	   28 B(2,3,9)        =    119.728958    -0.000008    -0.059183   119.669774
	   29 B(3,2,8)        =    117.945717     0.000129     0.285206   118.230923
	   30 B(3,4,5)        =    120.143537    -0.000027    -0.010572   120.132965
	   31 B(3,4,10)       =    119.960296     0.000005    -0.031355   119.928942
	   32 B(4,3,9)        =    120.149724     0.000048     0.117847   120.267572
	   33 B(4,5,6)        =    120.059872    -0.000006     0.035820   120.095692
	   34 B(4,5,11)       =    120.167366     0.000035     0.087433   120.254799
	   35 B(5,4,10)       =    119.893311     0.000022     0.043640   119.936952
	   36 B(5,6,12)       =    117.836265     0.000153     0.386004   118.222270
	   37 B(6,1,7)        =    120.582410    -0.000152    -0.261911   120.320499
	   38 B(6,5,11)       =    119.760768    -0.000029    -0.120369   119.640399
	   39 B(7,13,17)      =    120.935820    -0.000009    -0.019532   120.916288
	   40 B(7,13,18)      =    122.182115     0.000021    -0.004880   122.177236
	   41 B(7,14,15)      =    122.406956    -0.000026    -0.150073   122.256883
	   42 B(7,14,16)      =    121.108606    -0.000029    -0.048472   121.060134
	   43 B(13,7,14)      =    117.135341     0.000650     1.263523   118.398864
	   44 B(15,14,16)     =    116.146091     0.000059     0.269810   116.415901
	   45 B(17,13,18)     =    116.533439    -0.000017    -0.141484   116.391955
	   46 D(1,2,3,4)      =      0.416098     0.000001     0.056281     0.472379
	   47 D(1,2,3,9)      =   -178.921999    -0.000001    -0.133865  -179.055865
	   48 D(1,6,5,4)      =     -1.328462     0.000003     0.170938    -1.157524
	   49 D(1,6,5,11)     =    179.929080     0.000001     0.008441   179.937521
	   50 D(1,7,13,17)    =     14.113290     0.000004     0.154162    14.267452
	   51 D(1,7,13,18)    =   -172.902425    -0.000009    -1.356775  -174.259200
	   52 D(1,7,14,15)    =   -177.758621     0.000009     1.080526  -176.678095
	   53 D(1,7,14,16)    =      9.179502    -0.000001     0.292963     9.472465
	   54 D(2,1,6,5)      =      2.391001    -0.000003    -0.289432     2.101570
	   55 D(2,1,6,12)     =   -174.658428    -0.000004    -0.329227  -174.987654
	   56 *D(2,1,7,13)    =   -170.000026     0.000000    -0.000000  -170.000026
	   57 D(2,1,7,14)     =     14.718668    -0.000021    -1.725095    12.993573
	   58 D(2,3,4,5)      =      0.693705    -0.000002    -0.192618     0.501088
	   59 D(2,3,4,10)     =   -179.921584    -0.000000     0.033770  -179.887814
	   60 D(3,2,1,6)      =     -1.932906     0.000001     0.173905    -1.759001
	   61 D(3,2,1,7)      =   -177.169260     0.000006     0.797080  -176.372179
	   62 D(3,4,5,6)      =     -0.236746     0.000001     0.079126    -0.157620
	   63 D(3,4,5,11)     =    178.500555     0.000002     0.239992   178.740548
	   64 D(4,3,2,8)      =    176.882068    -0.000000     0.012253   176.894322
	   65 D(4,5,6,12)     =    175.827867     0.000003     0.195236   176.023104
	   66 D(5,4,3,9)      =   -179.971003    -0.000001    -0.002512  -179.973515
	   67 D(5,6,1,7)      =    177.632967    -0.000008    -0.911554   176.721413
	   68 D(6,1,2,8)      =   -178.274120     0.000000     0.205236  -178.068883
	   69 D(6,1,7,13)     =     14.860806     0.000000     0.596468    15.457274
	   70 D(6,1,7,14)     =   -160.420499    -0.000021    -1.128627  -161.549126
	   71 D(6,5,4,10)     =   -179.621871    -0.000002    -0.146816  -179.768687
	   72 D(7,1,2,8)      =      6.489527     0.000005     0.828412     7.317939
	   73 D(7,1,6,12)     =      0.583538    -0.000009    -0.951349    -0.367811
	   74 D(8,2,3,9)      =     -2.456029    -0.000002    -0.177894    -2.633923
	   75 D(9,3,4,10)     =     -0.586292     0.000002     0.223876    -0.362416
	   76 D(10,4,5,11)    =     -0.884570    -0.000000     0.014050    -0.870520
	   77 D(11,5,6,12)    =     -2.914591     0.000001     0.032740    -2.881851
	   78 D(13,7,14,15)   =      6.767863    -0.000002    -0.524960     6.242903
	   79 D(13,7,14,16)   =   -166.294013    -0.000012    -1.312523  -167.606537
	   80 D(14,7,13,17)   =   -170.415554     0.000014     1.755853  -168.659701
	   81 D(14,7,13,18)   =      2.568731     0.000001     0.244916     2.813647
	 ---------------------------------------------------------------------------
	Successfully symmetrized geometry.

  ==> Convergence Check <==

  Measures of convergence in internal coordinates in au.
  Criteria marked as inactive (o), active & met (*), and active & unmet ( ).
  ---------------------------------------------------------------------------------------------
   Step     Total Energy     Delta E     MAX Force     RMS Force      MAX Disp      RMS Disp   
  ---------------------------------------------------------------------------------------------
    Convergence Criteria    1.00e-06 *    3.00e-04 *             o    1.20e-03 *             o
  ---------------------------------------------------------------------------------------------
      2    -381.46707737   -9.35e-04      1.02e-02      1.96e-03 o    3.06e-02      8.97e-03 o  ~
  ---------------------------------------------------------------------------------------------

	Writing optimization data to binary file.
	Structure for next step:
	Cartesian Geometry (in Angstrom)
	    C    -0.0721450089   0.0025572034  -0.1757092844
	    C    -0.0331730307   1.2169369896   0.5384267444
	    C     0.0074044753   1.2137942809   1.9276552150
	    C     0.0197297137   0.0028262067   2.6248290036
	    C     0.0018822166  -1.2082767239   1.9276869747
	    C    -0.0315006623  -1.2122008179   0.5383207006
	    C    -0.0348995028   0.0011953041  -1.6453424569
	    H    -0.0935671009   2.1736508686   0.0285256526
	    H     0.0216491783   2.1553463309   2.4666871862
	    H     0.0496011032   0.0028841442   3.7100455895
	    H     0.0319982867  -2.1496558933   2.4663885011
	    H     0.0216877809  -2.1679323443   0.0262265836
	    N    -0.2687869359  -1.1151691464  -2.3340881995
	    N     0.2922547898   1.1045502464  -2.3182383036
	    H     0.2779064006   1.1447881065  -3.3298630939
	    H     0.6562592446   1.9171613193  -1.8413008777
	    H    -0.6810989670  -1.9228191054  -1.8890126764
	    H    -0.1652019814  -1.1596379694  -3.3402362588
			--------------------------
			 OPTKING Finished Execution 
			--------------------------

    Structure for next step:
    Molecular point group: c1
    Full point group: C1

    Geometry (in Angstrom), charge = 1, multiplicity = 1:

    C           -0.072145008929     0.002557203436    -0.175709284410
    C           -0.033173030712     1.216936989590     0.538426744373
    C            0.007404475332     1.213794280912     1.927655215022
    C            0.019729713736     0.002826206671     2.624829003619
    C            0.001882216619    -1.208276723946     1.927686974664
    C           -0.031500662284    -1.212200817917     0.538320700564
    C           -0.034899502796     0.001195304059    -1.645342456931
    H           -0.093567100889     2.173650868581     0.028525652602
    H            0.021649178322     2.155346330945     2.466687186189
    H            0.049601103187     0.002884144170     3.710045589478
    H            0.031998286730    -2.149655893285     2.466388501146
    H            0.021687780938    -2.167932344272     0.026226583620
    N           -0.268786935871    -1.115169146355    -2.334088199462
    N            0.292254789842     1.104550246396    -2.318238303576
    H            0.277906400597     1.144788106534    -3.329863093934
    H            0.656259244556     1.917161319278    -1.841300877713
    H           -0.681098966984    -1.922819105406    -1.889012676412
    H           -0.165201981392    -1.159637969390    -3.340236258841

gradient() will perform analytic gradient computation.

*** tstart() called on computer05
*** at Tue Dec 12 14:46:02 2017

   => Loading Basis Set <=

    Name: 6-31G*
    Role: ORBITAL
    Keyword: BASIS
    atoms 1-7         entry C          line   102 file /opt/acellera/miniconda3/share/psi4/basis/6-31gs.gbs 
    atoms 8-12, 15-18 entry H          line    35 file /opt/acellera/miniconda3/share/psi4/basis/6-31gs.gbs 
    atoms 13-14       entry N          line   119 file /opt/acellera/miniconda3/share/psi4/basis/6-31gs.gbs 


         ---------------------------------------------------------
                                   SCF
            by Justin Turney, Rob Parrish, and Andy Simmonett
                              RKS Reference
                        1 Threads,   3000 MiB Core
         ---------------------------------------------------------

  ==> Geometry <==

    Molecular point group: c1
    Full point group: C1

    Geometry (in Angstrom), charge = 1, multiplicity = 1:

       Center              X                  Y                   Z               Mass       
    ------------   -----------------  -----------------  -----------------  -----------------
           C         -0.072145008929     0.002557203436    -0.175709284410    12.000000000000
           C         -0.033173030712     1.216936989590     0.538426744373    12.000000000000
           C          0.007404475332     1.213794280912     1.927655215022    12.000000000000
           C          0.019729713736     0.002826206671     2.624829003619    12.000000000000
           C          0.001882216619    -1.208276723946     1.927686974664    12.000000000000
           C         -0.031500662284    -1.212200817917     0.538320700564    12.000000000000
[...]
	            -0.0000287623        0.0000023130        0.0000064211
	            -0.0050533266        0.0015552238       -0.0001227024
	            -0.0000060660       -0.0000007740       -0.0000052740
	            -0.0000012551        0.0000016026       -0.0000034145
	            -0.0000011308        0.0000011601       -0.0000009975
	            -0.0000022268       -0.0000020761       -0.0000042758
	            -0.0000019322       -0.0000015994        0.0000027867
	             0.0050632288       -0.0011225279        0.0001216733
	             0.0000310282       -0.0000147809       -0.0000102470
	            -0.0000044417        0.0000025184        0.0000005724
	            -0.0000096153        0.0000053334        0.0000103584
	            -0.0000000012        0.0000008524       -0.0000010352
	            -0.0000047431       -0.0000027191       -0.0000002367

	---Fragment 1 Intrafragment Coordinates---
	 - Coordinate -           - BOHR/RAD -       - ANG/DEG -
	 R(1,2)           =         2.663716	       1.409578
	 R(1,6)           =         2.663648	       1.409542
	 R(1,7)           =         2.774781	       1.468351
	 R(2,3)           =         2.626284	       1.389770
	 R(2,8)           =         2.052453	       1.086111
	 R(3,4)           =         2.641583	       1.397865
	 R(3,9)           =         2.050389	       1.085019
	 R(4,5)           =         2.640902	       1.397505
	 R(4,10)          =         2.051483	       1.085598
	 R(5,6)           =         2.627034	       1.390166
	 R(5,11)          =         2.050422	       1.085037
	 R(6,12)          =         2.051456	       1.085584
	 R(7,13)          =         2.519470	       1.333246
	 R(7,14)          =         2.517365	       1.332132
	 R(13,17)         =         1.909384	       1.010402
	 R(13,18)         =         1.913684	       1.012678
	 R(14,15)         =         1.913515	       1.012589
	 R(14,16)         =         1.908689	       1.010035
	 B(1,2,3)         =         2.100272	     120.336704
	 B(1,2,8)         =         2.115007	     121.180950
	 B(1,6,5)         =         2.099547	     120.295178
	 B(1,6,12)        =         2.116917	     121.290384
	 B(1,7,13)        =         2.107351	     120.742323
	 B(1,7,14)        =         2.106621	     120.700506
	 B(2,1,6)         =         2.077802	     119.049270
	 B(2,1,7)         =         2.103090	     120.498163
	 B(2,3,4)         =         2.095583	     120.068075
	 B(2,3,9)         =         2.088385	     119.655639
	 B(3,2,8)         =         2.065782	     118.360591
	 B(3,4,5)         =         2.096678	     120.130783
	 B(3,4,10)        =         2.093156	     119.929026
	 B(4,3,9)         =         2.099184	     120.274406
	 B(4,5,6)         =         2.096090	     120.097121
	 B(4,5,11)        =         2.099018	     120.264892
	 B(5,4,10)        =         2.093339	     119.939470
	 B(5,6,12)        =         2.065618	     118.351189
	 B(6,1,7)         =         2.098707	     120.247040
	 B(6,5,11)        =         2.087917	     119.628847
	 B(7,13,17)       =         2.106182	     120.675329
	 B(7,13,18)       =         2.131314	     122.115293
	 B(7,14,15)       =         2.134479	     122.296615
	 B(7,14,16)       =         2.110276	     120.909884
	 B(13,7,14)       =         2.067590	     118.464153
	 B(15,14,16)      =         2.033086	     116.487237
	 B(17,13,18)      =         2.029012	     116.253839
	 D(1,2,3,4)       =         0.008765	       0.502177
	 D(1,2,3,9)       =        -3.124148	    -179.000478
	 D(1,6,5,4)       =        -0.018343	      -1.051001
	 D(1,6,5,11)      =        -3.140794	    -179.954247
	 D(1,7,13,17)     =         0.285886	      16.380052
	 D(1,7,13,18)     =        -3.058274	    -175.226208
	 D(1,7,14,15)     =        -3.086177	    -176.824909
	 D(1,7,14,16)     =         0.170265	       9.755466
	 D(2,1,6,5)       =         0.031889	       1.827107
	 D(2,1,6,12)      =        -3.058390	    -175.232811
	*D(2,1,7,13)      =        -2.967060	    -170.000026
	 D(2,1,7,14)      =         0.236678	      13.560626
	 D(2,3,4,5)       =         0.005213	       0.298675
	 D(2,3,4,10)      =         3.141412	     179.989632
	 D(3,2,1,6)       =        -0.027101	      -1.552780
	 D(3,2,1,7)       =        -3.078003	    -176.356602
	 D(3,4,5,6)       =        -0.000411	      -0.023543
	 D(3,4,5,11)      =         3.121917	     178.872665
	 D(4,3,2,8)       =         3.081173	     176.538228
	 D(4,5,6,12)      =         3.073424	     176.094204
	 D(5,4,3,9)       =         3.138071	     179.798223
	 D(5,6,1,7)       =         3.083025	     176.644294
	 D(6,1,2,8)       =        -3.097530	    -177.475410
	 D(6,1,7,13)      =         0.266312	      15.258528
	 D(6,1,7,14)      =        -2.813136	    -161.180820
	 D(6,5,4,10)      =        -3.136609	    -179.714468
	 D(7,1,2,8)       =         0.134753	       7.720769
	 D(7,1,6,12)      =        -0.007254	      -0.415624
	 D(8,2,3,9)       =        -0.051739	      -2.964426
	 D(9,3,4,10)      =        -0.008915	      -0.510819
	 D(10,4,5,11)     =        -0.014281	      -0.818260
	 D(11,5,6,12)     =        -0.049027	      -2.809042
	 D(13,7,14,15)    =         0.116171	       6.656095
	 D(13,7,14,16)    =        -2.910573	    -166.763531
	 D(14,7,13,17)    =        -2.916488	    -167.102463
	 D(14,7,13,18)    =         0.022537	       1.291277

	Current energy   :      -381.4675267740

	Energy change for the previous step:
		Projected    :        -0.0000001653
		Actual       :        -0.0000000953

	Performing BFGS update.
	Previous computed or guess Hessian on step 1.
	Steps to be used in Hessian update: 6 5
	Taking RFO optimization step.
	Going to follow RFO solution 1.
	Rejecting RFO root 1 because normalization gives large value.
	Rejecting RFO root 2 because normalization gives large value.
	Rejecting RFO root 3 because normalization gives large value.
	Using RFO vector 4.
	Norm of target step-size    0.00939
	Projected energy change by RFO approximation:         0.0000001726

	Back-transformation to cartesian coordinates...
	Could not converge backtransformation.
	Using first guess instead.

	Back-transformation to cartesian coordinates to adjust frozen coordinates...
	Successfully converged to displaced geometry.

	--- Internal Coordinate Step in ANG or DEG, aJ/ANG or AJ/DEG ---
	 ---------------------------------------------------------------------------
	   Coordinate                Previous        Force       Change         New 
	   ----------                --------       ------       ------       ------
	    1 R(1,2)          =      1.409578    -0.000106    -0.000102     1.409476
	    2 R(1,6)          =      1.409542    -0.000023    -0.000057     1.409485
	    3 R(1,7)          =      1.468351     0.000006     0.000261     1.468612
	    4 R(2,3)          =      1.389770     0.000130     0.000049     1.389819
	    5 R(2,8)          =      1.086111    -0.000016    -0.000017     1.086095
	    6 R(3,4)          =      1.397865    -0.000016     0.000056     1.397921
	    7 R(3,9)          =      1.085019     0.000002     0.000002     1.085022
	    8 R(4,5)          =      1.397505     0.000051     0.000070     1.397575
	    9 R(4,10)         =      1.085598     0.000006     0.000010     1.085608
	   10 R(5,6)          =      1.390166     0.000007    -0.000021     1.390146
	   11 R(5,11)         =      1.085037     0.000001     0.000001     1.085037
	   12 R(6,12)         =      1.085584     0.000000    -0.000014     1.085570
	   13 R(7,13)         =      1.333246    -0.000105     0.000044     1.333290
	   14 R(7,14)         =      1.332132     0.000023     0.000022     1.332154
	   15 R(13,17)        =      1.010402     0.000007     0.000022     1.010424
	   16 R(13,18)        =      1.012678     0.000003     0.000008     1.012686
	   17 R(14,15)        =      1.012589     0.000006     0.000003     1.012591
	   18 R(14,16)        =      1.010035    -0.000047     0.000018     1.010053
	   19 B(1,2,3)        =    120.336704    -0.000000    -0.035704   120.300999
	   20 B(1,2,8)        =    121.180950     0.000001     0.024180   121.205130
	   21 B(1,6,5)        =    120.295178    -0.000000    -0.027366   120.267812
	   22 B(1,6,12)       =    121.290384    -0.000000    -0.008025   121.282359
	   23 B(1,7,13)       =    120.742323    -0.000000    -0.003958   120.738366
	   24 B(1,7,14)       =    120.700506     0.000001     0.021155   120.721661
	   25 B(2,1,6)        =    119.049270     0.000001     0.052764   119.102034
	   26 B(2,1,7)        =    120.498163     0.000000    -0.028262   120.469901
	   27 B(2,3,4)        =    120.068075     0.000000    -0.000398   120.067677
	   28 B(2,3,9)        =    119.655639     0.000000     0.008349   119.663987
	   29 B(3,2,8)        =    118.360591    -0.000000     0.006974   118.367565
	   30 B(3,4,5)        =    120.130783    -0.000000     0.015887   120.146670
	   31 B(3,4,10)       =    119.929026     0.000000    -0.007455   119.921570
	   32 B(4,3,9)        =    120.274406    -0.000000    -0.008205   120.266202
	   33 B(4,5,6)        =    120.097121    -0.000000    -0.006435   120.090686
	   34 B(4,5,11)       =    120.264892    -0.000000     0.001389   120.266280
	   35 B(5,4,10)       =    119.939470    -0.000000    -0.008034   119.931436
	   36 B(5,6,12)       =    118.351189     0.000000     0.036239   118.387427
	   37 B(6,1,7)        =    120.247040    -0.000001    -0.021807   120.225233
	   38 B(6,5,11)       =    119.628847     0.000000     0.005961   119.634809
	   39 B(7,13,17)      =    120.675329     0.000000    -0.018699   120.656630
	   40 B(7,13,18)      =    122.115293    -0.000000    -0.021844   122.093450
	   41 B(7,14,15)      =    122.296615    -0.000000    -0.008859   122.287756
	   42 B(7,14,16)      =    120.909884     0.000001     0.000806   120.910690
	   43 B(13,7,14)      =    118.464153    -0.000000    -0.021121   118.443031
	   44 B(15,14,16)     =    116.487237    -0.000000    -0.008963   116.478274
	   45 B(17,13,18)     =    116.253839     0.000000    -0.010344   116.243495
	   46 D(1,2,3,4)      =      0.502177     0.000000     0.058957     0.561134
	   47 D(1,2,3,9)      =   -179.000478     0.000000     0.091566  -178.908912
	   48 D(1,6,5,4)      =     -1.051001    -0.000000     0.030884    -1.020118
	   49 D(1,6,5,11)     =   -179.954247    -0.000000    -0.025477  -179.979724
	   50 D(1,7,13,17)    =     16.380052    -0.000000     0.249355    16.629407
	   51 D(1,7,13,18)    =   -175.226208    -0.000000    -0.053381  -175.279589
	   52 D(1,7,14,15)    =   -176.824909     0.000000    -0.049286  -176.874195
	   53 D(1,7,14,16)    =      9.755466     0.000000     0.130967     9.886432
	   54 D(2,1,6,5)      =      1.827107     0.000000     0.032758     1.859865
	   55 D(2,1,6,12)     =   -175.232811     0.000000     0.011961  -175.220850
	   56 *D(2,1,7,13)    =   -170.000026     0.000000    -0.000000  -170.000026
	   57 D(2,1,7,14)     =     13.560626    -0.000000     0.074999    13.635624
	   58 D(2,3,4,5)      =      0.298675     0.000000     0.004148     0.302823
	   59 D(2,3,4,10)     =    179.989632    -0.000000     0.106288   180.095920
	   60 D(3,2,1,6)      =     -1.552780    -0.000000    -0.077625    -1.630406
	   61 D(3,2,1,7)      =   -176.356602    -0.000000    -0.110658  -176.467260
	   62 D(3,4,5,6)      =     -0.023543    -0.000000    -0.049075    -0.072618
	   63 D(3,4,5,11)     =    178.872665    -0.000000     0.007695   178.880360
	   64 D(4,3,2,8)      =    176.538228     0.000000    -0.013299   176.524929
	   65 D(4,5,6,12)     =    176.094204    -0.000000     0.049866   176.144070
	   66 D(5,4,3,9)      =    179.798223     0.000000    -0.028576   179.769648
	   67 D(5,6,1,7)      =    176.644294     0.000000     0.065352   176.709646
	   68 D(6,1,2,8)      =   -177.475410    -0.000000    -0.002505  -177.477915
	   69 D(6,1,7,13)     =     15.258528     0.000000    -0.037275    15.221253
	   70 D(6,1,7,14)     =   -161.180820    -0.000000     0.037724  -161.143096
	   71 D(6,5,4,10)     =   -179.714468     0.000000    -0.151226  -179.865694
	   72 D(7,1,2,8)      =      7.720769    -0.000000    -0.035538     7.685231
	   73 D(7,1,6,12)     =     -0.415624     0.000000     0.044554    -0.371069
	   74 D(8,2,3,9)      =     -2.964426    -0.000000     0.019310    -2.945116
	   75 D(9,3,4,10)     =     -0.510819     0.000000     0.073564    -0.437256
	   76 D(10,4,5,11)    =     -0.818260    -0.000000    -0.094456    -0.912716
	   77 D(11,5,6,12)    =     -2.809042     0.000000    -0.006495    -2.815537
	   78 D(13,7,14,15)   =      6.656095    -0.000000     0.023466     6.679561
	   79 D(13,7,14,16)   =   -166.763531     0.000000     0.203719  -166.559812
	   80 D(14,7,13,17)   =   -167.102463     0.000000     0.177498  -166.924965
	   81 D(14,7,13,18)   =      1.291277     0.000000    -0.125238     1.166039
	 ---------------------------------------------------------------------------
	Successfully symmetrized geometry.

  ==> Convergence Check <==

  Measures of convergence in internal coordinates in au.
  Criteria marked as inactive (o), active & met (*), and active & unmet ( ).
  ---------------------------------------------------------------------------------------------
   Step     Total Energy     Delta E     MAX Force     RMS Force      MAX Disp      RMS Disp   
  ---------------------------------------------------------------------------------------------
    Convergence Criteria    1.00e-06 *    3.00e-04 *             o    1.20e-03 *             o
  ---------------------------------------------------------------------------------------------
      7    -381.46752677   -9.53e-08 *    1.57e-05 *    5.54e-06 o    4.35e-03      1.04e-03 o  ~
  ---------------------------------------------------------------------------------------------


  **** Optimization is complete! (in 7 steps) ****

  ==> Optimization Summary <==

  Measures of convergence in internal coordinates in au.
  --------------------------------------------------------------------------------------------------------------- ~
   Step         Total Energy             Delta E       MAX Force       RMS Force        MAX Disp        RMS Disp  ~
  --------------------------------------------------------------------------------------------------------------- ~
      1    -381.466142163359   -381.466142163359      0.01280724      0.00273588      0.16719347      0.03288004  ~
      2    -381.467077368724     -0.000935205365      0.01024042      0.00196405      0.03064542      0.00896586  ~
      3    -381.467502442943     -0.000425074219      0.00103537      0.00024116      0.01734443      0.00429672  ~
      4    -381.467517558862     -0.000015115919      0.00062994      0.00016786      0.01431279      0.00251710  ~
      5    -381.467525355747     -0.000007796885      0.00035722      0.00006827      0.00675731      0.00143635  ~
      6    -381.467526678709     -0.000001322962      0.00009356      0.00001954      0.00134335      0.00030859  ~
      7    -381.467526773968     -0.000000095259      0.00001573      0.00000554      0.00435207      0.00104335  ~
  --------------------------------------------------------------------------------------------------------------- ~

	Writing optimization data to binary file.
	Final energy is   -381.4675267739684
	Final (previous) structure:
	Cartesian Geometry (in Angstrom)
	    C    -0.0710338311   0.0038974114  -0.1763039044
	    C    -0.0377606880   1.2182950255   0.5385676551
	    C     0.0031992509   1.2141888349   1.9277277450
	    C     0.0222177633   0.0023700948   2.6242629770
	    C     0.0064189857  -1.2082639400   1.9263119292
	    C    -0.0287678858  -1.2113383374   0.5365943359
	    C    -0.0339395680   0.0019946283  -1.6441851530
	    H    -0.1093718103   2.1738941405   0.0273538023
	    H     0.0121056658   2.1554703322   2.4673353791
	    H     0.0543866155   0.0017969816   3.7093840995
	    H     0.0395561693  -2.1500373018   2.4641495056
	    H     0.0247680372  -2.1655271154   0.0216669593
	    N    -0.2631690752  -1.1179543864  -2.3302701995
	    N     0.2985630974   1.1022678327  -2.3175472395
	    H     0.2864935783   1.1417701035  -3.3292929491
	    H     0.6706662942   1.9105111452  -1.8395801484
	    H    -0.7008160229  -1.9135373211  -1.8870704105
	    H    -0.1735165762  -1.1597991286  -3.3381033839
	Saving final (previous) structure.
			--------------------------
			 OPTKING Finished Execution 
			--------------------------

    Final optimized geometry and variables:
    Molecular point group: c1
    Full point group: C1

    Geometry (in Angstrom), charge = 1, multiplicity = 1:

    C           -0.071033831074     0.003897411374    -0.176303904418
    C           -0.037760687973     1.218295025525     0.538567655100
    C            0.003199250923     1.214188834862     1.927727745041
    C            0.022217763282     0.002370094818     2.624262976999
    C            0.006418985656    -1.208263940034     1.926311929233
    C           -0.028767885846    -1.211338337426     0.536594335945
    C           -0.033939568030     0.001994628311    -1.644185152967
    H           -0.109371810304     2.173894140537     0.027353802349
    H            0.012105665776     2.155470332226     2.467335379149
    H            0.054386615476     0.001796981642     3.709384099457
    H            0.039556169307    -2.150037301753     2.464149505604
    H            0.024768037196    -2.165527115403     0.021666959350
    N           -0.263169075227    -1.117954386391    -2.330270199461
    N            0.298563097350     1.102267832657    -2.317547239524
    H            0.286493578283     1.141770103505    -3.329292949058
    H            0.670666294242     1.910511145194    -1.839580148378
    H           -0.700816022858    -1.913537321087    -1.887070410513
    H           -0.173516576177    -1.159799128558    -3.338103383908

	Cleaning optimization helper files.


Properties will be evaluated at   0.000000,   0.000000,   0.000000 Bohr

Properties computed using the  density matrix

  Nuclear Dipole Moment: (a.u.)
     X:    -0.9183      Y:     0.0219      Z:     0.3004

  Electronic Dipole Moment: (a.u.)
     X:     0.9300      Y:    -0.0199      Z:    -2.4710

  Dipole Moment: (a.u.)
     X:     0.0116      Y:     0.0020      Z:    -2.1706     Total:     2.1707

  Dipole Moment: (Debye)
     X:     0.0295      Y:     0.0050      Z:    -5.5172     Total:     5.5173

  Quadrupole Moment: (Debye Ang)
    XX:   -53.7895     YY:   -33.9947     ZZ:   -12.6623
    XY:     3.8628     XZ:     0.0027     YZ:     0.1561

  Traceless Quadrupole Moment: (Debye Ang)
    XX:   -20.3074     YY:    -0.5125     ZZ:    20.8199
    XY:     3.8628     XZ:     0.0027     YZ:     0.1561

  Mulliken Charges: (a.u.)
   Center  Symbol    Alpha    Beta     Spin     Total
       1     C     2.93437  2.93437  0.00000  0.13126
       2     C     3.08874  3.08874  0.00000 -0.17748
       3     C     3.06166  3.06166  0.00000 -0.12332
       4     C     3.05128  3.05128  0.00000 -0.10256
       5     C     3.06108  3.06108  0.00000 -0.12215
       6     C     3.08494  3.08494  0.00000 -0.16988
       7     C     2.70845  2.70845  0.00000  0.58310
       8     H     0.41810  0.41810  0.00000  0.16380
       9     H     0.40500  0.40500  0.00000  0.19000
      10     H     0.40281  0.40281  0.00000  0.19437
      11     H     0.40497  0.40497  0.00000  0.19006
      12     H     0.41898  0.41898  0.00000  0.16204
      13     N     3.87293  3.87293  0.00000 -0.74587
      14     N     3.87288  3.87288  0.00000 -0.74576
      15     H     0.30595  0.30595  0.00000  0.38809
      16     H     0.30069  0.30069  0.00000  0.39861
      17     H     0.30110  0.30110  0.00000  0.39781
      18     H     0.30607  0.30607  0.00000  0.38786

   Total alpha = 32.00000, Total beta = 32.00000, Total charge =  1.00000


*** Psi4 exiting successfully. Buy a developer a beer!
