
    -----------------------------------------------------------------------
          Psi4: An Open-Source Ab Initio Electronic Structure Package
                               Psi4 1.1 release

                         Git: Rev {HEAD} add49b9 


    R. M. Parrish, L. A. Burns, D. G. A. Smith, A. C. Simmonett,
    A. E. DePrince III, E. G. Hohenstein, U. Bozkaya, A. Yu. Sokolov,
    R. Di Remigio, R. M. Richard, J. F. Gonthier, A. M. James,
    H. R. McAlexander, A. Kumar, M. Saitow, X. Wang, B. P. Pritchard,
    P. Verma, H. F. Schaefer III, K. Patkowski, R. A. King, E. F. Valeev,
    F. A. Evangelista, J. M. Turney, T. D. Crawford, and C. D. Sherrill,
    J. Chem. Theory Comput. in press (2017).
    (doi: 10.1021/acs.jctc.7b00174)

    -----------------------------------------------------------------------


    Psi4 started on: Friday, 11 August 2017 06:27PM

    Process ID:  28545
    PSIDATADIR: /home/raimis/opt/miniconda3/envs/htmd/share/psi4
    Memory:     500.0 MiB
    Threads:    1
    
  ==> Input File <==

--------------------------------------------------------------------------
set {
	reference rks
	basis 6-31G*
}


set_num_threads( 8 )
memory 2 gb

molecule MOL {
1 1

C	 -0.000000	 -0.000000	 -0.191639
C	 -1.158979	 0.380770	 0.510391
C	 -1.154374	 0.374286	 1.901670
C	 -0.000000	 0.000000	 2.596333
C	 1.154374	 -0.374286	 1.901670
C	 1.158979	 -0.380771	 0.510391
C	 -0.000000	 -0.000000	 -1.658508
H	 -2.070793	 0.630949	 -0.024627
H	 -2.052599	 0.650840	 2.444112
H	 -0.000000	 0.000000	 3.681982
H	 2.052599	 -0.650839	 2.444112
H	 2.070792	 -0.630949	 -0.024627
N	 -0.712589	 -0.905950	 -2.322235
N	 0.712590	 0.905950	 -2.322235
H	 0.673432	 1.006470	 -3.329771
H	 1.377190	 1.485970	 -1.827091
H	 -1.377189	 -1.485970	 -1.827091
H	 -0.673431	 -1.006470	 -3.329771

	symmetry c1
}
set optking { dynamic_level = 1 }
set optking {
	frozen_dihedral = ("
		2 1 7 13
	")
}

ee,wfn = optimize('b3lyp-d3', return_wfn=True)
oeprop( wfn, 'DIPOLE', 'QUADRUPOLE', 'MULLIKEN_CHARGES')
f=open( 'psi4out.xyz', 'w' )
f.write( "18  " )
f.write( str(ee) + "\n" )
f.write( MOL.save_string_xyz() )
f.close()
--------------------------------------------------------------------------
  Threads set to 8 by Python driver.

  Memory set to   1.863 GiB by Python driver.
gradient() will perform analytic gradient computation.

*** tstart() called on computer03
*** at Fri Aug 11 18:27:22 2017

   => Loading Basis Set <=

    Name: 6-31G*
    Role: ORBITAL
    Keyword: BASIS
    atoms 1-7         entry C          line   102 file /home/raimis/opt/miniconda3/envs/htmd/share/psi4/basis/6-31gs.gbs 
    atoms 8-12, 15-18 entry H          line    35 file /home/raimis/opt/miniconda3/envs/htmd/share/psi4/basis/6-31gs.gbs 
    atoms 13-14       entry N          line   119 file /home/raimis/opt/miniconda3/envs/htmd/share/psi4/basis/6-31gs.gbs 


         ---------------------------------------------------------
                                   SCF
            by Justin Turney, Rob Parrish, and Andy Simmonett
                              RKS Reference
                        8 Threads,   1907 MiB Core
         ---------------------------------------------------------

  ==> Geometry <==

    Molecular point group: c1
    Full point group: C1

    Geometry (in Angstrom), charge = 1, multiplicity = 1:

       Center              X                  Y                   Z               Mass       
    ------------   -----------------  -----------------  -----------------  -----------------
           C         -0.000000123979     0.000000090787    -0.191639316978    12.000000000000
           C         -1.158979123979     0.380770090787     0.510390683022    12.000000000000
           C         -1.154374123979     0.374286090787     1.901669683022    12.000000000000
           C         -0.000000123979     0.000000090787     2.596332683022    12.000000000000
           C          1.154373876021    -0.374285909213     1.901669683022    12.000000000000
           C          1.158978876021    -0.380770909213     0.510390683022    12.000000000000
           C         -0.000000123979     0.000000090787    -1.658508316978    12.000000000000
           H         -2.070793123979     0.630949090787    -0.024627316978     1.007825032070
           H         -2.052599123979     0.650840090787     2.444111683022     1.007825032070
           H         -0.000000123979     0.000000090787     3.681981683022     1.007825032070
           H          2.052598876021    -0.650838909213     2.444111683022     1.007825032070
           H          2.070791876021    -0.630948909213    -0.024627316978     1.007825032070
           N         -0.712589123979    -0.905949909213    -2.322235316978    14.003074004780
           N          0.712589876021     0.905950090787    -2.322235316978    14.003074004780
           H          0.673431876021     1.006470090787    -3.329771316978     1.007825032070
           H          1.377189876021     1.485970090787    -1.827091316978     1.007825032070
           H         -1.377189123979    -1.485969909213    -1.827091316978     1.007825032070
           H         -0.673431123979    -1.006469909213    -3.329771316978     1.007825032070

  Running in c1 symmetry.

  Rotational constants: A =      0.12190  B =      0.03737  C =      0.03282 [cm^-1]
  Rotational constants: A =   3654.48817  B =   1120.43596  C =    983.93833 [MHz]
  Nuclear repulsion =  416.017863699325801

  Charge       = 1
  Multiplicity = 1
  Electrons    = 64
  Nalpha       = 32
  Nbeta        = 32

  ==> Algorithm <==

  SCF Algorithm Type is DF.
  DIIS enabled.
  MOM disabled.
  Fractional occupation disabled.
  Guess Type is SAD.
  Energy threshold   = 1.00e-08
  Density threshold  = 1.00e-08
  Integral threshold = 0.00e+00

  ==> Primary Basis <==

  Basis Set: 6-31G*
    Blend: 6-31G*
    Number of shells: 72
    Number of basis function: 153
    Number of Cartesian functions: 153
    Spherical Harmonics?: false
    Max angular momentum: 2

  ==> DFT Potential <==

   => B3LYP Composite Functional <= 

    B3LYP Hybrid-GGA Exchange-Correlation Functional (VWN1-RPA)

    P.J. Stephens et. al., J. Phys. Chem., 98, 11623-11627, 1994

    Points   =           5000
    Deriv    =              1
    GGA      =           TRUE
    Meta     =          FALSE

    X_LRC        =          FALSE
    X_Hybrid     =           TRUE
    X_Alpha      =   2.000000E-01
    X_Omega      =   0.000000E+00
    C_LRC        =          FALSE
    C_Hybrid     =          FALSE
    C_Alpha      =   0.000000E+00
    C_Omega      =   0.000000E+00

   => Exchange Functionals <=

    0.8000    B3_X
    0.2000      HF 

   => Correlation Functionals <=

    0.1900 VWN3RPA_C
    0.8100   LYP_C

   => Molecular Quadrature <=

    Radial Scheme    =       TREUTLER
    Pruning Scheme   =           FLAT
    Nuclear Scheme   =       TREUTLER

    BS radius alpha  =              1
    Pruning alpha    =              1
    Radial Points    =             75
    Spherical Points =            302
    Total Points     =         397218
    Total Blocks     =            370
    Max Points       =           4846
    Max Functions    =            149

   => -D3ZERO: Empirical Dispersion <=

    Grimme's -D3 (zero-damping) Dispersion Correction
    Grimme S.; Antony J.; Ehrlich S.; Krieg H. (2010), J. Chem. Phys., 132: 154104

        S6 =   1.000000E+00
        S8 =   1.703000E+00
       SR6 =   1.261000E+00
    ALPHA6 =   1.400000E+01

   => Loading Basis Set <=

    Name: (6-31G* AUX)
    Role: JKFIT
    Keyword: DF_BASIS_SCF
    atoms 1-7         entry C          line   120 file /home/raimis/opt/miniconda3/envs/htmd/share/psi4/basis/cc-pvdz-jkfit.gbs 
    atoms 8-12, 15-18 entry H          line    50 file /home/raimis/opt/miniconda3/envs/htmd/share/psi4/basis/cc-pvdz-jkfit.gbs 
    atoms 13-14       entry N          line   170 file /home/raimis/opt/miniconda3/envs/htmd/share/psi4/basis/cc-pvdz-jkfit.gbs 

  ==> Pre-Iterations <==

   -------------------------------------------------------
    Irrep   Nso     Nmo     Nalpha   Nbeta   Ndocc  Nsocc
   -------------------------------------------------------
     A        153     153       0       0       0       0
   -------------------------------------------------------
    Total     153     153      32      32      32       0
   -------------------------------------------------------

  ==> Integral Setup <==

  ==> DFJK: Density-Fitted J/K Matrices <==

    J tasked:                  Yes
    K tasked:                  Yes
    wK tasked:                  No
    OpenMP threads:              8
    Integrals threads:           8
    Memory (MB):              1430
    Algorithm:                Core
    Integral Cache:           NONE
    Schwarz Cutoff:          1E-12
    Fitting Condition:       1E-12

   => Auxiliary Basis Set <=

  Basis Set: (6-31G* AUX)
    Blend: CC-PVDZ-JKFIT
    Number of shells: 297
    Number of basis function: 954
    Number of Cartesian functions: 954
    Spherical Harmonics?: false
    Max angular momentum: 3

  Minimum eigenvalue in the overlap matrix is 4.8838061607E-04.
  Using Symmetric Orthogonalization.

  SCF Guess: Superposition of Atomic Densities via on-the-fly atomic UHF.

  ==> Iterations <==

                           Total Energy        Delta E     RMS |[F,P]|

   @DF-RKS iter   0:  -379.33048541006758   -3.79330e+02   4.70380e-02 
   @DF-RKS iter   1:  -380.99543241460543   -1.66495e+00   1.21372e-02 
   @DF-RKS iter   2:  -380.91880610659547    7.66263e-02   1.31754e-02 DIIS
   @DF-RKS iter   3:  -381.45244299225277   -5.33637e-01   1.79091e-03 DIIS
   @DF-RKS iter   4:  -381.45827352578988   -5.83053e-03   1.17367e-03 DIIS
   @DF-RKS iter   5:  -381.46243956550455   -4.16604e-03   2.26906e-04 DIIS
   @DF-RKS iter   6:  -381.46259644224119   -1.56877e-04   7.33999e-05 DIIS
   @DF-RKS iter   7:  -381.46261468661305   -1.82444e-05   1.95447e-05 DIIS
   @DF-RKS iter   8:  -381.46261559388017   -9.07267e-07   4.24496e-06 DIIS
   @DF-RKS iter   9:  -381.46261568671264   -9.28325e-08   1.38726e-06 DIIS
   @DF-RKS iter  10:  -381.46261569165853   -4.94589e-09   3.67408e-07 DIIS
   @DF-RKS iter  11:  -381.46261569234900   -6.90477e-10   4.83025e-08 DIIS
   @DF-RKS iter  12:  -381.46261569235003   -1.02318e-12   3.89920e-08 DIIS
   @DF-RKS iter  13:  -381.46261569235514   -5.11591e-12   8.25231e-09 DIIS

  ==> Post-Iterations <==

    Orbital Energies (a.u.)
    -----------------------

    Doubly Occupied:                                                      

       1A    -14.575475     2A    -14.575467     3A    -10.504567  
       4A    -10.369366     5A    -10.350468     6A    -10.350460  
       7A    -10.334704     8A    -10.334421     9A    -10.333906  
      10A     -1.189701    11A     -1.097345    12A     -1.009680  
      13A     -0.924590    14A     -0.896349    15A     -0.846195  
      16A     -0.788474    17A     -0.767375    18A     -0.750842  
      19A     -0.729876    20A     -0.692984    21A     -0.668252  
      22A     -0.621544    23A     -0.619961    24A     -0.577781  
      25A     -0.574769    26A     -0.568790    27A     -0.514523  
      28A     -0.500273    29A     -0.491950    30A     -0.477385  
      31A     -0.404349    32A     -0.399688  

    Virtual:                                                              

      33A     -0.204206    34A     -0.160273    35A     -0.150145  
      36A     -0.112777    37A     -0.066212    38A     -0.066088  
      39A     -0.037092    40A     -0.031143    41A      0.009988  
      42A      0.015470    43A      0.024268    44A      0.058477  
      45A      0.059426    46A      0.072905    47A      0.139981  
      48A      0.145553    49A      0.164164    50A      0.181110  
      51A      0.202679    52A      0.216355    53A      0.293818  
      54A      0.344705    55A      0.356644    56A      0.376687  
      57A      0.390696    58A      0.396953    59A      0.404313  
      60A      0.425093    61A      0.446532    62A      0.452065  
      63A      0.452942    64A      0.469447    65A      0.474089  
      66A      0.480206    67A      0.483586    68A      0.504729  
      69A      0.514947    70A      0.538917    71A      0.547370  
      72A      0.566119    73A      0.594159    74A      0.647837  
      75A      0.663194    76A      0.678962    77A      0.681161  
      78A      0.692569    79A      0.702056    80A      0.710549  
      81A      0.731206    82A      0.753529    83A      0.778735  
      84A      0.789023    85A      0.813439    86A      0.832275  
      87A      0.854500    88A      0.938513    89A      0.970126  
      90A      1.012524    91A      1.018589    92A      1.022874  
      93A      1.027851    94A      1.069695    95A      1.131745  
      96A      1.192789    97A      1.204251    98A      1.283630  
      99A      1.287139   100A      1.328804   101A      1.330921  
     102A      1.354582   103A      1.364507   104A      1.386807  
     105A      1.436769   106A      1.441524   107A      1.498970  
     108A      1.606520   109A      1.620262   110A      1.661217  
     111A      1.665156   112A      1.740641   113A      1.760549  
     114A      1.803470   115A      1.821371   116A      1.846770  
     117A      1.891728   118A      1.908639   119A      1.961412  
     120A      1.987189   121A      1.999938   122A      2.006498  
     123A      2.037764   124A      2.079580   125A      2.125629  
     126A      2.144145   127A      2.158942   128A      2.181639  
     129A      2.213622   130A      2.271055   131A      2.378548  
     132A      2.383031   133A      2.407523   134A      2.443464  
     135A      2.504006   136A      2.569302   137A      2.587087  
     138A      2.591648   139A      2.610618   140A      2.629674  
     141A      2.717585   142A      2.884014   143A      2.926637  
     144A      3.258268   145A      3.631975   146A      3.633547  
     147A      3.941266   148A      3.969828   149A      3.976342  
     150A      4.110823   151A      4.181470   152A      4.261038  
     153A      4.551373  

    Final Occupation by Irrep:
              A 
    DOCC [    32 ]

  Energy converged.

  @DF-RKS Final Energy:  -381.46261569235514

   => Energetics <=

    Nuclear Repulsion Energy =            416.0178636993258010
    One-Electron Energy =               -1327.3328773466009807
    Two-Electron Energy =                 574.2663666260713171
    DFT Exchange-Correlation Energy =     -44.4022323711512712
    Empirical Dispersion Energy =          -0.0117363000000000
    PCM Polarization Energy =               0.0000000000000000
    EFP Energy =                            0.0000000000000000
    Total Energy =                       -381.4626156923552003



Properties will be evaluated at   0.000000,   0.000000,   0.000000 Bohr

Properties computed using the SCF density matrix

  Nuclear Dipole Moment: (a.u.)
     X:    -0.0000      Y:     0.0000      Z:    -1.6672

  Electronic Dipole Moment: (a.u.)
     X:     0.0000      Y:    -0.0000      Z:    -0.8910

  Dipole Moment: (a.u.)
     X:     0.0000      Y:    -0.0000      Z:    -2.5582     Total:     2.5582

  Dipole Moment: (Debye)
     X:     0.0000      Y:    -0.0000      Z:    -6.5023     Total:     6.5023


*** tstop() called on computer03 at Fri Aug 11 18:28:20 2017
Module time:
	user time   =      94.06 seconds =       1.57 minutes
	system time =       1.43 seconds =       0.02 minutes
	total time  =         58 seconds =       0.97 minutes
Total time:
	user time   =      94.06 seconds =       1.57 minutes
	system time =       1.43 seconds =       0.02 minutes
	total time  =         58 seconds =       0.97 minutes

*** tstart() called on computer03
*** at Fri Aug 11 18:28:20 2017


         ------------------------------------------------------------
                                   SCF GRAD                          
                          Rob Parrish, Justin Turney,                
                       Andy Simmonett, and Alex Sokolov              
         ------------------------------------------------------------

  ==> Geometry <==

    Molecular point group: c1
    Full point group: C1

    Geometry (in Angstrom), charge = 1, multiplicity = 1:

       Center              X                  Y                   Z               Mass       
    ------------   -----------------  -----------------  -----------------  -----------------
           C         -0.000000123979     0.000000090787    -0.191639316978    12.000000000000
           C         -1.158979123979     0.380770090787     0.510390683022    12.000000000000
           C         -1.154374123979     0.374286090787     1.901669683022    12.000000000000
           C         -0.000000123979     0.000000090787     2.596332683022    12.000000000000
           C          1.154373876021    -0.374285909213     1.901669683022    12.000000000000
           C          1.158978876021    -0.380770909213     0.510390683022    12.000000000000
           C         -0.000000123979     0.000000090787    -1.658508316978    12.000000000000
           H         -2.070793123979     0.630949090787    -0.024627316978     1.007825032070
           H         -2.052599123979     0.650840090787     2.444111683022     1.007825032070
           H         -0.000000123979     0.000000090787     3.681981683022     1.007825032070
           H          2.052598876021    -0.650838909213     2.444111683022     1.007825032070
           H          2.070791876021    -0.630948909213    -0.024627316978     1.007825032070
           N         -0.712589123979    -0.905949909213    -2.322235316978    14.003074004780
           N          0.712589876021     0.905950090787    -2.322235316978    14.003074004780
           H          0.673431876021     1.006470090787    -3.329771316978     1.007825032070
           H          1.377189876021     1.485970090787    -1.827091316978     1.007825032070
           H         -1.377189123979    -1.485969909213    -1.827091316978     1.007825032070
           H         -0.673431123979    -1.006469909213    -3.329771316978     1.007825032070

  Nuclear repulsion =  416.017863699325801

  ==> Basis Set <==

  Basis Set: 6-31G*
    Blend: 6-31G*
    Number of shells: 72
    Number of basis function: 153
    Number of Cartesian functions: 153
    Spherical Harmonics?: false
    Max angular momentum: 2

  ==> DFJKGrad: Density-Fitted SCF Gradients <==

    Gradient:                    1
    J tasked:                  Yes
    K tasked:                  Yes
    wK tasked:                  No
    OpenMP threads:              8
    Integrals threads:           8
    Memory (MB):              1430
    Schwarz Cutoff:          0E+00
    Fitting Condition:       1E-12

   => Auxiliary Basis Set <=

  Basis Set: (6-31G* AUX)
    Blend: CC-PVDZ-JKFIT
    Number of shells: 297
    Number of basis function: 954
    Number of Cartesian functions: 954
    Spherical Harmonics?: false
    Max angular momentum: 3

  ==> DFT Potential <==

   => B3LYP Composite Functional <= 

    B3LYP Hybrid-GGA Exchange-Correlation Functional (VWN1-RPA)

    P.J. Stephens et. al., J. Phys. Chem., 98, 11623-11627, 1994

    Points   =           5000
    Deriv    =              1
    GGA      =           TRUE
    Meta     =          FALSE

    X_LRC        =          FALSE
    X_Hybrid     =           TRUE
    X_Alpha      =   2.000000E-01
    X_Omega      =   0.000000E+00
    C_LRC        =          FALSE
    C_Hybrid     =          FALSE
    C_Alpha      =   0.000000E+00
    C_Omega      =   0.000000E+00

   => Exchange Functionals <=

    0.8000    B3_X
    0.2000      HF 

   => Correlation Functionals <=

    0.1900 VWN3RPA_C
    0.8100   LYP_C

   => Molecular Quadrature <=

    Radial Scheme    =       TREUTLER
    Pruning Scheme   =           FLAT
    Nuclear Scheme   =       TREUTLER

    BS radius alpha  =              1
    Pruning alpha    =              1
    Radial Points    =             75
    Spherical Points =            302
    Total Points     =         397218
    Total Blocks     =            370
    Max Points       =           4846
    Max Functions    =            149


  -Total Gradient:
     Atom            X                  Y                   Z
    ------   -----------------  -----------------  -----------------
       1       -0.000000048326     0.000000122685    -0.014176812417
       2        0.001555615388     0.006908408473     0.004783636697
       3       -0.002152572517     0.001195750842    -0.002064345655
       4       -0.000000009581    -0.000000005383     0.000110516583
       5        0.002152671726    -0.001195711656    -0.002064228421
       6       -0.001554858946    -0.006908876692     0.004783353995
       7       -0.000000380668    -0.000000296234     0.013897777727
       8       -0.000819173562    -0.002578643838     0.000852700755
       9       -0.000092022783    -0.000760453318     0.000161196243
      10       -0.000000006492    -0.000000017900     0.000026751237
      11        0.000091899907     0.000760541720     0.000161112810
      12        0.000818534834     0.002578856655     0.000853003218
      13        0.001202010195    -0.005921929096    -0.003096805058
      14       -0.001201688691     0.005922220893    -0.003097002610
      15       -0.002508759828     0.001921179498     0.001386459351
      16        0.002342841886    -0.002890256788    -0.001953115939
      17       -0.002342802263     0.002890285538    -0.001953101451
      18        0.002508749712    -0.001921175438     0.001386481388


*** tstop() called on computer03 at Fri Aug 11 18:28:32 2017
Module time:
	user time   =      23.82 seconds =       0.40 minutes
	system time =       0.42 seconds =       0.01 minutes
	total time  =         12 seconds =       0.20 minutes
Total time:
	user time   =     118.03 seconds =       1.97 minutes
	system time =       1.86 seconds =       0.03 minutes
	total time  =         70 seconds =       1.17 minutes

			-----------------------------------------
			 OPTKING 2.0: for geometry optimizations 
			  - R.A. King,  Bethel University        
			-----------------------------------------
	At level 1: Red. Int., RFO, no backsteps, dynamic trust

	Internal coordinates to be generated automatically.
	Detected frag 1 with atoms:  1 2 3 4 5 6 7 8 9 10 11 12 13 14 15 16 17 18
	---Fragment 1 Bond Connectivity---
	 1 : 2 6 7
	 2 : 1 3 8
	 3 : 2 4 9
	 4 : 3 5 10
	 5 : 4 6 11
	 6 : 1 5 12
	 7 : 1 13 14
	 8 : 2
	 9 : 3
	 10 : 4
	 11 : 5
	 12 : 6
	 13 : 7 17 18
	 14 : 7 15 16
	 15 : 14
	 16 : 14
	 17 : 13
	 18 : 13

	Assuming in current code that numbering for constraints corresponds to unified fragment.
	Frozen dihedral atom list: 
	     2     1     7    13
	---Fragment 1 Geometry and Gradient---
	 C          -0.0000002343        0.0000001716       -0.3621458254
	 C          -2.1901531381        0.7195511912        0.9644986117
	 C          -2.1814509492        0.7072982069        3.5936348961
	 C          -0.0000002343        0.0000001716        4.9063577208
	 C           2.1814504806       -0.7072978638        3.5936348961
	 C           2.1901526695       -0.7195527378        0.9644986117
	 C          -0.0000002343        0.0000001716       -3.1341265082
	 H          -3.9132318822        1.1923209854       -0.0465388845
	 H          -3.8788502049        1.2299095279        4.6187017191
	 H          -0.0000002343        0.0000001716        6.9579370072
	 H           3.8788497363       -1.2299072950        4.6187017191
	 H           3.9132295239       -1.1923206423       -0.0465388845
	 N          -1.3465982896       -1.7119972185       -4.3883887652
	 N           1.3465997107        1.7119975617       -4.3883887652
	 H           1.2726018148        1.9019528325       -6.2923558742
	 H           2.6025116987        2.8080765132       -3.4527022089
	 H          -2.6025102775       -2.8080761701       -3.4527022089
	 H          -1.2726003937       -1.9019524894       -6.2923558742
	            -0.0000000483        0.0000001227       -0.0141768124
	             0.0015556154        0.0069084085        0.0047836367
	            -0.0021525725        0.0011957508       -0.0020643457
	            -0.0000000096       -0.0000000054        0.0001105166
	             0.0021526717       -0.0011957117       -0.0020642284
	            -0.0015548589       -0.0069088767        0.0047833540
	            -0.0000003807       -0.0000002962        0.0138977777
	            -0.0008191736       -0.0025786438        0.0008527008
	            -0.0000920228       -0.0007604533        0.0001611962
	            -0.0000000065       -0.0000000179        0.0000267512
	             0.0000918999        0.0007605417        0.0001611128
	             0.0008185348        0.0025788567        0.0008530032
	             0.0012020102       -0.0059219291       -0.0030968051
	            -0.0012016887        0.0059222209       -0.0030970026
	            -0.0025087598        0.0019211795        0.0013864594
	             0.0023428419       -0.0028902568       -0.0019531159
	            -0.0023428023        0.0028902855       -0.0019531015
	             0.0025087497       -0.0019211754        0.0013864814

	Previous optimization step data not found.  Starting new optimization.

	---Fragment 1 Intrafragment Coordinates---
	 - Coordinate -           - BOHR/RAD -       - ANG/DEG -
	 R(1,2)           =         2.659795	       1.407503
	 R(1,6)           =         2.659795	       1.407503
	 R(1,7)           =         2.771981	       1.466869
	 R(2,3)           =         2.629179	       1.391302
	 R(2,8)           =         2.052976	       1.086388
	 R(3,4)           =         2.642393	       1.398294
	 R(3,9)           =         2.050622	       1.085142
	 R(4,5)           =         2.642393	       1.398294
	 R(4,10)          =         2.051579	       1.085649
	 R(5,6)           =         2.629179	       1.391302
	 R(5,11)          =         2.050621	       1.085142
	 R(6,12)          =         2.052973	       1.086387
	 R(7,13)          =         2.513451	       1.330061
	 R(7,14)          =         2.513452	       1.330061
	 R(13,17)         =         1.911600	       1.011575
	 R(13,18)         =         1.914850	       1.013295
	 R(14,15)         =         1.914850	       1.013295
	 R(14,16)         =         1.911600	       1.011575
	 B(1,2,3)         =         2.088381	     119.655417
	 B(1,2,8)         =         2.103396	     120.515717
	 B(1,6,5)         =         2.088381	     119.655398
	 B(1,6,12)        =         2.103396	     120.515688
	 B(1,7,13)        =         2.093264	     119.935185
	 B(1,7,14)        =         2.093264	     119.935172
	 B(2,1,6)         =         2.097219	     120.161771
	 B(2,1,7)         =         2.092983	     119.919118
	 B(2,3,4)         =         2.095279	     120.050629
	 B(2,3,9)         =         2.089720	     119.732112
	 B(3,2,8)         =         2.090148	     119.756657
	 B(3,4,5)         =         2.101793	     120.423863
	 B(3,4,10)        =         2.090696	     119.788069
	 B(4,3,9)         =         2.098135	     120.214300
	 B(4,5,6)         =         2.095279	     120.050642
	 B(4,5,11)        =         2.098135	     120.214292
	 B(5,4,10)        =         2.090696	     119.788069
	 B(5,6,12)        =         2.090149	     119.756699
	 B(6,1,7)         =         2.092983	     119.919112
	 B(6,5,11)        =         2.089719	     119.732107
	 B(7,13,17)       =         2.092411	     119.886337
	 B(7,13,18)       =         2.144861	     122.891462
	 B(7,14,15)       =         2.144860	     122.891445
	 B(7,14,16)       =         2.092412	     119.886356
	 B(13,7,14)       =         2.096658	     120.129643
	 B(15,14,16)      =         2.043399	     117.078143
	 B(17,13,18)      =         2.043399	     117.078143
	 D(1,2,3,4)       =         0.007799	       0.446823
	 D(1,2,3,9)       =        -3.122897	    -178.928821
	 D(1,6,5,4)       =         0.007800	       0.446912
	 D(1,6,5,11)      =        -3.122895	    -178.928719
	 D(1,7,13,17)     =         0.187845	      10.762714
	 D(1,7,13,18)     =        -3.032164	    -173.730222
	 D(1,7,14,15)     =        -3.032164	    -173.730221
	 D(1,7,14,16)     =         0.187844	      10.762677
	 D(2,1,6,5)       =        -0.003908	      -0.223893
	 D(2,1,6,12)      =        -3.091438	    -177.126334
	*D(2,1,7,13)      =        -1.221731	     -70.000009
	 D(2,1,7,14)      =         1.919863	     110.000030
	 D(2,3,4,5)       =        -0.003942	      -0.225874
	 D(2,3,4,10)      =         3.137650	     179.774126
	 D(3,2,1,6)       =        -0.003905	      -0.223759
	 D(3,2,1,7)       =         3.137687	     179.776196
	 D(3,4,5,6)       =        -0.003943	      -0.225920
	 D(3,4,5,11)      =         3.126699	     179.146674
	 D(4,3,2,8)       =         3.095745	     177.373149
	 D(4,5,6,12)      =         3.095745	     177.373106
	 D(5,4,3,9)       =         3.126700	     179.146732
	 D(5,6,1,7)       =         3.137686	     179.776152
	 D(6,1,2,8)       =        -3.091438	    -177.126331
	 D(6,1,7,13)      =         1.919861	     109.999946
	 D(6,1,7,14)      =        -1.221731	     -70.000015
	 D(6,5,4,10)      =         3.137650	     179.774080
	 D(7,1,2,8)       =         0.050154	       2.873624
	 D(7,1,6,12)      =         0.050156	       2.873710
	 D(8,2,3,9)       =        -0.034950	      -2.002495
	 D(9,3,4,10)      =        -0.014892	      -0.853268
	 D(10,4,5,11)     =        -0.014893	      -0.853326
	 D(11,5,6,12)     =        -0.034951	      -2.002525
	 D(13,7,14,15)    =         0.109429	       6.269819
	 D(13,7,14,16)    =        -2.953748	    -169.237284
	 D(14,7,13,17)    =        -2.953749	    -169.237325
	 D(14,7,13,18)    =         0.109428	       6.269739

	Current energy   :      -381.4626156924

	Generating empirical Hessian (Schlegel '84) for each fragment.
	Taking RFO optimization step.
	Going to follow RFO solution 1.
	Using RFO vector 1.
	Norm of target step-size    0.39877
	Projected energy change by RFO approximation:        -0.0018298527

	Back-transformation to cartesian coordinates...
	Could not converge backtransformation.
	Using first guess instead.

	Back-transformation to cartesian coordinates to adjust frozen coordinates...
	Successfully converged to displaced geometry.

	--- Internal Coordinate Step in ANG or DEG, aJ/ANG or AJ/DEG ---
	 ---------------------------------------------------------------------------
	   Coordinate                Previous        Force       Change         New 
	   ----------                --------       ------       ------       ------
	    1 R(1,2)          =      1.407503    -0.030076    -0.004399     1.403104
	    2 R(1,6)          =      1.407503    -0.030080    -0.003856     1.403647
	    3 R(1,7)          =      1.466869     0.054142     0.009616     1.476485
	    4 R(2,3)          =      1.391302     0.015135     0.002240     1.393542
	    5 R(2,8)          =      1.086388     0.002687     0.001368     1.087756
	    6 R(3,4)          =      1.398294    -0.006666    -0.000743     1.397551
	    7 R(3,9)          =      1.085142     0.000305     0.000346     1.085488
	    8 R(4,5)          =      1.398294    -0.006669    -0.000758     1.397536
	    9 R(4,10)         =      1.085649    -0.000222    -0.000010     1.085639
	   10 R(5,6)          =      1.391302     0.015129     0.002071     1.393373
	   11 R(5,11)         =      1.085142     0.000306     0.000133     1.085275
	   12 R(6,12)         =      1.086387     0.002694     0.001223     1.087610
	   13 R(7,13)         =      1.330061    -0.036816    -0.003944     1.326117
	   14 R(7,14)         =      1.330061    -0.036820    -0.003348     1.326714
	   15 R(13,17)        =      1.011575     0.008851     0.006631     1.018206
	   16 R(13,18)        =      1.013295     0.008989     0.004621     1.017916
	   17 R(14,15)        =      1.013295     0.008989     0.006265     1.019560
	   18 R(14,16)        =      1.011575     0.008850     0.006479     1.018054
	   19 B(1,2,3)        =    119.655417    -0.000115    -0.383448   119.271970
	   20 B(1,2,8)        =    120.515717     0.000004    -0.024584   120.491134
	   21 B(1,6,5)        =    119.655398    -0.000115    -0.391370   119.264028
	   22 B(1,6,12)       =    120.515688     0.000004    -0.062708   120.452980
	   23 B(1,7,13)       =    119.935185    -0.000165    -0.486288   119.448897
	   24 B(1,7,14)       =    119.935172    -0.000165    -0.518227   119.416944
	   25 B(2,1,6)        =    120.161771     0.000233     0.642873   120.804644
	   26 B(2,1,7)        =    119.919118    -0.000117    -0.316699   119.602419
	   27 B(2,3,4)        =    120.050629     0.000020     0.100736   120.151366
	   28 B(2,3,9)        =    119.732112    -0.000027    -0.110921   119.621191
	   29 B(3,2,8)        =    119.756657     0.000117     0.470609   120.227266
	   30 B(3,4,5)        =    120.423863    -0.000043    -0.082742   120.341120
	   31 B(3,4,10)       =    119.788069     0.000021     0.043604   119.831673
	   32 B(4,3,9)        =    120.214300     0.000007     0.012057   120.226357
	   33 B(4,5,6)        =    120.050642     0.000020     0.098977   120.149619
	   34 B(4,5,11)       =    120.214292     0.000007     0.025635   120.239927
	   35 B(5,4,10)       =    119.788069     0.000021     0.038639   119.826707
	   36 B(5,6,12)       =    119.756699     0.000116     0.511808   120.268507
	   37 B(6,1,7)        =    119.919112    -0.000117    -0.357467   119.561644
	   38 B(6,5,11)       =    119.732107    -0.000027    -0.121772   119.610335
	   39 B(7,13,17)      =    119.886337    -0.000096    -0.597034   119.289302
	   40 B(7,13,18)      =    122.891462     0.000061     0.191399   123.082860
	   41 B(7,14,15)      =    122.891445     0.000061     0.264339   123.155784
	   42 B(7,14,16)      =    119.886356    -0.000096    -0.700015   119.186341
	   43 B(13,7,14)      =    120.129643     0.000331     0.974498   121.104141
	   44 B(15,14,16)     =    117.078143     0.000038     0.507719   117.585863
	   45 B(17,13,18)     =    117.078143     0.000038     0.477671   117.555815
	   46 D(1,2,3,4)      =      0.446823    -0.000008    -1.004341    -0.557518
	   47 D(1,2,3,9)      =   -178.928821    -0.000014    -2.007050  -180.935871
	   48 D(1,6,5,4)      =      0.446912    -0.000011    -1.760904    -1.313991
	   49 D(1,6,5,11)     =   -178.928719    -0.000017    -2.510331  -181.439050
	   50 D(1,7,13,17)    =     10.762714    -0.000051    -6.379077     4.383637
	   51 D(1,7,13,18)    =   -173.730222    -0.000041    -5.050303  -178.780525
	   52 D(1,7,14,15)    =   -173.730221    -0.000052    -7.001530  -180.731750
	   53 D(1,7,14,16)    =     10.762677    -0.000063    -8.331197     2.431480
	   54 D(2,1,6,5)      =     -0.223893     0.000010     1.652206     1.428313
	   55 D(2,1,6,12)     =   -177.126334    -0.000021    -2.826012  -179.952346
	   56 *D(2,1,7,13)    =    -70.000009     0.000000     0.000000   -70.000009
	   57 D(2,1,7,14)     =    110.000030     0.000011     1.970389   111.970419
	   58 D(2,3,4,5)      =     -0.225874     0.000006     0.894147     0.668273
	   59 D(2,3,4,10)     =    179.774126     0.000004     0.636618   180.410743
	   60 D(3,2,1,6)      =     -0.223759    -0.000000    -0.269464    -0.493223
	   61 D(3,2,1,7)      =    179.776196     0.000010     1.774214   181.550411
	   62 D(3,4,5,6)      =     -0.225920     0.000004     0.507165     0.281245
	   63 D(3,4,5,11)     =    179.146674     0.000009     1.260424   180.407097
	   64 D(4,3,2,8)      =    177.373149     0.000021     3.192574   180.565723
	   65 D(4,5,6,12)     =    177.373106     0.000018     2.690959   180.064066
	   66 D(5,4,3,9)      =    179.146732     0.000012     1.902201   181.048933
	   67 D(5,6,1,7)      =    179.776152    -0.000001    -0.390647   179.385505
	   68 D(6,1,2,8)      =   -177.126331    -0.000030    -4.493168  -181.619499
	   69 D(6,1,7,13)     =    109.999946     0.000010     2.018042   112.017988
	   70 D(6,1,7,14)     =    -70.000015     0.000022     3.988431   -66.011583
	   71 D(6,5,4,10)     =    179.774080     0.000005     0.764682   180.538762
	   72 D(7,1,2,8)      =      2.873624    -0.000019    -2.449489     0.424135
	   73 D(7,1,6,12)     =      2.873710    -0.000031    -4.868864    -1.995154
	   74 D(8,2,3,9)      =     -2.002495     0.000014     2.189865     0.187370
	   75 D(9,3,4,10)     =     -0.853268     0.000011     1.644672     0.791404
	   76 D(10,4,5,11)    =     -0.853326     0.000010     1.517940     0.664614
	   77 D(11,5,6,12)    =     -2.002525     0.000013     1.941532    -0.060993
	   78 D(13,7,14,15)   =      6.269819    -0.000041    -4.997610     1.272209
	   79 D(13,7,14,16)   =   -169.237284    -0.000051    -6.327276  -175.564560
	   80 D(14,7,13,17)   =   -169.237325    -0.000063    -8.383629  -177.620954
	   81 D(14,7,13,18)   =      6.269739    -0.000052    -7.054854    -0.785115
	 ---------------------------------------------------------------------------
	Successfully symmetrized geometry.

  ==> Convergence Check <==

  Measures of convergence in internal coordinates in au.
  Criteria marked as inactive (o), active & met (*), and active & unmet ( ).
  --------------------------------------------------------------------------------------------- ~
   Step     Total Energy     Delta E     MAX Force     RMS Force      MAX Disp      RMS Disp    ~
  --------------------------------------------------------------------------------------------- ~
    Convergence Criteria    1.00e-06 *    3.00e-04 *             o    1.20e-03 *             o  ~
  --------------------------------------------------------------------------------------------- ~
      1    -381.46261569   -3.81e+02      6.57e-03      1.83e-03 o    1.46e-01      4.41e-02 o  ~
  ---------------------------------------------------------------------------------------------

	Writing optimization data to binary file.
	Structure for next step:
	Cartesian Geometry (in Angstrom)
	    C    -0.0136842896  -0.0147400913  -0.1892904310
	    C    -1.1734208121   0.3551609548   0.5084806996
	    C    -1.1554482549   0.3676985519   1.9018501680
	    C     0.0038669778   0.0036742374   2.5922294502
	    C     1.1569450421  -0.3618452748   1.8922921373
	    C     1.1599190361  -0.3600524016   0.4989237331
	    C    -0.0140532623   0.0025445497  -1.6656746208
	    H    -2.0721905173   0.6470775143  -0.0302309421
	    H    -2.0447807309   0.6676297580   2.4472057901
	    H     0.0100456586   0.0088676641   3.6778385401
	    H     2.0542983248  -0.6505906343   2.4300707175
	    H     2.0558867217  -0.6451660219  -0.0477454387
	    N    -0.7259939186  -0.8990910085  -2.3280785608
	    N     0.7289751423   0.8951083058  -2.3070860286
	    H     0.7798459870   0.9509438861  -3.3238437707
	    H     1.3165687843   1.5297815371  -1.7700972765
	    H    -1.3149999960  -1.5477360696  -1.8093540698
	    H    -0.7517801248  -0.9492638228  -3.3444298024
			--------------------------
			 OPTKING Finished Execution 
			--------------------------

    Structure for next step:
    Molecular point group: c1
    Full point group: C1

    Geometry (in Angstrom), charge = 1, multiplicity = 1:

    C           -0.010747231297    -0.013626336425    -0.187429953215
    C           -1.170483753811     0.356274709677     0.510341177405
    C           -1.152511196598     0.368812306763     1.903710645821
    C            0.006804036034     0.004787992320     2.594089928021
    C            1.159882100361    -0.360731519868     1.894152615093
    C            1.162856094416    -0.358938646675     0.500784210893
    C           -0.011116203990     0.003658304576    -1.663814142939
    H           -2.069253458997     0.648191269228    -0.028370464282
    H           -2.041843672578     0.668743512856     2.449066267960
    H            0.012982716902     0.009981419004     3.679699017922
    H            2.057235383089    -0.649476879417     2.431931195318
    H            2.058823779941    -0.644052267024    -0.045884960868
    N           -0.723056860269    -0.897977253644    -2.326218082952
    N            0.731912200598     0.896222060711    -2.305225550727
    H            0.782783045290     0.952057640983    -3.321983292829
    H            1.319505842566     1.530895291964    -1.768236798706
    H           -1.312062937669    -1.546622314744    -1.807493591966
    H           -0.748843066520    -0.948150067927    -3.342569324620

gradient() will perform analytic gradient computation.

*** tstart() called on computer03
*** at Fri Aug 11 18:28:32 2017

   => Loading Basis Set <=

    Name: 6-31G*
    Role: ORBITAL
    Keyword: BASIS
    atoms 1-7         entry C          line   102 file /home/raimis/opt/miniconda3/envs/htmd/share/psi4/basis/6-31gs.gbs 
    atoms 8-12, 15-18 entry H          line    35 file /home/raimis/opt/miniconda3/envs/htmd/share/psi4/basis/6-31gs.gbs 
    atoms 13-14       entry N          line   119 file /home/raimis/opt/miniconda3/envs/htmd/share/psi4/basis/6-31gs.gbs 


         ---------------------------------------------------------
                                   SCF
            by Justin Turney, Rob Parrish, and Andy Simmonett
                              RKS Reference
                        8 Threads,   1907 MiB Core
         ---------------------------------------------------------

  ==> Geometry <==

    Molecular point group: c1
    Full point group: C1

    Geometry (in Angstrom), charge = 1, multiplicity = 1:

       Center              X                  Y                   Z               Mass       
    ------------   -----------------  -----------------  -----------------  -----------------
           C         -0.010747231297    -0.013626336425    -0.187429953215    12.000000000000
           C         -1.170483753811     0.356274709677     0.510341177405    12.000000000000
           C         -1.152511196598     0.368812306763     1.903710645821    12.000000000000
           C          0.006804036034     0.004787992320     2.594089928021    12.000000000000
           C          1.159882100361    -0.360731519868     1.894152615093    12.000000000000
           C          1.162856094416    -0.358938646675     0.500784210893    12.000000000000
           C         -0.011116203990     0.003658304576    -1.663814142939    12.000000000000
           H         -2.069253458997     0.648191269228    -0.028370464282     1.007825032070
           H         -2.041843672578     0.668743512856     2.449066267960     1.007825032070
           H          0.012982716902     0.009981419004     3.679699017922     1.007825032070
           H          2.057235383089    -0.649476879417     2.431931195318     1.007825032070
           H          2.058823779941    -0.644052267024    -0.045884960868     1.007825032070
           N         -0.723056860269    -0.897977253644    -2.326218082952    14.003074004780
           N          0.731912200598     0.896222060711    -2.305225550727    14.003074004780
           H          0.782783045290     0.952057640983    -3.321983292829     1.007825032070
           H          1.319505842566     1.530895291964    -1.768236798706     1.007825032070
           H         -1.312062937669    -1.546622314744    -1.807493591966     1.007825032070
           H         -0.748843066520    -0.948150067927    -3.342569324620     1.007825032070

  Running in c1 symmetry.

  Rotational constants: A =      0.12179  B =      0.03756  C =      0.03286 [cm^-1]
  Rotational constants: A =   3651.17664  B =   1126.04905  C =    984.97149 [MHz]
  Nuclear repulsion =  416.221235369392900

  Charge       = 1
  Multiplicity = 1
  Electrons    = 64
  Nalpha       = 32
  Nbeta        = 32

  ==> Algorithm <==

  SCF Algorithm Type is DF.
  DIIS enabled.
  MOM disabled.
  Fractional occupation disabled.
  Guess Type is READ.
  Energy threshold   = 1.00e-08
  Density threshold  = 1.00e-08
  Integral threshold = 0.00e+00

  ==> Primary Basis <==

  Basis Set: 6-31G*
    Blend: 6-31G*
    Number of shells: 72
    Number of basis function: 153
    Number of Cartesian functions: 153
    Spherical Harmonics?: false
    Max angular momentum: 2

  ==> DFT Potential <==

   => B3LYP Composite Functional <= 

    B3LYP Hybrid-GGA Exchange-Correlation Functional (VWN1-RPA)

    P.J. Stephens et. al., J. Phys. Chem., 98, 11623-11627, 1994

    Points   =           5000
    Deriv    =              1
    GGA      =           TRUE
    Meta     =          FALSE

    X_LRC        =          FALSE
    X_Hybrid     =           TRUE
    X_Alpha      =   2.000000E-01
    X_Omega      =   0.000000E+00
    C_LRC        =          FALSE
    C_Hybrid     =          FALSE
    C_Alpha      =   0.000000E+00
    C_Omega      =   0.000000E+00

   => Exchange Functionals <=

    0.8000    B3_X
    0.2000      HF 

   => Correlation Functionals <=

    0.1900 VWN3RPA_C
    0.8100   LYP_C

   => Molecular Quadrature <=

    Radial Scheme    =       TREUTLER
    Pruning Scheme   =           FLAT
    Nuclear Scheme   =       TREUTLER

    BS radius alpha  =              1
    Pruning alpha    =              1
    Radial Points    =             75
    Spherical Points =            302
    Total Points     =         397218
    Total Blocks     =            369
    Max Points       =           4874
    Max Functions    =            150

   => -D3ZERO: Empirical Dispersion <=

    Grimme's -D3 (zero-damping) Dispersion Correction
    Grimme S.; Antony J.; Ehrlich S.; Krieg H. (2010), J. Chem. Phys., 132: 154104

        S6 =   1.000000E+00
        S8 =   1.703000E+00
       SR6 =   1.261000E+00
    ALPHA6 =   1.400000E+01

   => Loading Basis Set <=

    Name: (6-31G* AUX)
    Role: JKFIT
    Keyword: DF_BASIS_SCF
    atoms 1-7         entry C          line   120 file /home/raimis/opt/miniconda3/envs/htmd/share/psi4/basis/cc-pvdz-jkfit.gbs 
    atoms 8-12, 15-18 entry H          line    50 file /home/raimis/opt/miniconda3/envs/htmd/share/psi4/basis/cc-pvdz-jkfit.gbs 
    atoms 13-14       entry N          line   170 file /home/raimis/opt/miniconda3/envs/htmd/share/psi4/basis/cc-pvdz-jkfit.gbs 

  Reading orbitals from file 180, no projection.

  ==> Pre-Iterations <==

   -------------------------------------------------------
    Irrep   Nso     Nmo     Nalpha   Nbeta   Ndocc  Nsocc
   -------------------------------------------------------
     A        153     153       0       0       0       0
   -------------------------------------------------------
    Total     153     153      32      32      32       0
   -------------------------------------------------------

  ==> Integral Setup <==

  ==> DFJK: Density-Fitted J/K Matrices <==

    J tasked:                  Yes
    K tasked:                  Yes
    wK tasked:                  No
    OpenMP threads:              8
    Integrals threads:           8
    Memory (MB):              1430
    Algorithm:                Core
    Integral Cache:           NONE
    Schwarz Cutoff:          1E-12
    Fitting Condition:       1E-12

   => Auxiliary Basis Set <=

  Basis Set: (6-31G* AUX)
    Blend: CC-PVDZ-JKFIT
    Number of shells: 297
    Number of basis function: 954
    Number of Cartesian functions: 954
    Spherical Harmonics?: false
    Max angular momentum: 3

  Minimum eigenvalue in the overlap matrix is 4.8588161364E-04.
  Using Symmetric Orthogonalization.

  SCF Guess: Orbitals guess was supplied from a previous computation.

  ==> Iterations <==

                           Total Energy        Delta E     RMS |[F,P]|

   @DF-RKS iter   0:  -381.45238657595053   -3.81452e+02   1.23771e-03 
   @DF-RKS iter   1:  -381.46534624643061   -1.29597e-02   1.40933e-04 
   @DF-RKS iter   2:  -381.46535431787083   -8.07144e-06   1.64509e-04 DIIS
   @DF-RKS iter   3:  -381.46543453867054   -8.02208e-05   5.56734e-05 DIIS
   @DF-RKS iter   4:  -381.46544370632643   -9.16766e-06   1.87713e-05 DIIS
   @DF-RKS iter   5:  -381.46544469273124   -9.86405e-07   5.64852e-06 DIIS
   @DF-RKS iter   6:  -381.46544478997589   -9.72447e-08   1.31128e-06 DIIS
   @DF-RKS iter   7:  -381.46544479443122   -4.45533e-09   4.07096e-07 DIIS
   @DF-RKS iter   8:  -381.46544479484805   -4.16833e-10   1.58961e-07 DIIS
   @DF-RKS iter   9:  -381.46544479491439   -6.63363e-11   3.82667e-08 DIIS
   @DF-RKS iter  10:  -381.46544479492007   -5.68434e-12   9.10136e-09 DIIS

  ==> Post-Iterations <==

    Orbital Energies (a.u.)
    -----------------------

    Doubly Occupied:                                                      

       1A    -14.575456     2A    -14.575386     3A    -10.502154  
       4A    -10.369247     5A    -10.350378     6A    -10.350317  
       7A    -10.335173     8A    -10.334872     9A    -10.334368  
      10A     -1.188564    11A     -1.096456    12A     -1.009957  
      13A     -0.923113    14A     -0.896288    15A     -0.844368  
      16A     -0.787151    17A     -0.766639    18A     -0.751235  
      19A     -0.728740    20A     -0.689150    21A     -0.667354  
      22A     -0.622953    23A     -0.618032    24A     -0.579187  
      25A     -0.574349    26A     -0.568363    27A     -0.515833  
      28A     -0.499023    29A     -0.492579    30A     -0.477497  
      31A     -0.405622    32A     -0.399699  

    Virtual:                                                              

      33A     -0.201238    34A     -0.156007    35A     -0.150948  
      36A     -0.114411    37A     -0.068936    38A     -0.066410  
      39A     -0.037024    40A     -0.032699    41A      0.008497  
      42A      0.015137    43A      0.023622    44A      0.058160  
      45A      0.058911    46A      0.073922    47A      0.140738  
      48A      0.143553    49A      0.163408    50A      0.179553  
      51A      0.200051    52A      0.223456    53A      0.293228  
      54A      0.342686    55A      0.357727    56A      0.382998  
      57A      0.388645    58A      0.398994    59A      0.406227  
      60A      0.426497    61A      0.446100    62A      0.450374  
      63A      0.451221    64A      0.466168    65A      0.476111  
      66A      0.480373    67A      0.483119    68A      0.500275  
      69A      0.514392    70A      0.534215    71A      0.551706  
      72A      0.573950    73A      0.590522    74A      0.645617  
      75A      0.662075    76A      0.676939    77A      0.678852  
      78A      0.688466    79A      0.700188    80A      0.710548  
      81A      0.730220    82A      0.751723    83A      0.778921  
      84A      0.792689    85A      0.813094    86A      0.833952  
      87A      0.852897    88A      0.939567    89A      0.969798  
      90A      1.004549    91A      1.020510    92A      1.026969  
      93A      1.031253    94A      1.080762    95A      1.143778  
      96A      1.198628    97A      1.202859    98A      1.287181  
      99A      1.299122   100A      1.323598   101A      1.330654  
     102A      1.350102   103A      1.360395   104A      1.381709  
     105A      1.443514   106A      1.445474   107A      1.497046  
     108A      1.588727   109A      1.618447   110A      1.661025  
     111A      1.667452   112A      1.740590   113A      1.765232  
     114A      1.795445   115A      1.826326   116A      1.852134  
     117A      1.898054   118A      1.913165   119A      1.966183  
     120A      1.987062   121A      2.001545   122A      2.004066  
     123A      2.041532   124A      2.090305   125A      2.129874  
     126A      2.135940   127A      2.155846   128A      2.168228  
     129A      2.222499   130A      2.273505   131A      2.375494  
     132A      2.387164   133A      2.410734   134A      2.445182  
     135A      2.503762   136A      2.568423   137A      2.583343  
     138A      2.592340   139A      2.603196   140A      2.631525  
     141A      2.718926   142A      2.886186   143A      2.928233  
     144A      3.260677   145A      3.632513   146A      3.639105  
     147A      3.941347   148A      3.969297   149A      3.975240  
     150A      4.104256   151A      4.182899   152A      4.261268  
     153A      4.551857  

    Final Occupation by Irrep:
              A 
    DOCC [    32 ]

  Energy converged.

  @DF-RKS Final Energy:  -381.46544479492007

   => Energetics <=

    Nuclear Repulsion Energy =            416.2212353693929003
    One-Electron Energy =               -1327.7731511342979047
    Two-Electron Energy =                 574.4949525160061512
    DFT Exchange-Correlation Energy =     -44.3967109660211463
    Empirical Dispersion Energy =          -0.0117705800000000
    PCM Polarization Energy =               0.0000000000000000
    EFP Energy =                            0.0000000000000000
    Total Energy =                       -381.4654447949200744



Properties will be evaluated at   0.000000,   0.000000,   0.000000 Bohr

Properties computed using the SCF density matrix

  Nuclear Dipole Moment: (a.u.)
     X:     0.0556      Y:     0.0202      Z:    -1.6307

  Electronic Dipole Moment: (a.u.)
     X:    -0.0448      Y:    -0.0167      Z:    -0.8975

  Dipole Moment: (a.u.)
     X:     0.0108      Y:     0.0035      Z:    -2.5283     Total:     2.5283

  Dipole Moment: (Debye)
     X:     0.0274      Y:     0.0090      Z:    -6.4262     Total:     6.4262


*** tstop() called on computer03 at Fri Aug 11 18:29:17 2017
Module time:
	user time   =      72.39 seconds =       1.21 minutes
	system time =       1.03 seconds =       0.02 minutes
	total time  =         45 seconds =       0.75 minutes
Total time:
	user time   =     190.86 seconds =       3.18 minutes
	system time =       2.90 seconds =       0.05 minutes
	total time  =        115 seconds =       1.92 minutes

*** tstart() called on computer03
*** at Fri Aug 11 18:29:17 2017


         ------------------------------------------------------------
                                   SCF GRAD                          
                          Rob Parrish, Justin Turney,                
                       Andy Simmonett, and Alex Sokolov              
         ------------------------------------------------------------

  ==> Geometry <==

    Molecular point group: c1
    Full point group: C1

    Geometry (in Angstrom), charge = 1, multiplicity = 1:

       Center              X                  Y                   Z               Mass       
    ------------   -----------------  -----------------  -----------------  -----------------
           C         -0.010747231297    -0.013626336425    -0.187429953215    12.000000000000
           C         -1.170483753811     0.356274709677     0.510341177405    12.000000000000
           C         -1.152511196598     0.368812306763     1.903710645821    12.000000000000
           C          0.006804036034     0.004787992320     2.594089928021    12.000000000000
           C          1.159882100361    -0.360731519868     1.894152615093    12.000000000000
           C          1.162856094416    -0.358938646675     0.500784210893    12.000000000000
           C         -0.011116203990     0.003658304576    -1.663814142939    12.000000000000
           H         -2.069253458997     0.648191269228    -0.028370464282     1.007825032070
           H         -2.041843672578     0.668743512856     2.449066267960     1.007825032070
           H          0.012982716902     0.009981419004     3.679699017922     1.007825032070
           H          2.057235383089    -0.649476879417     2.431931195318     1.007825032070
           H          2.058823779941    -0.644052267024    -0.045884960868     1.007825032070
           N         -0.723056860269    -0.897977253644    -2.326218082952    14.003074004780
           N          0.731912200598     0.896222060711    -2.305225550727    14.003074004780
           H          0.782783045290     0.952057640983    -3.321983292829     1.007825032070
           H          1.319505842566     1.530895291964    -1.768236798706     1.007825032070
           H         -1.312062937669    -1.546622314744    -1.807493591966     1.007825032070
           H         -0.748843066520    -0.948150067927    -3.342569324620     1.007825032070

  Nuclear repulsion =  416.221235369392900

  ==> Basis Set <==

  Basis Set: 6-31G*
    Blend: 6-31G*
    Number of shells: 72
    Number of basis function: 153
    Number of Cartesian functions: 153
    Spherical Harmonics?: false
    Max angular momentum: 2

  ==> DFJKGrad: Density-Fitted SCF Gradients <==

    Gradient:                    1
    J tasked:                  Yes
    K tasked:                  Yes
    wK tasked:                  No
    OpenMP threads:              8
    Integrals threads:           8
    Memory (MB):              1430
    Schwarz Cutoff:          0E+00
    Fitting Condition:       1E-12

   => Auxiliary Basis Set <=

  Basis Set: (6-31G* AUX)
    Blend: CC-PVDZ-JKFIT
    Number of shells: 297
    Number of basis function: 954
    Number of Cartesian functions: 954
    Spherical Harmonics?: false
    Max angular momentum: 3

  ==> DFT Potential <==

   => B3LYP Composite Functional <= 

    B3LYP Hybrid-GGA Exchange-Correlation Functional (VWN1-RPA)

    P.J. Stephens et. al., J. Phys. Chem., 98, 11623-11627, 1994

    Points   =           5000
    Deriv    =              1
    GGA      =           TRUE
    Meta     =          FALSE

    X_LRC        =          FALSE
    X_Hybrid     =           TRUE
    X_Alpha      =   2.000000E-01
    X_Omega      =   0.000000E+00
    C_LRC        =          FALSE
    C_Hybrid     =          FALSE
    C_Alpha      =   0.000000E+00
    C_Omega      =   0.000000E+00

   => Exchange Functionals <=

    0.8000    B3_X
    0.2000      HF 

   => Correlation Functionals <=

    0.1900 VWN3RPA_C
    0.8100   LYP_C

   => Molecular Quadrature <=

    Radial Scheme    =       TREUTLER
    Pruning Scheme   =           FLAT
    Nuclear Scheme   =       TREUTLER

    BS radius alpha  =              1
    Pruning alpha    =              1
    Radial Points    =             75
    Spherical Points =            302
    Total Points     =         397218
    Total Blocks     =            369
    Max Points       =           4874
    Max Functions    =            150


  -Total Gradient:
     Atom            X                  Y                   Z
    ------   -----------------  -----------------  -----------------
       1        0.000071274905    -0.003264322618    -0.003010475691
       2        0.001946725911     0.001992911600     0.001034538350
       3        0.000002856303    -0.000042248777    -0.000537038460
       4        0.000114424105    -0.000185453137     0.000421062164
       5        0.000072238505     0.000134586004    -0.000266033299
       6       -0.001222164945    -0.000566057902     0.001287534843
       7       -0.003579536794     0.003023477994     0.004149664138
       8       -0.000727591052     0.000304100620    -0.000298488942
       9       -0.000025328165     0.000245491838     0.000102119818
      10        0.000014254166     0.000032266414     0.000058237811
      11       -0.000093520168    -0.000197630836     0.000024112866
      12        0.000689799697    -0.000021878001    -0.000291787056
      13        0.005710933980    -0.000845426776    -0.000689927725
      14       -0.003629420546    -0.000118596741     0.000085954133
      15       -0.001336980674     0.000562797792    -0.004414453366
      16        0.004277096622     0.001493957913     0.002711891991
      17       -0.004028742086    -0.002049118748     0.002598928092
      18        0.001738152804    -0.000504930067    -0.002965362149


*** tstop() called on computer03 at Fri Aug 11 18:29:28 2017
Module time:
	user time   =      23.46 seconds =       0.39 minutes
	system time =       0.39 seconds =       0.01 minutes
	total time  =         11 seconds =       0.18 minutes
Total time:
	user time   =     214.41 seconds =       3.57 minutes
	system time =       3.30 seconds =       0.06 minutes
	total time  =        126 seconds =       2.10 minutes

			-----------------------------------------
			 OPTKING 2.0: for geometry optimizations 
			  - R.A. King,  Bethel University        
			-----------------------------------------
	At level 1: Red. Int., RFO, no backsteps, dynamic trust

	Previous internal coordinate definitions found.
	---Fragment 1 Geometry and Gradient---
	 C          -0.0203093238       -0.0257500440       -0.3541912807
	 C          -2.2118937377        0.6732616294        0.9644050596
	 C          -2.1779305267        0.6969542542        3.5974917569
	 C           0.0128577647        0.0090479942        4.9021195280
	 C           2.1918595161       -0.6816837801        3.5794296964
	 C           2.1974795504       -0.6782957407        0.9463450103
	 C          -0.0210065812        0.0069131938       -3.1441530662
	 H          -3.9103223370        1.2249039806       -0.0536124078
	 H          -3.8585253473        1.2637420924        4.6280645277
	 H           0.0245337794        0.0188621483        6.9536233953
	 H           3.8876114649       -1.2273334317        4.5956839332
	 H           3.8906131000       -1.2170823999       -0.0867100097
	 N          -1.3663794444       -1.6969310829       -4.3959151021
	 N           1.3831136124        1.6936142490       -4.3562449654
	 H           1.4792455771        1.7991282042       -6.2776386415
	 H           2.4935046732        2.8929728399       -3.3414832876
	 H          -2.4794396213       -2.9226926059       -3.4156678758
	 H          -1.4151083122       -1.7917439613       -6.3165406037
	             0.0000712749       -0.0032643226       -0.0030104757
	             0.0019467259        0.0019929116        0.0010345384
	             0.0000028563       -0.0000422488       -0.0005370385
	             0.0001144241       -0.0001854531        0.0004210622
	             0.0000722385        0.0001345860       -0.0002660333
	            -0.0012221649       -0.0005660579        0.0012875348
	            -0.0035795368        0.0030234780        0.0041496641
	            -0.0007275911        0.0003041006       -0.0002984889
	            -0.0000253282        0.0002454918        0.0001021198
	             0.0000142542        0.0000322664        0.0000582378
	            -0.0000935202       -0.0001976308        0.0000241129
	             0.0006897997       -0.0000218780       -0.0002917871
	             0.0057109340       -0.0008454268       -0.0006899277
	            -0.0036294205       -0.0001185967        0.0000859541
	            -0.0013369807        0.0005627978       -0.0044144534
	             0.0042770966        0.0014939579        0.0027118920
	            -0.0040287421       -0.0020491187        0.0025989281
	             0.0017381528       -0.0005049301       -0.0029653621

	---Fragment 1 Intrafragment Coordinates---
	 - Coordinate -           - BOHR/RAD -       - ANG/DEG -
	 R(1,2)           =         2.651482	       1.403104
	 R(1,6)           =         2.652508	       1.403647
	 R(1,7)           =         2.790153	       1.476485
	 R(2,3)           =         2.633412	       1.393542
	 R(2,8)           =         2.055560	       1.087756
	 R(3,4)           =         2.640989	       1.397551
	 R(3,9)           =         2.051275	       1.085488
	 R(4,5)           =         2.640960	       1.397536
	 R(4,10)          =         2.051561	       1.085639
	 R(5,6)           =         2.633093	       1.393373
	 R(5,11)          =         2.050873	       1.085275
	 R(6,12)          =         2.055285	       1.087610
	 R(7,13)          =         2.505997	       1.326117
	 R(7,14)          =         2.507126	       1.326714
	 R(13,17)         =         1.924131	       1.018206
	 R(13,18)         =         1.923582	       1.017916
	 R(14,15)         =         1.926688	       1.019560
	 R(14,16)         =         1.923843	       1.018054
	 B(1,2,3)         =         2.081689	     119.271970
	 B(1,2,8)         =         2.102967	     120.491134
	 B(1,6,5)         =         2.081550	     119.264028
	 B(1,6,12)        =         2.102301	     120.452980
	 B(1,7,13)        =         2.084777	     119.448897
	 B(1,7,14)        =         2.084219	     119.416944
	 B(2,1,6)         =         2.108439	     120.804644
	 B(2,1,7)         =         2.087456	     119.602419
	 B(2,3,4)         =         2.097037	     120.151366
	 B(2,3,9)         =         2.087784	     119.621191
	 B(3,2,8)         =         2.098362	     120.227266
	 B(3,4,5)         =         2.100349	     120.341120
	 B(3,4,10)        =         2.091457	     119.831673
	 B(4,3,9)         =         2.098346	     120.226357
	 B(4,5,6)         =         2.097006	     120.149619
	 B(4,5,11)        =         2.098583	     120.239927
	 B(5,4,10)        =         2.091371	     119.826707
	 B(5,6,12)        =         2.099081	     120.268507
	 B(6,1,7)         =         2.086744	     119.561644
	 B(6,5,11)        =         2.087594	     119.610335
	 B(7,13,17)       =         2.081991	     119.289302
	 B(7,13,18)       =         2.148201	     123.082860
	 B(7,14,15)       =         2.149474	     123.155784
	 B(7,14,16)       =         2.080194	     119.186341
	 B(13,7,14)       =         2.113666	     121.104141
	 B(15,14,16)      =         2.052260	     117.585863
	 B(17,13,18)      =         2.051736	     117.555815
	 D(1,2,3,4)       =        -0.009731	      -0.557518
	 D(1,2,3,9)       =         3.125259	     179.064129
	 D(1,6,5,4)       =        -0.022933	      -1.313991
	 D(1,6,5,11)      =         3.116476	     178.560950
	 D(1,7,13,17)     =         0.076509	       4.383637
	 D(1,7,13,18)     =        -3.120309	    -178.780525
	 D(1,7,14,15)     =         3.128821	     179.268250
	 D(1,7,14,16)     =         0.042437	       2.431480
	 D(2,1,6,5)       =         0.024929	       1.428313
	 D(2,1,6,12)      =        -3.140761	    -179.952346
	*D(2,1,7,13)      =        -1.221731	     -70.000009
	 D(2,1,7,14)      =         1.954252	     111.970419
	 D(2,3,4,5)       =         0.011664	       0.668273
	 D(2,3,4,10)      =        -3.134424	    -179.589257
	 D(3,2,1,6)       =        -0.008608	      -0.493223
	 D(3,2,1,7)       =        -3.114533	    -178.449589
	 D(3,4,5,6)       =         0.004909	       0.281245
	 D(3,4,5,11)      =        -3.134487	    -179.592903
	 D(4,3,2,8)       =        -3.131719	    -179.434277
	 D(4,5,6,12)      =        -3.140474	    -179.935934
	 D(5,4,3,9)       =        -3.123285	    -178.951067
	 D(5,6,1,7)       =         3.130868	     179.385505
	 D(6,1,2,8)       =         3.113327	     178.380501
	 D(6,1,7,13)      =         1.955083	     112.017988
	 D(6,1,7,14)      =        -1.152119	     -66.011583
	 D(6,5,4,10)      =        -3.132189	    -179.461238
	 D(7,1,2,8)       =         0.007403	       0.424135
	 D(7,1,6,12)      =        -0.034822	      -1.995154
	 D(8,2,3,9)       =         0.003270	       0.187370
	 D(9,3,4,10)      =         0.013813	       0.791404
	 D(10,4,5,11)     =         0.011600	       0.664614
	 D(11,5,6,12)     =        -0.001065	      -0.060993
	 D(13,7,14,15)    =         0.022204	       1.272209
	 D(13,7,14,16)    =        -3.064180	    -175.564560
	 D(14,7,13,17)    =        -3.100070	    -177.620954
	 D(14,7,13,18)    =        -0.013703	      -0.785115

	Current energy   :      -381.4654447949

	Energy change for the previous step:
		Projected    :        -0.0018298527
		Actual       :        -0.0028291026
	Energy ratio indicates good step: Trust radius increased to 1.000e+00.


	Performing BFGS update.
	Previous computed or guess Hessian on step 1.
	Steps to be used in Hessian update: 1
	Taking RFO optimization step.
	Going to follow RFO solution 1.
	Using RFO vector 1.
	Norm of target step-size    0.28840
	Projected energy change by RFO approximation:        -0.0002249571

	Back-transformation to cartesian coordinates...
	Could not converge backtransformation.
	Using first guess instead.

	Back-transformation to cartesian coordinates to adjust frozen coordinates...
	Successfully converged to displaced geometry.

	--- Internal Coordinate Step in ANG or DEG, aJ/ANG or AJ/DEG ---
	 ---------------------------------------------------------------------------
	   Coordinate                Previous        Force       Change         New 
	   ----------                --------       ------       ------       ------
	    1 R(1,2)          =      1.403104    -0.000674    -0.000616     1.402488
	    2 R(1,6)          =      1.403647    -0.003216    -0.000704     1.402943
	    3 R(1,7)          =      1.476485     0.012011     0.004384     1.480870
	    4 R(2,3)          =      1.393542     0.000900     0.000575     1.394117
	    5 R(2,8)          =      1.087756    -0.006842    -0.001198     1.086558
	    6 R(3,4)          =      1.397551    -0.000495    -0.000078     1.397473
	    7 R(3,9)          =      1.085488    -0.001151    -0.000126     1.085362
	    8 R(4,5)          =      1.397536     0.001402     0.000200     1.397735
	    9 R(4,10)         =      1.085639    -0.000482    -0.000047     1.085592
	   10 R(5,6)          =      1.393373     0.000734     0.000553     1.393925
	   11 R(5,11)         =      1.085275     0.000104     0.000260     1.085536
	   12 R(6,12)         =      1.087610    -0.005938    -0.001044     1.086566
	   13 R(7,13)         =      1.326117    -0.008248    -0.001468     1.324649
	   14 R(7,14)         =      1.326714    -0.014016    -0.001670     1.325044
	   15 R(13,17)        =      1.018206    -0.040856    -0.003146     1.015060
	   16 R(13,18)        =      1.017916    -0.024237     0.000046     1.017962
	   17 R(14,15)        =      1.019560    -0.035973    -0.001794     1.017765
	   18 R(14,16)        =      1.018054    -0.039802    -0.001364     1.016689
	   19 B(1,2,3)        =    119.271970    -0.000033    -0.180555   119.091415
	   20 B(1,2,8)        =    120.491134     0.000007     0.000183   120.491317
	   21 B(1,6,5)        =    119.264028    -0.000039    -0.214815   119.049214
	   22 B(1,6,12)       =    120.452980     0.000013     0.012730   120.465710
	   23 B(1,7,13)       =    119.448897    -0.000066    -0.336332   119.112566
	   24 B(1,7,14)       =    119.416944    -0.000089    -0.472456   118.944489
	   25 B(2,1,6)        =    120.804644     0.000067     0.325439   121.130083
	   26 B(2,1,7)        =    119.602419    -0.000021    -0.160541   119.441878
	   27 B(2,3,4)        =    120.151366    -0.000015    -0.052020   120.099345
	   28 B(2,3,9)        =    119.621191     0.000005     0.003602   119.624793
	   29 B(3,2,8)        =    120.227266     0.000026     0.186477   120.413743
	   30 B(3,4,5)        =    120.341120     0.000028     0.125142   120.466262
	   31 B(3,4,10)       =    119.831673    -0.000014    -0.060050   119.771622
	   32 B(4,3,9)        =    120.226357     0.000011     0.047742   120.274099
	   33 B(4,5,6)        =    120.149619    -0.000007    -0.022616   120.127003
	   34 B(4,5,11)       =    120.239927     0.000007     0.030881   120.270808
	   35 B(5,4,10)       =    119.826707    -0.000014    -0.065454   119.761253
	   36 B(5,6,12)       =    120.268507     0.000026     0.196174   120.464681
	   37 B(6,1,7)        =    119.561644    -0.000047    -0.302872   119.258772
	   38 B(6,5,11)       =    119.610335     0.000001    -0.008208   119.602127
	   39 B(7,13,17)      =    119.289302    -0.000023    -0.436542   118.852760
	   40 B(7,13,18)      =    123.082860     0.000074     0.450227   123.533088
	   41 B(7,14,15)      =    123.155784     0.000059     0.449911   123.605695
	   42 B(7,14,16)      =    119.186341    -0.000006    -0.437426   118.748916
	   43 B(13,7,14)      =    121.104141     0.000155     0.787034   121.891175
	   44 B(15,14,16)     =    117.585863    -0.000050     0.055135   117.640997
	   45 B(17,13,18)     =    117.555815    -0.000051    -0.006351   117.549464
	   46 D(1,2,3,4)      =     -0.557518     0.000004     0.945598     0.388080
	   47 D(1,2,3,9)      =    179.064129     0.000004     0.842380   179.906509
	   48 D(1,6,5,4)      =     -1.313991     0.000000    -0.107758    -1.421749
	   49 D(1,6,5,11)     =    178.560950     0.000001     0.107318   178.668268
	   50 D(1,7,13,17)    =      4.383637    -0.000023    -4.860853    -0.477216
	   51 D(1,7,13,18)    =   -178.780525    -0.000022    -4.696918  -183.477443
	   52 D(1,7,14,15)    =    179.268250    -0.000021    -4.628119   174.640130
	   53 D(1,7,14,16)    =      2.431480    -0.000032    -7.009987    -4.578507
	   54 D(2,1,6,5)      =      1.428313     0.000003     0.931445     2.359758
	   55 D(2,1,6,12)     =   -179.952346     0.000003     0.677071  -179.275275
	   56 *D(2,1,7,13)    =    -70.000009     0.000000     0.000000   -70.000009
	   57 D(2,1,7,14)     =    111.970419     0.000001     0.596202   112.566621
	   58 D(2,3,4,5)      =      0.668273    -0.000001    -0.148025     0.520248
	   59 D(2,3,4,10)     =   -179.589257    -0.000001    -0.229055  -179.818312
	   60 D(3,2,1,6)      =     -0.493223    -0.000005    -1.350282    -1.843505
	   61 D(3,2,1,7)      =   -178.449589     0.000004     1.369987  -177.079602
	   62 D(3,4,5,6)      =      0.281245    -0.000001    -0.275516     0.005729
	   63 D(3,4,5,11)     =   -179.592903    -0.000002    -0.491991  -180.084894
	   64 D(4,3,2,8)      =   -179.434277     0.000001     0.502009  -178.932268
	   65 D(4,5,6,12)     =   -179.935934     0.000001     0.149201  -179.786734
	   66 D(5,4,3,9)      =   -178.951067    -0.000001    -0.043960  -178.995026
	   67 D(5,6,1,7)      =    179.385505    -0.000006    -1.781077   177.604428
	   68 D(6,1,2,8)      =    178.380501    -0.000002    -0.904200   177.476301
	   69 D(6,1,7,13)     =    112.017988     0.000009     2.656013   114.674001
	   70 D(6,1,7,14)     =    -66.011583     0.000010     3.252214   -62.759369
	   71 D(6,5,4,10)     =   -179.461238    -0.000001    -0.194508  -179.655746
	   72 D(7,1,2,8)      =      0.424135     0.000007     1.816069     2.240204
	   73 D(7,1,6,12)     =     -1.995154    -0.000007    -2.035451    -4.030605
	   74 D(8,2,3,9)      =      0.187370     0.000001     0.398791     0.586161
	   75 D(9,3,4,10)     =      0.791404    -0.000001    -0.124990     0.666414
	   76 D(10,4,5,11)    =      0.664614    -0.000002    -0.410984     0.253631
	   77 D(11,5,6,12)    =     -0.060993     0.000001     0.364276     0.303283
	   78 D(13,7,14,15)   =      1.272209    -0.000018    -3.990995    -2.718786
	   79 D(13,7,14,16)   =   -175.564560    -0.000030    -6.372863  -181.937423
	   80 D(14,7,13,17)   =   -177.620954    -0.000025    -5.501653  -183.122607
	   81 D(14,7,13,18)   =     -0.785115    -0.000024    -5.337718    -6.122833
	 ---------------------------------------------------------------------------
	Successfully symmetrized geometry.

  ==> Convergence Check <==

  Measures of convergence in internal coordinates in au.
  Criteria marked as inactive (o), active & met (*), and active & unmet ( ).
  ---------------------------------------------------------------------------------------------
   Step     Total Energy     Delta E     MAX Force     RMS Force      MAX Disp      RMS Disp   
  ---------------------------------------------------------------------------------------------
    Convergence Criteria    1.00e-06 *    3.00e-04 *             o    1.20e-03 *             o
  ---------------------------------------------------------------------------------------------
      2    -381.46544479   -2.83e-03      4.96e-03      1.17e-03 o    1.22e-01      3.20e-02 o  ~
  ---------------------------------------------------------------------------------------------

	Writing optimization data to binary file.
	Structure for next step:
	Cartesian Geometry (in Angstrom)
	    C    -0.0207232723  -0.0406743935  -0.1879159208
	    C    -1.1765236571   0.3435247954   0.5074170148
	    C    -1.1533309367   0.3651915051   1.9011727578
	    C     0.0122052446   0.0153256138   2.5882323027
	    C     1.1657957319  -0.3481307986   1.8876668075
	    C     1.1619884426  -0.3641749919   0.4938389155
	    C    -0.0159196871  -0.0041070460  -1.6683264848
	    H    -2.0746042878   0.6311896386  -0.0323128122
	    H    -2.0424516153   0.6626093517   2.4479976858
	    H     0.0234502431   0.0311975108   3.6736502506
	    H     2.0698396502  -0.6180000094   2.4245678646
	    H     2.0546282066  -0.6491611353  -0.0562540517
	    N    -0.7449510232  -0.8849660874  -2.3371271963
	    N     0.7582080521   0.8765321688  -2.2855321263
	    H     0.8768279489   0.9118137668  -3.2957453126
	    H     1.2745988529   1.5504048763  -1.7261634152
	    H    -1.2845635102  -1.5697094547  -1.8172308918
	    H    -0.8316075658  -0.8888160880  -3.3513864921
			--------------------------
			 OPTKING Finished Execution 
			--------------------------

    Structure for next step:
    Molecular point group: c1
    Full point group: C1

    Geometry (in Angstrom), charge = 1, multiplicity = 1:

    C           -0.020179623351    -0.036935977038    -0.186157918688
    C           -1.175980008072     0.347263211878     0.509175016949
    C           -1.152787287673     0.368929921603     1.902930760005
    C            0.012748893556     0.019064030288     2.589990304842
    C            1.166339380839    -0.344392382105     1.889424809620
    C            1.162532091552    -0.360436575456     0.495596917633
    C           -0.015376038107    -0.000368629565    -1.666568482650
    H           -2.074060638785     0.634928055050    -0.030554809997
    H           -2.041907966282     0.666347768185     2.449755687911
    H            0.023993892117     0.034935927225     3.675408252707
    H            2.070383299203    -0.614261592976     2.426325866708
    H            2.055171855608    -0.645422718871    -0.054496049539
    N           -0.744407374255    -0.881227670974    -2.335369194193
    N            0.758751701078     0.880270585312    -2.283774124166
    H            0.877371597890     0.915552183315    -3.293987310418
    H            1.275142501836     1.554143292739    -1.724405413057
    H           -1.284019861230    -1.565971038239    -1.815472889595
    H           -0.831063916845    -0.885077671529    -3.349628489940

gradient() will perform analytic gradient computation.

*** tstart() called on computer03
*** at Fri Aug 11 18:29:28 2017

   => Loading Basis Set <=

    Name: 6-31G*
    Role: ORBITAL
    Keyword: BASIS
    atoms 1-7         entry C          line   102 file /home/raimis/opt/miniconda3/envs/htmd/share/psi4/basis/6-31gs.gbs 
    atoms 8-12, 15-18 entry H          line    35 file /home/raimis/opt/miniconda3/envs/htmd/share/psi4/basis/6-31gs.gbs 
    atoms 13-14       entry N          line   119 file /home/raimis/opt/miniconda3/envs/htmd/share/psi4/basis/6-31gs.gbs 


         ---------------------------------------------------------
                                   SCF
            by Justin Turney, Rob Parrish, and Andy Simmonett
                              RKS Reference
                        8 Threads,   1907 MiB Core
         ---------------------------------------------------------

  ==> Geometry <==

    Molecular point group: c1
    Full point group: C1

    Geometry (in Angstrom), charge = 1, multiplicity = 1:

       Center              X                  Y                   Z               Mass       
    ------------   -----------------  -----------------  -----------------  -----------------
           C         -0.020179623351    -0.036935977038    -0.186157918688    12.000000000000
           C         -1.175980008072     0.347263211878     0.509175016949    12.000000000000
           C         -1.152787287673     0.368929921603     1.902930760005    12.000000000000
           C          0.012748893556     0.019064030288     2.589990304842    12.000000000000
           C          1.166339380839    -0.344392382105     1.889424809620    12.000000000000
           C          1.162532091552    -0.360436575456     0.495596917633    12.000000000000
           C         -0.015376038107    -0.000368629565    -1.666568482650    12.000000000000
[...]
	             0.0015419460        0.0043854172        0.0001206121
	            -0.0000140273       -0.0000251617       -0.0000107433
	             0.0000086115        0.0000013797       -0.0000075318
	             0.0000188598        0.0000323000        0.0000105684
	            -0.0000332074       -0.0000698845       -0.0000372699
	            -0.0046802910        0.0064916772        0.0001605668
	            -0.0000041184       -0.0000167405        0.0000021548
	             0.0000019535        0.0000024233       -0.0000000993
	            -0.0000018002       -0.0000007826        0.0000023633
	            -0.0000014243        0.0000007707       -0.0000006380
	             0.0000110309        0.0000159539        0.0000045608
	             0.0037464856       -0.0030809653       -0.0000577305
	            -0.0000426640       -0.0000002494        0.0000519004
	             0.0000185404       -0.0000155212       -0.0000038774
	             0.0000185441       -0.0000002310       -0.0000193959
	            -0.0000021764       -0.0000122441       -0.0000144595
	            -0.0000035020       -0.0000068031        0.0000080892

	---Fragment 1 Intrafragment Coordinates---
	 - Coordinate -           - BOHR/RAD -       - ANG/DEG -
	 R(1,2)           =         2.652105	       1.403434
	 R(1,6)           =         2.652998	       1.403906
	 R(1,7)           =         2.793498	       1.478256
	 R(2,3)           =         2.633656	       1.393671
	 R(2,8)           =         2.053046	       1.086425
	 R(3,4)           =         2.640785	       1.397443
	 R(3,9)           =         2.050834	       1.085255
	 R(4,5)           =         2.641885	       1.398025
	 R(4,10)          =         2.051549	       1.085633
	 R(5,6)           =         2.632792	       1.393214
	 R(5,11)          =         2.050887	       1.085283
	 R(6,12)          =         2.052928	       1.086363
	 R(7,13)          =         2.504470	       1.325308
	 R(7,14)          =         2.504234	       1.325184
	 R(13,17)         =         1.913297	       1.012473
	 R(13,18)         =         1.917233	       1.014556
	 R(14,15)         =         1.917214	       1.014546
	 R(14,16)         =         1.913191	       1.012417
	 B(1,2,3)         =         2.080135	     119.182959
	 B(1,2,8)         =         2.101847	     120.426940
	 B(1,6,5)         =         2.079223	     119.130714
	 B(1,6,12)        =         2.101387	     120.400594
	 B(1,7,13)        =         2.082394	     119.312365
	 B(1,7,14)        =         2.078817	     119.107436
	 B(2,1,6)         =         2.111490	     120.979475
	 B(2,1,7)         =         2.084528	     119.434636
	 B(2,3,4)         =         2.095524	     120.064668
	 B(2,3,9)         =         2.088858	     119.682728
	 B(3,2,8)         =         2.101171	     120.388218
	 B(3,4,5)         =         2.103031	     120.494800
	 B(3,4,10)        =         2.090223	     119.760947
	 B(4,3,9)         =         2.098779	     120.251203
	 B(4,5,6)         =         2.096166	     120.101492
	 B(4,5,11)        =         2.098393	     120.229070
	 B(5,4,10)        =         2.089917	     119.743432
	 B(5,6,12)        =         2.102181	     120.446093
	 B(6,1,7)         =         2.083266	     119.362364
	 B(6,5,11)        =         2.088618	     119.669002
	 B(7,13,17)       =         2.079803	     119.163915
	 B(7,13,18)       =         2.155523	     123.502366
	 B(7,14,15)       =         2.154678	     123.453952
	 B(7,14,16)       =         2.079949	     119.172293
	 B(13,7,14)       =         2.120497	     121.495531
	 B(15,14,16)      =         2.048340	     117.361239
	 B(17,13,18)      =         2.046949	     117.281516
	 D(1,2,3,4)       =         0.003198	       0.183214
	 D(1,2,3,9)       =         3.137294	     179.753687
	 D(1,6,5,4)       =        -0.031942	      -1.830133
	 D(1,6,5,11)      =         3.113834	     178.409563
	 D(1,7,13,17)     =        -0.020478	      -1.173281
	 D(1,7,13,18)     =         3.073956	     176.124681
	 D(1,7,14,15)     =         3.049706	     174.735279
	 D(1,7,14,16)     =        -0.114965	      -6.587016
	 D(2,1,6,5)       =         0.046349	       2.655621
	 D(2,1,6,12)      =        -3.125287	    -179.065780
	*D(2,1,7,13)      =        -1.221731	     -70.000009
	 D(2,1,7,14)      =         1.977371	     113.295009
	 D(2,3,4,5)       =         0.010770	       0.617049
	 D(2,3,4,10)      =        -3.136589	    -179.713319
	 D(3,2,1,6)       =        -0.031982	      -1.832434
	 D(3,2,1,7)       =        -3.078159	    -176.365543
	 D(3,4,5,6)       =         0.003844	       0.220220
	 D(3,4,5,11)      =         3.141229	     179.979170
	 D(4,3,2,8)       =        -3.129721	    -179.319779
	 D(4,5,6,12)      =         3.139709	     179.892071
	 D(5,4,3,9)       =        -3.123283	    -178.950959
	 D(5,6,1,7)       =         3.092595	     177.192626
	 D(6,1,2,8)       =         3.100933	     177.670362
	 D(6,1,7,13)      =         2.013720	     115.377643
	 D(6,1,7,14)      =        -1.070364	     -61.327339
	 D(6,5,4,10)      =        -3.131984	    -179.449470
	 D(7,1,2,8)       =         0.054755	       3.137253
	 D(7,1,6,12)      =        -0.079042	      -4.528774
	 D(8,2,3,9)       =         0.004375	       0.250693
	 D(9,3,4,10)      =         0.012543	       0.718673
	 D(10,4,5,11)     =         0.005401	       0.309480
	 D(11,5,6,12)     =         0.002300	       0.131767
	 D(13,7,14,15)    =        -0.033076	      -1.895104
	 D(13,7,14,16)    =         3.085438	     176.782601
	 D(14,7,13,17)    =         3.062186	     175.450348
	 D(14,7,13,18)    =        -0.126566	      -7.251690

	Current energy   :      -381.4662661560

	Energy change for the previous step:
		Projected    :        -0.0000038146
		Actual       :        -0.0000014306

	Performing BFGS update.
	Previous computed or guess Hessian on step 1.
	Steps to be used in Hessian update: 5 4
	Taking RFO optimization step.
	Going to follow RFO solution 1.
	Rejecting RFO root 1 because normalization gives large value.
	Using RFO vector 2.
	Norm of target step-size    0.00271
	Projected energy change by RFO approximation:        -0.0000005338

	Back-transformation to cartesian coordinates...
	Successfully converged to displaced geometry.

	Back-transformation to cartesian coordinates to adjust frozen coordinates...
	Successfully converged to displaced geometry.

	--- Internal Coordinate Step in ANG or DEG, aJ/ANG or AJ/DEG ---
	 ---------------------------------------------------------------------------
	   Coordinate                Previous        Force       Change         New 
	   ----------                --------       ------       ------       ------
	    1 R(1,2)          =      1.403434     0.000162     0.000030     1.403464
	    2 R(1,6)          =      1.403906     0.000132     0.000027     1.403933
	    3 R(1,7)          =      1.478256     0.000203     0.000004     1.478260
	    4 R(2,3)          =      1.393671     0.000091     0.000008     1.393679
	    5 R(2,8)          =      1.086425     0.000017     0.000002     1.086428
	    6 R(3,4)          =      1.397443    -0.000077    -0.000010     1.397434
	    7 R(3,9)          =      1.085255     0.000011     0.000002     1.085256
	    8 R(4,5)          =      1.398025     0.000000     0.000002     1.398027
	    9 R(4,10)         =      1.085633    -0.000018    -0.000004     1.085629
	   10 R(5,6)          =      1.393214    -0.000032    -0.000011     1.393203
	   11 R(5,11)         =      1.085283     0.000013     0.000004     1.085286
	   12 R(6,12)         =      1.086363    -0.000024    -0.000005     1.086358
	   13 R(7,13)         =      1.325308    -0.000071    -0.000003     1.325305
	   14 R(7,14)         =      1.325184     0.000187     0.000027     1.325210
	   15 R(13,17)        =      1.012473    -0.000002     0.000004     1.012477
	   16 R(13,18)        =      1.014556     0.000059     0.000020     1.014576
	   17 R(14,15)        =      1.014546    -0.000042     0.000005     1.014551
	   18 R(14,16)        =      1.012417    -0.000004     0.000012     1.012429
	   19 B(1,2,3)        =    119.182959     0.000001     0.003287   119.186247
	   20 B(1,2,8)        =    120.426940    -0.000000    -0.002040   120.424900
	   21 B(1,6,5)        =    119.130714     0.000001     0.001645   119.132359
	   22 B(1,6,12)       =    120.400594    -0.000001    -0.004842   120.395751
	   23 B(1,7,13)       =    119.312365     0.000001     0.003010   119.315375
	   24 B(1,7,14)       =    119.107436     0.000000     0.000445   119.107881
	   25 B(2,1,6)        =    120.979475    -0.000002    -0.005921   120.973553
	   26 B(2,1,7)        =    119.434636     0.000000    -0.000311   119.434325
	   27 B(2,3,4)        =    120.064668     0.000000     0.000006   120.064674
	   28 B(2,3,9)        =    119.682728    -0.000000    -0.000126   119.682602
	   29 B(3,2,8)        =    120.388218    -0.000000    -0.001589   120.386629
	   30 B(3,4,5)        =    120.494800    -0.000000    -0.001793   120.493007
	   31 B(3,4,10)       =    119.760947     0.000000     0.001587   119.762534
	   32 B(4,3,9)        =    120.251203    -0.000000     0.000289   120.251492
	   33 B(4,5,6)        =    120.101492     0.000001     0.001576   120.103067
	   34 B(4,5,11)       =    120.229070    -0.000000    -0.000867   120.228203
	   35 B(5,4,10)       =    119.743432     0.000000     0.000197   119.743629
	   36 B(5,6,12)       =    120.446093     0.000000     0.001645   120.447738
	   37 B(6,1,7)        =    119.362364     0.000002     0.005959   119.368324
	   38 B(6,5,11)       =    119.669002    -0.000000    -0.000812   119.668190
	   39 B(7,13,17)      =    119.163915    -0.000001    -0.006895   119.157020
	   40 B(7,13,18)      =    123.502366     0.000000     0.001722   123.504088
	   41 B(7,14,15)      =    123.453952     0.000001     0.003579   123.457531
	   42 B(7,14,16)      =    119.172293    -0.000002    -0.009838   119.162455
	   43 B(13,7,14)      =    121.495531    -0.000001    -0.003218   121.492312
	   44 B(15,14,16)     =    117.361239     0.000001     0.004577   117.365817
	   45 B(17,13,18)     =    117.281516     0.000001     0.004455   117.285971
	   46 D(1,2,3,4)      =      0.183214    -0.000000    -0.043951     0.139264
	   47 D(1,2,3,9)      =    179.753687    -0.000000    -0.017190   179.736497
	   48 D(1,6,5,4)      =     -1.830133    -0.000000    -0.052427    -1.882561
	   49 D(1,6,5,11)     =    178.409563    -0.000000    -0.025473   178.384089
	   50 D(1,7,13,17)    =     -1.173281     0.000000     0.010404    -1.162877
	   51 D(1,7,13,18)    =    176.124681    -0.000000    -0.007997   176.116683
	   52 D(1,7,14,15)    =    174.735279     0.000000     0.058017   174.793296
	   53 D(1,7,14,16)    =     -6.587016    -0.000000    -0.027937    -6.614953
	   54 D(2,1,6,5)      =      2.655621     0.000000     0.031830     2.687451
	   55 D(2,1,6,12)     =   -179.065780    -0.000000    -0.026267  -179.092047
	   56 *D(2,1,7,13)    =    -70.000009     0.000000    -0.000000   -70.000009
	   57 D(2,1,7,14)     =    113.295009    -0.000000    -0.004489   113.290520
	   58 D(2,3,4,5)      =      0.617049     0.000000     0.023818     0.640867
	   59 D(2,3,4,10)     =   -179.713319     0.000000     0.022131  -179.691188
	   60 D(3,2,1,6)      =     -1.832434     0.000000     0.016339    -1.816095
	   61 D(3,2,1,7)      =   -176.365543     0.000000     0.019332  -176.346211
	   62 D(3,4,5,6)      =      0.220220     0.000000     0.025136     0.245356
	   63 D(3,4,5,11)     =    179.979170     0.000000    -0.001970   179.977200
	   64 D(4,3,2,8)      =   -179.319779     0.000000    -0.000651  -179.320431
	   65 D(4,5,6,12)     =    179.892071     0.000000     0.005815   179.897886
	   66 D(5,4,3,9)      =   -178.950959     0.000000    -0.003095  -178.954054
	   67 D(5,6,1,7)      =    177.192626     0.000000     0.028501   177.221127
	   68 D(6,1,2,8)      =    177.670362    -0.000000    -0.026975   177.643387
	   69 D(6,1,7,13)     =    115.377643     0.000000     0.003595   115.381238
	   70 D(6,1,7,14)     =    -61.327339    -0.000000    -0.000894   -61.328233
	   71 D(6,5,4,10)     =   -179.449470     0.000000     0.026818  -179.422652
	   72 D(7,1,2,8)      =      3.137253    -0.000000    -0.023982     3.113272
	   73 D(7,1,6,12)     =     -4.528774    -0.000000    -0.029596    -4.558371
	   74 D(8,2,3,9)      =      0.250693     0.000000     0.026109     0.276803
	   75 D(9,3,4,10)     =      0.718673    -0.000000    -0.004782     0.713891
	   76 D(10,4,5,11)    =      0.309480     0.000000    -0.000288     0.309192
	   77 D(11,5,6,12)    =      0.131767     0.000000     0.032769     0.164536
	   78 D(13,7,14,15)   =     -1.895104     0.000000     0.053211    -1.841893
	   79 D(13,7,14,16)   =    176.782601    -0.000000    -0.032743   176.749858
	   80 D(14,7,13,17)   =    175.450348     0.000000     0.015135   175.465483
	   81 D(14,7,13,18)   =     -7.251690     0.000000    -0.003266    -7.254956
	 ---------------------------------------------------------------------------
	Successfully symmetrized geometry.

  ==> Convergence Check <==

  Measures of convergence in internal coordinates in au.
  Criteria marked as inactive (o), active & met (*), and active & unmet ( ).
  ---------------------------------------------------------------------------------------------
   Step     Total Energy     Delta E     MAX Force     RMS Force      MAX Disp      RMS Disp   
  ---------------------------------------------------------------------------------------------
    Convergence Criteria    1.00e-06 *    3.00e-04 *             o    1.20e-03 *             o
  ---------------------------------------------------------------------------------------------
      6    -381.46626616   -1.43e-06      2.89e-05 *    1.09e-05 o    1.01e-03 *    3.01e-04 o  ~
  ---------------------------------------------------------------------------------------------


  **** Optimization is complete! (in 6 steps) ****

  ==> Optimization Summary <==

  Measures of convergence in internal coordinates in au.
  --------------------------------------------------------------------------------------------------------------- ~
   Step         Total Energy             Delta E       MAX Force       RMS Force        MAX Disp        RMS Disp  ~
  --------------------------------------------------------------------------------------------------------------- ~
      1    -381.462615692355   -381.462615692355      0.00657164      0.00182945      0.14632192      0.04414964  ~
      2    -381.465444794920     -0.002829102565      0.00495907      0.00117324      0.12234736      0.03195136  ~
      3    -381.466181728818     -0.000736933898      0.00372547      0.00072491      0.02318748      0.00613857  ~
      4    -381.466259051488     -0.000077322669      0.00072866      0.00012582      0.01317885      0.00264547  ~
      5    -381.466264725451     -0.000005673963      0.00025021      0.00005936      0.00440588      0.00114810  ~
      6    -381.466266156036     -0.000001430585      0.00002885      0.00001087      0.00101259      0.00030090  ~
  --------------------------------------------------------------------------------------------------------------- ~

	Writing optimization data to binary file.
	Final energy is   -381.4662661560363
	Final (previous) structure:
	Cartesian Geometry (in Angstrom)
	    C    -0.0229555839  -0.0432004901  -0.1867789157
	    C    -1.1783295870   0.3413025098   0.5109991934
	    C    -1.1527517735   0.3703337672   1.9041325285
	    C     0.0140739725   0.0231488964   2.5903017365
	    C     1.1669749933  -0.3429565997   1.8894020509
	    C     1.1619800816  -0.3598757453   0.4963000893
	    C    -0.0180190621   0.0014880234  -1.6643506563
	    H    -2.0792273186   0.6207771123  -0.0280713978
	    H    -2.0403687511   0.6702907071   2.4518002839
	    H     0.0271037637   0.0429840464   3.6756753936
	    H     2.0709036198  -0.6114653796   2.4266677073
	    H     2.0552173229  -0.6417741012  -0.0540128693
	    N    -0.7489139738  -0.8717647941  -2.3423360361
	    N     0.7688242754   0.8718664200  -2.2803299021
	    H     0.8825911147   0.9075172598  -3.2878463654
	    H     1.2742268803   1.5554348204  -1.7305205662
	    H    -1.2841038612  -1.5659962834  -1.8356644601
	    H    -0.8373644456  -0.8629738676  -3.3529906703
	Saving final (previous) structure.
			--------------------------
			 OPTKING Finished Execution 
			--------------------------

    Final optimized geometry and variables:
    Molecular point group: c1
    Full point group: C1

    Geometry (in Angstrom), charge = 1, multiplicity = 1:

    C           -0.022955583873    -0.043200490055    -0.186778915705
    C           -1.178329587028     0.341302509762     0.510999193386
    C           -1.152751773457     0.370333767214     1.904132528492
    C            0.014073972500     0.023148896377     2.590301736470
    C            1.166974993296    -0.342956599725     1.889402050872
    C            1.161980081591    -0.359875745256     0.496300089278
    C           -0.018019062132     0.001488023395    -1.664350656341
    H           -2.079227318643     0.620777112295    -0.028071397809
    H           -2.040368751140     0.670290707059     2.451800283852
    H            0.027103763693     0.042984046383     3.675675393606
    H            2.070903619799    -0.611465379613     2.426667707317
    H            2.055217322892    -0.641774101196    -0.054012869349
    N           -0.748913973826    -0.871764794055    -2.342336036144
    N            0.768824275425     0.871866420032    -2.280329902085
    H            0.882591114679     0.907517259820    -3.287846365391
    H            1.274226880346     1.555434820401    -1.730520566178
    H           -1.284103861152    -1.565996283373    -1.835664460093
    H           -0.837364445590    -0.862973867582    -3.352990670300

	Cleaning optimization helper files.


Properties will be evaluated at   0.000000,   0.000000,   0.000000 Bohr

Properties computed using the  density matrix

  Nuclear Dipole Moment: (a.u.)
     X:     0.0646      Y:     0.1076      Z:    -1.6130

  Electronic Dipole Moment: (a.u.)
     X:    -0.0688      Y:    -0.0634      Z:    -0.8826

  Dipole Moment: (a.u.)
     X:    -0.0042      Y:     0.0443      Z:    -2.4957     Total:     2.4961

  Dipole Moment: (Debye)
     X:    -0.0107      Y:     0.1125      Z:    -6.3433     Total:     6.3443

  Quadrupole Moment: (Debye Ang)
    XX:   -40.4962     YY:   -46.5826     ZZ:   -13.4426
    XY:     3.6561     XZ:     0.2027     YZ:     0.1857

  Traceless Quadrupole Moment: (Debye Ang)
    XX:    -6.9891     YY:   -13.0754     ZZ:    20.0646
    XY:     3.6561     XZ:     0.2027     YZ:     0.1857

  Mulliken Charges: (a.u.)
   Center  Symbol    Alpha    Beta     Spin     Total
       1     C     2.98575  2.98575  0.00000  0.02851
       2     C     3.07270  3.07270  0.00000 -0.14540
       3     C     3.06194  3.06194  0.00000 -0.12388
       4     C     3.05310  3.05310  0.00000 -0.10620
       5     C     3.06321  3.06321  0.00000 -0.12641
       6     C     3.07428  3.07428  0.00000 -0.14855
       7     C     2.74219  2.74219  0.00000  0.51562
       8     H     0.41336  0.41336  0.00000  0.17328
       9     H     0.40683  0.40683  0.00000  0.18634
      10     H     0.40598  0.40598  0.00000  0.18803
      11     H     0.40680  0.40680  0.00000  0.18639
      12     H     0.41345  0.41345  0.00000  0.17311
      13     N     3.84807  3.84807  0.00000 -0.69615
      14     N     3.84900  3.84900  0.00000 -0.69800
      15     H     0.30518  0.30518  0.00000  0.38964
      16     H     0.29659  0.29659  0.00000  0.40682
      17     H     0.29621  0.29621  0.00000  0.40758
      18     H     0.30537  0.30537  0.00000  0.38927

   Total alpha = 32.00000, Total beta = 32.00000, Total charge =  1.00000


*** Psi4 exiting successfully. Buy a developer a beer!
