    -----------------------------------------------------------------------
          Psi4: An Open-Source Ab Initio Electronic Structure Package
                              Psi4 (no tag) Driver

                          Git: Rev {detached?}  

    J. M. Turney, A. C. Simmonett, R. M. Parrish, E. G. Hohenstein,
    F. A. Evangelista, J. T. Fermann, B. J. Mintz, L. A. Burns, J. J. Wilke,
    M. L. Abrams, N. J. Russ, M. L. Leininger, C. L. Janssen, E. T. Seidl,
    W. D. Allen, H. F. Schaefer, R. A. King, E. F. Valeev, C. D. Sherrill,
    and T. D. Crawford, WIREs Comput. Mol. Sci. 2, 556-565 (2012)
    (doi: 10.1002/wcms.93)

                         Additional Contributions by
    A. E. DePrince, M. Saitow, U. Bozkaya, A. Yu. Sokolov
    -----------------------------------------------------------------------


    Psi4 started on: Tue Jul  5 16:32:09 2016

    Process ID:  17307
    PSI4DATADIR: /export131/home/mjharvey/miniconda3/share
    Memory level set to 256.000 MB

  ==> Input File <==

--------------------------------------------------------------------------
set {
	reference rhf
	basis 6-31G*
}


set_num_threads( 1 )
memory 2 gb

molecule MOL {
0 1

H	 0.163325	 0.678206	 1.732947
O	 0.428306	 1.057262	 0.900582
C	 0.489431	 0.077273	 0.000046
C	 -0.764129	 -0.759190	 0.000191
O	 1.436301	 -0.082777	 -0.698801
C	 -2.038368	 0.075731	 -0.000248
H	 -0.717284	 -1.412404	 -0.866059
H	 -0.717458	 -1.411724	 0.866967
H	 -2.086483	 0.712501	 -0.875098
H	 -2.908485	 -0.571682	 -0.000042
H	 -2.086576	 0.713280	 0.874068

	symmetry c1
}
set optking {
	frozen_dihedral = ("
		2 3 4 7
	")
}

ee = energy('scf')
oeprop('DIPOLE', 'QUADRUPOLE', 'MULLIKEN_CHARGES')
f=open( 'psi4out.xyz', 'w' )
f.write( "11  " )
f.write( str(ee) + "\n" )
f.write( MOL.save_string_xyz() )
f.close()
--------------------------------------------------------------------------

  Memory set to   2.000 GiB by Python script.

*** tstart() called on cx1-3-15-3.cx1.hpc.ic.ac.uk
*** at Tue Jul  5 16:32:09 2016


         ---------------------------------------------------------
                                   SCF
            by Justin Turney, Rob Parrish, and Andy Simmonett
                              RHF Reference
                        1 Threads,   2000 MiB Core
         ---------------------------------------------------------

  ==> Geometry <==

    Molecular point group: c1
    Full point group: C1

    Geometry (in Angstrom), charge = 0, multiplicity = 1:

       Center              X                  Y                   Z               Mass       
    ------------   -----------------  -----------------  -----------------  -----------------
           H          0.249105141606     0.583514674007     1.665768497807     1.007825032070
           O          0.514086141606     0.962570674007     0.833403497807    15.994914619560
           C          0.575211141606    -0.017418325993    -0.067132502193    12.000000000000
           C         -0.678348858394    -0.853881325993    -0.066987502193    12.000000000000
           O          1.522081141606    -0.177468325993    -0.765979502193    15.994914619560
           C         -1.952587858394    -0.018960325993    -0.067426502193    12.000000000000
           H         -0.631503858394    -1.507095325993    -0.933237502193     1.007825032070
           H         -0.631677858394    -1.506415325993     0.799788497807     1.007825032070
           H         -2.000702858394     0.617809674007    -0.942276502193     1.007825032070
           H         -2.822704858394    -0.666373325993    -0.067220502193     1.007825032070
           H         -2.000795858394     0.618588674007     0.806889497807     1.007825032070

  Running in c1 symmetry.

  Rotational constants: A =      0.30964  B =      0.13483  C =      0.10470 [cm^-1]
  Rotational constants: A =   9282.70941  B =   4042.20217  C =   3138.73821 [MHz]
  Nuclear repulsion =  180.861971716635452

  Charge       = 0
  Multiplicity = 1
  Electrons    = 40
  Nalpha       = 20
  Nbeta        = 20

  ==> Algorithm <==

  SCF Algorithm Type is DF.
  DIIS enabled.
  MOM disabled.
  Fractional occupation disabled.
  Guess Type is CORE.
  Energy threshold   = 1.00e-06
  Density threshold  = 1.00e-06
  Integral threshold = 0.00e+00

  ==> Primary Basis <==

  Basis Set: 6-31G*
    Number of shells: 42
    Number of basis function: 87
    Number of Cartesian functions: 87
    Spherical Harmonics?: false
    Max angular momentum: 2

  ==> Pre-Iterations <==

   -------------------------------------------------------
    Irrep   Nso     Nmo     Nalpha   Nbeta   Ndocc  Nsocc
   -------------------------------------------------------
     A         87      87       0       0       0       0
   -------------------------------------------------------
    Total      87      87      20      20      20       0
   -------------------------------------------------------

 OEINTS: Overlap, kinetic, potential, dipole, and quadrupole integrals
         stored in file 35.

  ==> Integral Setup <==

  ==> DFJK: Density-Fitted J/K Matrices <==

    J tasked:                  Yes
    K tasked:                  Yes
    wK tasked:                  No
    OpenMP threads:              1
    Integrals threads:           1
    Memory (MB):              1430
    Algorithm:                Core
    Integral Cache:           NONE
    Schwarz Cutoff:          1E-12
    Fitting Condition:       1E-12

   => Auxiliary Basis Set <=

  Basis Set: 
    Number of shells: 174
    Number of basis function: 555
    Number of Cartesian functions: 555
    Spherical Harmonics?: false
    Max angular momentum: 3

  Minimum eigenvalue in the overlap matrix is 3.6617047204E-03.
  Using Symmetric Orthogonalization.
  SCF Guess: Core (One-Electron) Hamiltonian.

  ==> Iterations <==

                           Total Energy        Delta E     RMS |[F,P]|

   @DF-RHF iter   1:  -217.29409263373728   -2.17294e+02   8.22740e-02 
   @DF-RHF iter   2:  -157.78572517499518    5.95084e+01   9.13225e-02 DIIS
   @DF-RHF iter   3:  -250.78024121015042   -9.29945e+01   3.85386e-02 DIIS
   @DF-RHF iter   4:  -239.86674683480928    1.09135e+01   6.23227e-02 DIIS
   @DF-RHF iter   5:  -266.44463369995447   -2.65779e+01   9.81150e-03 DIIS
   @DF-RHF iter   6:  -266.70028658150841   -2.55653e-01   6.17255e-03 DIIS
   @DF-RHF iter   7:  -266.80201530810609   -1.01729e-01   2.11670e-03 DIIS
   @DF-RHF iter   8:  -266.82031668622233   -1.83014e-02   7.85420e-04 DIIS
   @DF-RHF iter   9:  -266.82332343171265   -3.00675e-03   2.28532e-04 DIIS
   @DF-RHF iter  10:  -266.82354212466907   -2.18693e-04   9.24991e-05 DIIS
   @DF-RHF iter  11:  -266.82359452121511   -5.23965e-05   2.26770e-05 DIIS
   @DF-RHF iter  12:  -266.82359914086976   -4.61965e-06   8.05714e-06 DIIS
   @DF-RHF iter  13:  -266.82359984341349   -7.02544e-07   2.97404e-06 DIIS
   @DF-RHF iter  14:  -266.82359996567470   -1.22261e-07   1.11090e-06 DIIS
   @DF-RHF iter  15:  -266.82359998609616   -2.04215e-08   3.33181e-07 DIIS

  ==> Post-Iterations <==

    Orbital Energies (a.u.)
    -----------------------

    Doubly Occupied:                                                      

       1A    -20.607733     2A    -20.555828     3A    -11.380857  
       4A    -11.249630     5A    -11.236419     6A     -1.470811  
       7A     -1.371340     8A     -1.073551     9A     -0.910422  
      10A     -0.829335    11A     -0.711872    12A     -0.674844  
      13A     -0.670303    14A     -0.616408    15A     -0.568756  
      16A     -0.562367    17A     -0.519336    18A     -0.517388  
      19A     -0.482793    20A     -0.440339  

    Virtual:                                                              

      21A      0.167851    22A      0.203909    23A      0.264184  
      24A      0.281084    25A      0.295890    26A      0.311059  
      27A      0.337041    28A      0.389668    29A      0.411974  
      30A      0.500810    31A      0.563237    32A      0.719811  
      33A      0.728369    34A      0.742559    35A      0.788580  
      36A      0.827740    37A      0.868500    38A      0.931861  
      39A      0.951149    40A      0.977668    41A      1.036389  
      42A      1.088487    43A      1.118238    44A      1.127898  
      45A      1.153055    46A      1.188296    47A      1.190923  
      48A      1.219794    49A      1.247052    50A      1.295470  
      51A      1.346438    52A      1.350212    53A      1.367636  
      54A      1.437858    55A      1.590910    56A      1.657692  
      57A      1.762301    58A      1.802309    59A      1.846827  
      60A      1.977721    61A      2.025797    62A      2.059211  
      63A      2.106471    64A      2.137817    65A      2.151722  
      66A      2.221507    67A      2.260125    68A      2.282494  
      69A      2.362116    70A      2.435428    71A      2.578201  
      72A      2.606391    73A      2.647855    74A      2.685974  
      75A      2.786352    76A      2.824541    77A      2.945303  
      78A      3.040937    79A      3.130584    80A      3.218350  
      81A      3.377578    82A      3.475679    83A      4.243972  
      84A      4.486357    85A      4.626611    86A      4.733073  
      87A      4.936647  

    Final Occupation by Irrep:
              A 
    DOCC [    20 ]

  Energy converged.

  @DF-RHF Final Energy:  -266.82359998609616

   => Energetics <=

    Nuclear Repulsion Energy =            180.8619717166354519
    One-Electron Energy =                -722.4704496271745029
    Two-Electron Energy =                 274.7848779244419575
    DFT Exchange-Correlation Energy =       0.0000000000000000
    Empirical Dispersion Energy =           0.0000000000000000
    PCM Polarization Energy =               0.0000000000000000
    EFP Energy =                            0.0000000000000000
    Total Energy =                       -266.8235999860970651

    Alert: EFP and PCM quantities not currently incorporated into SCF psivars.

Properties will be evaluated at   0.000000,   0.000000,   0.000000 Bohr
  ==> Properties <==


Properties computed using the SCF density matrix

  Nuclear Dipole Moment: (a.u.)
     X:    -7.3384      Y:    -1.7399      Z:     1.2469

  Electronic Dipole Moment: (a.u.)
     X:     6.0399      Y:     1.2333      Z:    -0.2860

  Dipole Moment: (a.u.)
     X:    -1.2985      Y:    -0.5066      Z:     0.9609     Total:     1.6930

  Dipole Moment: (Debye)
     X:    -3.3005      Y:    -1.2878      Z:     2.4423     Total:     4.3031


  Saving occupied orbitals to File 180.

*** tstop() called on cx1-3-15-3.cx1.hpc.ic.ac.uk at Tue Jul  5 16:32:13 2016
Module time:
	user time   =       3.29 seconds =       0.05 minutes
	system time =       0.02 seconds =       0.00 minutes
	total time  =          4 seconds =       0.07 minutes
Total time:
	user time   =       3.29 seconds =       0.05 minutes
	system time =       0.02 seconds =       0.00 minutes
	total time  =          4 seconds =       0.07 minutes


Properties will be evaluated at   0.000000,   0.000000,   0.000000 Bohr

Properties computed using the  density matrix

  Nuclear Dipole Moment: (a.u.)
     X:    -7.3384      Y:    -1.7399      Z:     1.2469

  Electronic Dipole Moment: (a.u.)
     X:     6.0399      Y:     1.2333      Z:    -0.2860

  Dipole Moment: (a.u.)
     X:    -1.2985      Y:    -0.5066      Z:     0.9609     Total:     1.6930

  Dipole Moment: (Debye)
     X:    -3.3005      Y:    -1.2878      Z:     2.4423     Total:     4.3031

  Quadrupole Moment: (Debye Ang)
    XX:   -34.8013     YY:   -31.5093     ZZ:   -27.0674
    XY:    -0.1899     XZ:     2.6003     YZ:    -1.0663

  Traceless Quadrupole Moment: (Debye Ang)
    XX:    -3.6753     YY:    -0.3833     ZZ:     4.0586
    XY:    -0.1899     XZ:     2.6003     YZ:    -1.0663

  Mulliken Charges: (a.u.)
   Center  Symbol    Alpha    Beta     Spin     Total
       1     H     0.26832  0.26832  0.00000  0.46336
       2     O     4.34660  4.34660  0.00000 -0.69319
       3     C     2.62499  2.62499  0.00000  0.75002
       4     C     3.22538  3.22538  0.00000 -0.45076
       5     O     4.25776  4.25776  0.00000 -0.51553
       6     C     3.24184  3.24184  0.00000 -0.48367
       7     H     0.39287  0.39287  0.00000  0.21426
       8     H     0.40824  0.40824  0.00000  0.18353
       9     H     0.40670  0.40670  0.00000  0.18661
      10     H     0.41076  0.41076  0.00000  0.17848
      11     H     0.41656  0.41656  0.00000  0.16689

   Total alpha = 20.00000, Total beta = 20.00000, Total charge = -0.00000


*** PSI4 exiting successfully. Buy a developer a beer!
