    -----------------------------------------------------------------------
          Psi4: An Open-Source Ab Initio Electronic Structure Package
                              Psi4 (no tag) Driver

                          Git: Rev {detached?}  

    J. M. Turney, A. C. Simmonett, R. M. Parrish, E. G. Hohenstein,
    F. A. Evangelista, J. T. Fermann, B. J. Mintz, L. A. Burns, J. J. Wilke,
    M. L. Abrams, N. J. Russ, M. L. Leininger, C. L. Janssen, E. T. Seidl,
    W. D. Allen, H. F. Schaefer, R. A. King, E. F. Valeev, C. D. Sherrill,
    and T. D. Crawford, WIREs Comput. Mol. Sci. 2, 556-565 (2012)
    (doi: 10.1002/wcms.93)

                         Additional Contributions by
    A. E. DePrince, M. Saitow, U. Bozkaya, A. Yu. Sokolov
    -----------------------------------------------------------------------


    Psi4 started on: Tue Jul  5 16:31:40 2016

    Process ID:  21516
    PSI4DATADIR: /export131/home/mjharvey/miniconda3/share
    Memory level set to 256.000 MB

  ==> Input File <==

--------------------------------------------------------------------------
set {
	reference rhf
	basis 6-31G*
}


set_num_threads( 1 )
memory 2 gb

molecule MOL {
0 1

H	 2.981860	 1.568886	 0.614258
C	 2.346686	 0.698967	 0.472719
C	 0.905647	 1.129332	 0.217159
H	 2.399409	 0.084349	 1.364475
H	 2.756826	 0.125504	 -0.351574
N	 -0.000257	 -0.000071	 0.054619
H	 0.574382	 1.713357	 1.066603
H	 0.861105	 1.798452	 -0.647121
C	 -1.363055	 0.315058	 0.462241
C	 0.062848	 -0.577601	 -1.281470
C	 -2.412078	 -0.285320	 -0.468531
H	 -1.482241	 1.391144	 0.451970
H	 -1.549931	 -0.001174	 1.492681
C	 -0.282629	 -2.063380	 -1.300125
H	 1.072532	 -0.463575	 -1.655222
H	 -0.581834	 -0.033155	 -1.977711
H	 -2.262839	 0.075384	 -1.480151
H	 -2.369300	 -1.368867	 -0.491760
H	 -3.410332	 -0.003975	 -0.144961
H	 0.395029	 -2.611673	 -0.655309
H	 -1.294404	 -2.254641	 -0.959121
H	 -0.196714	 -2.459164	 -2.308242

	symmetry c1
}
ee = energy('scf')
oeprop('DIPOLE', 'QUADRUPOLE', 'MULLIKEN_CHARGES')
f=open( 'psi4out.xyz', 'w' )
f.write( "22  " )
f.write( str(ee) + "\n" )
f.write( MOL.save_string_xyz() )
f.close()
--------------------------------------------------------------------------

  Memory set to   2.000 GiB by Python script.

*** tstart() called on cx1-3-15-2.cx1.hpc.ic.ac.uk
*** at Tue Jul  5 16:31:40 2016


         ---------------------------------------------------------
                                   SCF
            by Justin Turney, Rob Parrish, and Andy Simmonett
                              RHF Reference
                        1 Threads,   2000 MiB Core
         ---------------------------------------------------------

  ==> Geometry <==

    Molecular point group: c1
    Full point group: C1

    Geometry (in Angstrom), charge = 0, multiplicity = 1:

       Center              X                  Y                   Z               Mass       
    ------------   -----------------  -----------------  -----------------  -----------------
           H          3.091012064697     1.686118040501     0.888553562340     1.007825032070
           C          2.455838064697     0.816199040501     0.747014562340    12.000000000000
           C          1.014799064697     1.246564040501     0.491454562340    12.000000000000
           H          2.508561064697     0.201581040501     1.638770562340     1.007825032070
           H          2.865978064697     0.242736040501    -0.077278437660     1.007825032070
           N          0.108895064697     0.117161040501     0.328914562340    14.003074004780
           H          0.683534064697     1.830589040501     1.340898562340     1.007825032070
           H          0.970257064697     1.915684040501    -0.372825437660     1.007825032070
           C         -1.253902935303     0.432290040501     0.736536562340    12.000000000000
           C          0.172000064697    -0.460368959499    -1.007174437660    12.000000000000
           C         -2.302925935303    -0.168087959499    -0.194235437660    12.000000000000
           H         -1.373088935303     1.508376040501     0.726265562340     1.007825032070
           H         -1.440778935303     0.116058040501     1.766976562340     1.007825032070
           C         -0.173476935303    -1.946147959499    -1.025829437660    12.000000000000
           H          1.181684064697    -0.346342959499    -1.380926437660     1.007825032070
           H         -0.472681935303     0.084077040501    -1.703415437660     1.007825032070
           H         -2.153686935303     0.192616040501    -1.205855437660     1.007825032070
           H         -2.260147935303    -1.251634959499    -0.217464437660     1.007825032070
           H         -3.301179935303     0.113257040501     0.129334562340     1.007825032070
           H          0.504181064697    -2.494440959499    -0.381013437660     1.007825032070
           H         -1.185251935303    -2.137408959499    -0.684825437660     1.007825032070
           H         -0.087561935303    -2.341931959499    -2.033946437660     1.007825032070

  Running in c1 symmetry.

  Rotational constants: A =      0.12217  B =      0.06130  C =      0.04519 [cm^-1]
  Rotational constants: A =   3662.54519  B =   1837.82955  C =   1354.84686 [MHz]
  Nuclear repulsion =  342.749363759588505

  Charge       = 0
  Multiplicity = 1
  Electrons    = 58
  Nalpha       = 29
  Nbeta        = 29

  ==> Algorithm <==

  SCF Algorithm Type is DF.
  DIIS enabled.
  MOM disabled.
  Fractional occupation disabled.
  Guess Type is CORE.
  Energy threshold   = 1.00e-06
  Density threshold  = 1.00e-06
  Integral threshold = 0.00e+00

  ==> Primary Basis <==

  Basis Set: 6-31G*
    Number of shells: 72
    Number of basis function: 135
    Number of Cartesian functions: 135
    Spherical Harmonics?: false
    Max angular momentum: 2

  ==> Pre-Iterations <==

   -------------------------------------------------------
    Irrep   Nso     Nmo     Nalpha   Nbeta   Ndocc  Nsocc
   -------------------------------------------------------
     A        135     135       0       0       0       0
   -------------------------------------------------------
    Total     135     135      29      29      29       0
   -------------------------------------------------------

 OEINTS: Overlap, kinetic, potential, dipole, and quadrupole integrals
         stored in file 35.

  ==> Integral Setup <==

  ==> DFJK: Density-Fitted J/K Matrices <==

    J tasked:                  Yes
    K tasked:                  Yes
    wK tasked:                  No
    OpenMP threads:              1
    Integrals threads:           1
    Memory (MB):              1430
    Algorithm:                Core
    Integral Cache:           NONE
    Schwarz Cutoff:          1E-12
    Fitting Condition:       1E-12

   => Auxiliary Basis Set <=

  Basis Set: 
    Number of shells: 303
    Number of basis function: 942
    Number of Cartesian functions: 942
    Spherical Harmonics?: false
    Max angular momentum: 3

  Minimum eigenvalue in the overlap matrix is 3.2886526081E-03.
  Using Symmetric Orthogonalization.
  SCF Guess: Core (One-Electron) Hamiltonian.

  ==> Iterations <==

                           Total Energy        Delta E     RMS |[F,P]|

   @DF-RHF iter   1:  -167.80096259961010   -1.67801e+02   8.25820e-02 
   @DF-RHF iter   2:  -203.71728018458361   -3.59163e+01   5.03821e-02 DIIS
   @DF-RHF iter   3:  -242.38248606630748   -3.86652e+01   5.40162e-02 DIIS
   @DF-RHF iter   4:  -277.01171717833734   -3.46292e+01   2.72041e-02 DIIS
   @DF-RHF iter   5:  -274.85533529979796    2.15638e+00   2.61148e-02 DIIS
   @DF-RHF iter   6:  -289.38661854025918   -1.45313e+01   9.39801e-03 DIIS
   @DF-RHF iter   7:  -290.28571661548438   -8.99098e-01   1.99424e-03 DIIS
   @DF-RHF iter   8:  -290.33095450902545   -4.52379e-02   7.98377e-04 DIIS
   @DF-RHF iter   9:  -290.33883578513883   -7.88128e-03   1.89609e-04 DIIS
   @DF-RHF iter  10:  -290.33942014516288   -5.84360e-04   4.98565e-05 DIIS
   @DF-RHF iter  11:  -290.33945142265372   -3.12775e-05   1.71599e-05 DIIS
   @DF-RHF iter  12:  -290.33945556558433   -4.14293e-06   3.55890e-06 DIIS
   @DF-RHF iter  13:  -290.33945581681280   -2.51228e-07   1.02488e-06 DIIS
   @DF-RHF iter  14:  -290.33945583600212   -1.91893e-08   3.39602e-07 DIIS

  ==> Post-Iterations <==

    Orbital Energies (a.u.)
    -----------------------

    Doubly Occupied:                                                      

       1A    -15.534668     2A    -11.240583     3A    -11.239751  
       4A    -11.237597     5A    -11.205728     6A    -11.204386  
       7A    -11.200163     8A     -1.224943     9A     -1.033277  
      10A     -1.011931    11A     -0.963549    12A     -0.857791  
      13A     -0.834599    14A     -0.771327    15A     -0.669890  
      16A     -0.635700    17A     -0.627447    18A     -0.599299  
      19A     -0.568249    20A     -0.552300    21A     -0.542881  
      22A     -0.528587    23A     -0.515125    24A     -0.506364  
      25A     -0.485138    26A     -0.470190    27A     -0.467405  
      28A     -0.453523    29A     -0.334620  

    Virtual:                                                              

      30A      0.236986    31A      0.247454    32A      0.266862  
      33A      0.284918    34A      0.288204    35A      0.300893  
      36A      0.310192    37A      0.321799    38A      0.329246  
      39A      0.334168    40A      0.340802    41A      0.353706  
      42A      0.380395    43A      0.389769    44A      0.395074  
      45A      0.411195    46A      0.423719    47A      0.429844  
      48A      0.478591    49A      0.502346    50A      0.517390  
      51A      0.699330    52A      0.726356    53A      0.733964  
      54A      0.739779    55A      0.765877    56A      0.773935  
      57A      0.792812    58A      0.820278    59A      0.879195  
      60A      0.893571    61A      0.908544    62A      0.933246  
      63A      0.951033    64A      0.981547    65A      0.997236  
      66A      1.042911    67A      1.067771    68A      1.121628  
      69A      1.135806    70A      1.145261    71A      1.151797  
      72A      1.156260    73A      1.172071    74A      1.190920  
      75A      1.194110    76A      1.199325    77A      1.204151  
      78A      1.228678    79A      1.236375    80A      1.251688  
      81A      1.264548    82A      1.289674    83A      1.297697  
      84A      1.322367    85A      1.336515    86A      1.356861  
      87A      1.409566    88A      1.525957    89A      1.577268  
      90A      1.635833    91A      1.689937    92A      1.715224  
      93A      1.791089    94A      1.813426    95A      1.887726  
      96A      1.985118    97A      1.999718    98A      2.059155  
      99A      2.119207   100A      2.159752   101A      2.235602  
     102A      2.258495   103A      2.283440   104A      2.296170  
     105A      2.313251   106A      2.331282   107A      2.341048  
     108A      2.398262   109A      2.421749   110A      2.450285  
     111A      2.509836   112A      2.562133   113A      2.627895  
     114A      2.657388   115A      2.670022   116A      2.680153  
     117A      2.686898   118A      2.701566   119A      2.725936  
     120A      2.764861   121A      2.831912   122A      2.848592  
     123A      2.914015   124A      3.016569   125A      3.087733  
     126A      3.109046   127A      3.243479   128A      3.257250  
     129A      4.511132   130A      4.628261   131A      4.679859  
     132A      4.702446   133A      4.873553   134A      4.882551  
     135A      4.996399  

    Final Occupation by Irrep:
              A 
    DOCC [    29 ]

  Energy converged.

  @DF-RHF Final Energy:  -290.33945583600212

   => Energetics <=

    Nuclear Repulsion Energy =            342.7493637595885048
    One-Electron Energy =               -1071.1435507559622238
    Two-Electron Energy =                 438.0547311603725120
    DFT Exchange-Correlation Energy =       0.0000000000000000
    Empirical Dispersion Energy =           0.0000000000000000
    PCM Polarization Energy =               0.0000000000000000
    EFP Energy =                            0.0000000000000000
    Total Energy =                       -290.3394558360012070

    Alert: EFP and PCM quantities not currently incorporated into SCF psivars.

Properties will be evaluated at   0.000000,   0.000000,   0.000000 Bohr
  ==> Properties <==


Properties computed using the SCF density matrix

  Nuclear Dipole Moment: (a.u.)
     X:    -0.4401      Y:    -0.6384      Z:    -1.4697

  Electronic Dipole Moment: (a.u.)
     X:     0.3031      Y:     0.8809      Z:     1.2762

  Dipole Moment: (a.u.)
     X:    -0.1371      Y:     0.2424      Z:    -0.1936     Total:     0.3392

  Dipole Moment: (Debye)
     X:    -0.3485      Y:     0.6162      Z:    -0.4920     Total:     0.8621


  Saving occupied orbitals to File 180.

*** tstop() called on cx1-3-15-2.cx1.hpc.ic.ac.uk at Tue Jul  5 16:31:55 2016
Module time:
	user time   =      14.35 seconds =       0.24 minutes
	system time =       0.06 seconds =       0.00 minutes
	total time  =         15 seconds =       0.25 minutes
Total time:
	user time   =      14.35 seconds =       0.24 minutes
	system time =       0.06 seconds =       0.00 minutes
	total time  =         15 seconds =       0.25 minutes


Properties will be evaluated at   0.000000,   0.000000,   0.000000 Bohr

Properties computed using the  density matrix

  Nuclear Dipole Moment: (a.u.)
     X:    -0.4401      Y:    -0.6384      Z:    -1.4697

  Electronic Dipole Moment: (a.u.)
     X:     0.3031      Y:     0.8809      Z:     1.2762

  Dipole Moment: (a.u.)
     X:    -0.1371      Y:     0.2424      Z:    -0.1936     Total:     0.3392

  Dipole Moment: (Debye)
     X:    -0.3485      Y:     0.6162      Z:    -0.4920     Total:     0.8621

  Quadrupole Moment: (Debye Ang)
    XX:   -47.3012     YY:   -47.7458     ZZ:   -47.6020
    XY:     0.5207     XZ:    -0.6605     YZ:     0.8718

  Traceless Quadrupole Moment: (Debye Ang)
    XX:     0.2485     YY:    -0.1962     ZZ:    -0.0523
    XY:     0.5207     XZ:    -0.6605     YZ:     0.8718

  Mulliken Charges: (a.u.)
   Center  Symbol    Alpha    Beta     Spin     Total
       1     H     0.42388  0.42388  0.00000  0.15225
       2     C     3.23536  3.23536  0.00000 -0.47072
       3     C     3.05914  3.05914  0.00000 -0.11829
       4     H     0.41497  0.41497  0.00000  0.17007
       5     H     0.42136  0.42136  0.00000  0.15727
       6     N     3.78806  3.78806  0.00000 -0.57612
       7     H     0.41797  0.41797  0.00000  0.16405
       8     H     0.43321  0.43321  0.00000  0.13359
       9     C     3.04230  3.04230  0.00000 -0.08460
      10     C     3.06765  3.06765  0.00000 -0.13529
      11     C     3.26219  3.26219  0.00000 -0.52438
      12     H     0.42886  0.42886  0.00000  0.14228
      13     H     0.42037  0.42037  0.00000  0.15927
      14     C     3.23329  3.23329  0.00000 -0.46658
      15     H     0.41517  0.41517  0.00000  0.16966
      16     H     0.42965  0.42965  0.00000  0.14071
      17     H     0.41586  0.41586  0.00000  0.16828
      18     H     0.41397  0.41397  0.00000  0.17205
      19     H     0.41604  0.41604  0.00000  0.16793
      20     H     0.41517  0.41517  0.00000  0.16965
      21     H     0.42064  0.42064  0.00000  0.15871
      22     H     0.42490  0.42490  0.00000  0.15020

   Total alpha = 29.00000, Total beta = 29.00000, Total charge = -0.00000


*** PSI4 exiting successfully. Buy a developer a beer!
