    -----------------------------------------------------------------------
          Psi4: An Open-Source Ab Initio Electronic Structure Package
                              Psi4 (no tag) Driver

                          Git: Rev {detached?}  

    J. M. Turney, A. C. Simmonett, R. M. Parrish, E. G. Hohenstein,
    F. A. Evangelista, J. T. Fermann, B. J. Mintz, L. A. Burns, J. J. Wilke,
    M. L. Abrams, N. J. Russ, M. L. Leininger, C. L. Janssen, E. T. Seidl,
    W. D. Allen, H. F. Schaefer, R. A. King, E. F. Valeev, C. D. Sherrill,
    and T. D. Crawford, WIREs Comput. Mol. Sci. 2, 556-565 (2012)
    (doi: 10.1002/wcms.93)

                         Additional Contributions by
    A. E. DePrince, M. Saitow, U. Bozkaya, A. Yu. Sokolov
    -----------------------------------------------------------------------


    Psi4 started on: Tue Jul  5 16:28:25 2016

    Process ID:  28173
    PSI4DATADIR: /export131/home/mjharvey/miniconda3/share
    Memory level set to 256.000 MB

  ==> Input File <==

--------------------------------------------------------------------------
set {
	reference rhf
	basis 6-31G*
}


set_num_threads( 1 )
memory 2 gb

molecule MOL {
0 1

O	 0.808000	 1.327000	 -0.000000
C	 0.635000	 0.151000	 0.000000
C	 -0.709000	 -0.538000	 -0.000000
O	 1.627000	 -0.730000	 0.000000
C	 -1.887000	 0.432000	 0.000000
H	 -0.739000	 -1.192000	 -0.867000
H	 -0.739000	 -1.193000	 0.866000
C	 -3.230000	 -0.298000	 -0.000000
H	 -1.817000	 1.080000	 -0.867000
H	 -1.818000	 1.079000	 0.868000
H	 -3.336000	 -0.930000	 -0.877000
H	 -4.053000	 0.408000	 -0.001000
H	 -3.337000	 -0.930000	 0.877000
C	 2.945000	 -0.213000	 -0.000000
H	 3.117000	 0.389000	 -0.880000
H	 3.599000	 -1.072000	 -0.001000
H	 3.118000	 0.388000	 0.881000

	symmetry c1
}
ee = optimize('scf')
oeprop('DIPOLE', 'QUADRUPOLE', 'MULLIKEN_CHARGES')
f=open( 'psi4out.xyz', 'w' )
f.write( "17  " )
f.write( str(ee) + "\n" )
f.write( MOL.save_string_xyz() )
f.close()
--------------------------------------------------------------------------

  Memory set to   2.000 GiB by Python script.
gradient() will perform analytic gradient computation.

*** tstart() called on cx1-3-2-3.cx1.hpc.ic.ac.uk
*** at Tue Jul  5 16:28:26 2016


         ---------------------------------------------------------
                                   SCF
            by Justin Turney, Rob Parrish, and Andy Simmonett
                              RHF Reference
                        1 Threads,   2000 MiB Core
         ---------------------------------------------------------

  ==> Geometry <==

    Molecular point group: c1
    Full point group: C1

    Geometry (in Angstrom), charge = 0, multiplicity = 1:

       Center              X                  Y                   Z               Mass       
    ------------   -----------------  -----------------  -----------------  -----------------
           O          0.749768006152     1.307713605585     0.000009874047    15.994914619560
           C          0.576768006152     0.131713605585     0.000009874047    12.000000000000
           C         -0.767231993848    -0.557286394415     0.000009874047    12.000000000000
           O          1.568768006152    -0.749286394415     0.000009874047    15.994914619560
           C         -1.945231993848     0.412713605585     0.000009874047    12.000000000000
           H         -0.797231993848    -1.211286394415    -0.866990125953     1.007825032070
           H         -0.797231993848    -1.212286394415     0.866009874047     1.007825032070
           C         -3.288231993848    -0.317286394415     0.000009874047    12.000000000000
           H         -1.875231993848     1.060713605585    -0.866990125953     1.007825032070
           H         -1.876231993848     1.059713605585     0.868009874047     1.007825032070
           H         -3.394231993848    -0.949286394415    -0.876990125953     1.007825032070
           H         -4.111231993848     0.388713605585    -0.000990125953     1.007825032070
           H         -3.395231993848    -0.949286394415     0.877009874047     1.007825032070
           C          2.886768006152    -0.232286394415     0.000009874047    12.000000000000
           H          3.058768006152     0.369713605585    -0.879990125953     1.007825032070
           H          3.540768006152    -1.091286394415    -0.000990125953     1.007825032070
           H          3.059768006152     0.368713605585     0.881009874047     1.007825032070

  Running in c1 symmetry.

  Rotational constants: A =      0.28583  B =      0.04006  C =      0.03606 [cm^-1]
  Rotational constants: A =   8569.05279  B =   1200.84901  C =   1080.92729 [MHz]
  Nuclear repulsion =  312.460795009877415

  Charge       = 0
  Multiplicity = 1
  Electrons    = 56
  Nalpha       = 28
  Nbeta        = 28

  ==> Algorithm <==

  SCF Algorithm Type is DF.
  DIIS enabled.
  MOM disabled.
  Fractional occupation disabled.
  Guess Type is CORE.
  Energy threshold   = 1.00e-08
  Density threshold  = 1.00e-08
  Integral threshold = 0.00e+00

  ==> Primary Basis <==

  Basis Set: 6-31G*
    Number of shells: 62
    Number of basis function: 125
    Number of Cartesian functions: 125
    Spherical Harmonics?: false
    Max angular momentum: 2

  ==> Pre-Iterations <==

   -------------------------------------------------------
    Irrep   Nso     Nmo     Nalpha   Nbeta   Ndocc  Nsocc
   -------------------------------------------------------
     A        125     125       0       0       0       0
   -------------------------------------------------------
    Total     125     125      28      28      28       0
   -------------------------------------------------------

 OEINTS: Overlap, kinetic, potential, dipole, and quadrupole integrals
         stored in file 35.

  ==> Integral Setup <==

  ==> DFJK: Density-Fitted J/K Matrices <==

    J tasked:                  Yes
    K tasked:                  Yes
    wK tasked:                  No
    OpenMP threads:              1
    Integrals threads:           1
    Memory (MB):              1430
    Algorithm:                Core
    Integral Cache:           NONE
    Schwarz Cutoff:          1E-12
    Fitting Condition:       1E-12

   => Auxiliary Basis Set <=

  Basis Set: 
    Number of shells: 258
    Number of basis function: 817
    Number of Cartesian functions: 817
    Spherical Harmonics?: false
    Max angular momentum: 3

  Minimum eigenvalue in the overlap matrix is 2.8131649983E-03.
  Using Symmetric Orthogonalization.
  SCF Guess: Core (One-Electron) Hamiltonian.

  ==> Iterations <==

                           Total Energy        Delta E     RMS |[F,P]|

   @DF-RHF iter   1:  -231.19619201578871   -2.31196e+02   7.81224e-02 
   @DF-RHF iter   2:  -130.99724062932876    1.00199e+02   8.98659e-02 DIIS
   @DF-RHF iter   3:  -218.98974543918371   -8.79925e+01   7.74686e-02 DIIS
   @DF-RHF iter   4:  -287.56615105207186   -6.85764e+01   6.46809e-02 DIIS
   @DF-RHF iter   5:  -339.91532696713045   -5.23492e+01   2.09388e-02 DIIS
   @DF-RHF iter   6:  -344.09289122735379   -4.17756e+00   1.08547e-02 DIIS
   @DF-RHF iter   7:  -344.81622640722219   -7.23335e-01   3.12000e-03 DIIS
   @DF-RHF iter   8:  -344.88487539345704   -6.86490e-02   1.55029e-03 DIIS
   @DF-RHF iter   9:  -344.90434529716458   -1.94699e-02   4.35223e-04 DIIS
   @DF-RHF iter  10:  -344.90647669043688   -2.13139e-03   1.45116e-04 DIIS
   @DF-RHF iter  11:  -344.90678962630477   -3.12936e-04   6.54239e-05 DIIS
   @DF-RHF iter  12:  -344.90685259806764   -6.29718e-05   1.69045e-05 DIIS
   @DF-RHF iter  13:  -344.90685831764893   -5.71958e-06   7.55904e-06 DIIS
   @DF-RHF iter  14:  -344.90685933149666   -1.01385e-06   2.03352e-06 DIIS
   @DF-RHF iter  15:  -344.90685940448145   -7.29848e-08   5.15100e-07 DIIS
   @DF-RHF iter  16:  -344.90685940978949   -5.30804e-09   1.18266e-07 DIIS
   @DF-RHF iter  17:  -344.90685941001539   -2.25896e-10   3.91175e-08 DIIS
   @DF-RHF iter  18:  -344.90685941003721   -2.18279e-11   9.22959e-09 DIIS

  ==> Post-Iterations <==

    Orbital Energies (a.u.)
    -----------------------

    Doubly Occupied:                                                      

       1A    -20.604152     2A    -20.545925     3A    -11.372738  
       4A    -11.281163     5A    -11.236046     6A    -11.222003  
       7A    -11.214466     8A     -1.469910     9A     -1.363376  
      10A     -1.080460    11A     -1.001445    12A     -0.939782  
      13A     -0.827271    14A     -0.767526    15A     -0.700339  
      16A     -0.683711    17A     -0.672408    18A     -0.637094  
      19A     -0.595066    20A     -0.574858    21A     -0.569052  
      22A     -0.527337    23A     -0.522063    24A     -0.498522  
      25A     -0.487188    26A     -0.479007    27A     -0.456444  
      28A     -0.438183  

    Virtual:                                                              

      29A      0.199345    30A      0.228856    31A      0.261335  
      32A      0.284211    33A      0.293143    34A      0.304398  
      35A      0.310380    36A      0.316657    37A      0.326742  
      38A      0.334515    39A      0.342706    40A      0.369454  
      41A      0.401412    42A      0.423269    43A      0.474668  
      44A      0.522494    45A      0.564679    46A      0.725494  
      47A      0.728523    48A      0.741890    49A      0.741999  
      50A      0.771046    51A      0.775127    52A      0.793658  
      53A      0.842227    54A      0.875951    55A      0.898774  
      56A      0.946050    57A      0.967520    58A      1.002486  
      59A      1.060084    60A      1.068141    61A      1.094574  
      62A      1.119285    63A      1.124373    64A      1.138175  
      65A      1.138871    66A      1.164081    67A      1.173396  
      68A      1.202655    69A      1.208154    70A      1.225475  
      71A      1.227667    72A      1.232062    73A      1.261870  
      74A      1.301419    75A      1.314035    76A      1.379498  
      77A      1.407010    78A      1.546363    79A      1.621029  
      80A      1.625061    81A      1.664195    82A      1.728328  
      83A      1.755445    84A      1.801082    85A      1.871982  
      86A      1.882527    87A      1.976709    88A      2.034647  
      89A      2.038768    90A      2.134312    91A      2.144051  
      92A      2.169020    93A      2.209938    94A      2.253337  
      95A      2.277484    96A      2.302349    97A      2.352776  
      98A      2.363371    99A      2.395707   100A      2.430018  
     101A      2.445263   102A      2.499076   103A      2.550828  
     104A      2.655733   105A      2.663400   106A      2.679420  
     107A      2.682893   108A      2.733834   109A      2.816321  
     110A      2.835515   111A      2.903934   112A      2.958717  
     113A      3.066975   114A      3.068200   115A      3.159280  
     116A      3.348849   117A      3.449625   118A      3.577664  
     119A      4.413519   120A      4.553880   121A      4.613420  
     122A      4.683009   123A      4.747404   124A      4.842568  
     125A      4.994205  

    Final Occupation by Irrep:
              A 
    DOCC [    28 ]

  Energy converged.

  @DF-RHF Final Energy:  -344.90685941003721

   => Energetics <=

    Nuclear Repulsion Energy =            312.4607950098774154
    One-Electron Energy =               -1089.2002392538590811
    Two-Electron Energy =                 431.8325848339432014
    DFT Exchange-Correlation Energy =       0.0000000000000000
    Empirical Dispersion Energy =           0.0000000000000000
    PCM Polarization Energy =               0.0000000000000000
    EFP Energy =                            0.0000000000000000
    Total Energy =                       -344.9068594100384644

    Alert: EFP and PCM quantities not currently incorporated into SCF psivars.

Properties will be evaluated at   0.000000,   0.000000,   0.000000 Bohr
  ==> Properties <==


Properties computed using the SCF density matrix

  Nuclear Dipole Moment: (a.u.)
     X:    -6.1643      Y:    -2.0277      Z:    -0.0008

  Electronic Dipole Moment: (a.u.)
     X:     6.2708      Y:     1.3384      Z:     0.0006

  Dipole Moment: (a.u.)
     X:     0.1066      Y:    -0.6894      Z:    -0.0002     Total:     0.6976

  Dipole Moment: (Debye)
     X:     0.2709      Y:    -1.7522      Z:    -0.0006     Total:     1.7731


  Saving occupied orbitals to File 180.

*** tstop() called on cx1-3-2-3.cx1.hpc.ic.ac.uk at Tue Jul  5 16:28:37 2016
Module time:
	user time   =      11.50 seconds =       0.19 minutes
	system time =       0.07 seconds =       0.00 minutes
	total time  =         11 seconds =       0.18 minutes
Total time:
	user time   =      11.50 seconds =       0.19 minutes
	system time =       0.07 seconds =       0.00 minutes
	total time  =         11 seconds =       0.18 minutes

*** tstart() called on cx1-3-2-3.cx1.hpc.ic.ac.uk
*** at Tue Jul  5 16:28:37 2016


         ------------------------------------------------------------
                                   SCF GRAD                          
                          Rob Parrish, Justin Turney,                
                       Andy Simmonett, and Alex Sokolov              
         ------------------------------------------------------------

  ==> Geometry <==

    Molecular point group: c1
    Full point group: C1

    Geometry (in Angstrom), charge = 0, multiplicity = 1:

       Center              X                  Y                   Z               Mass       
    ------------   -----------------  -----------------  -----------------  -----------------
           O          0.749768006152     1.307713605585     0.000009874047    15.994914619560
           C          0.576768006152     0.131713605585     0.000009874047    12.000000000000
           C         -0.767231993848    -0.557286394415     0.000009874047    12.000000000000
           O          1.568768006152    -0.749286394415     0.000009874047    15.994914619560
           C         -1.945231993848     0.412713605585     0.000009874047    12.000000000000
           H         -0.797231993848    -1.211286394415    -0.866990125953     1.007825032070
           H         -0.797231993848    -1.212286394415     0.866009874047     1.007825032070
           C         -3.288231993848    -0.317286394415     0.000009874047    12.000000000000
           H         -1.875231993848     1.060713605585    -0.866990125953     1.007825032070
           H         -1.876231993848     1.059713605585     0.868009874047     1.007825032070
           H         -3.394231993848    -0.949286394415    -0.876990125953     1.007825032070
           H         -4.111231993848     0.388713605585    -0.000990125953     1.007825032070
           H         -3.395231993848    -0.949286394415     0.877009874047     1.007825032070
           C          2.886768006152    -0.232286394415     0.000009874047    12.000000000000
           H          3.058768006152     0.369713605585    -0.879990125953     1.007825032070
           H          3.540768006152    -1.091286394415    -0.000990125953     1.007825032070
           H          3.059768006152     0.368713605585     0.881009874047     1.007825032070

  Nuclear repulsion =  312.460795009877472

  ==> Basis Set <==

  Basis Set: 6-31G*
    Number of shells: 62
    Number of basis function: 125
    Number of Cartesian functions: 125
    Spherical Harmonics?: false
    Max angular momentum: 2

  ==> DFJKGrad: Density-Fitted SCF Gradients <==

    Gradient:                    1
    J tasked:                  Yes
    K tasked:                  Yes
    wK tasked:                  No
    OpenMP threads:              1
    Integrals threads:           1
    Memory (MB):              1430
    Schwarz Cutoff:          0E+00
    Fitting Condition:       1E-12

   => Auxiliary Basis Set <=

  Basis Set: 
    Number of shells: 258
    Number of basis function: 817
    Number of Cartesian functions: 817
    Spherical Harmonics?: false
    Max angular momentum: 3


  -Total Gradient:
     Atom            X                  Y                   Z
    ------   -----------------  -----------------  -----------------
       1       -0.000140287483    -0.000051905093     0.000007569277
       2        0.000830365578     0.000332124820    -0.000044125790
       3       -0.000570944202    -0.000741592435     0.000182323753
       4        0.000054812609    -0.000013324977    -0.000030783187
       5        0.000160774010     0.000423576243    -0.000282979339
       6        0.000021424184     0.000151056042     0.000119031275
       7        0.000033710603     0.000182996273    -0.000232544064
       8       -0.000775104345    -0.000184398540     0.000164845109
       9        0.000087313439    -0.000000135475     0.000000672945
      10       -0.000026031260    -0.000010380885     0.000096047475
      11        0.000077273035     0.000141769829     0.000158339271
      12        0.000462424057    -0.000250568957    -0.000057987596
      13        0.000025980460     0.000021051428    -0.000117573757
      14       -0.000564127921     0.000705230879    -0.000170762963
      15       -0.000042957951    -0.000223869166     0.000298797252
      16        0.000320188538    -0.000444390923    -0.000017511961
      17        0.000045186646    -0.000037239063    -0.000073357699


*** tstop() called on cx1-3-2-3.cx1.hpc.ic.ac.uk at Tue Jul  5 16:28:52 2016
Module time:
	user time   =      14.05 seconds =       0.23 minutes
	system time =       0.06 seconds =       0.00 minutes
	total time  =         15 seconds =       0.25 minutes
Total time:
	user time   =      25.56 seconds =       0.43 minutes
	system time =       0.13 seconds =       0.00 minutes
	total time  =         26 seconds =       0.43 minutes
CURRENT ENERGY: -344.9068594100

			-----------------------------------------
			 OPTKING 2.0: for geometry optimizations 
			  - R.A. King,  Bethel University        
			-----------------------------------------

	Internal coordinates to be generated automatically.
	Detected frag with atoms:  1 2 3 4 5 6 7 8 9 10 11 12 13 14 15 16 17
	---Fragment 1 Bond Connectivity---
	 1 : 2
	 2 : 1 3 4
	 3 : 2 5 6 7
	 4 : 2 14
	 5 : 3 8 9 10
	 6 : 3
	 7 : 3
	 8 : 5 11 12 13
	 9 : 5
	 10 : 5
	 11 : 8
	 12 : 8
	 13 : 8
	 14 : 4 15 16 17
	 15 : 14
	 16 : 14
	 17 : 14

	---Fragment 1 Geometry and Gradient---
	 O           1.4168561948        2.4712205748        0.0000186592
	 C           1.0899335738        0.2489026425        0.0000186592
	 C          -1.4498583488       -1.0531186630        0.0000186592
	 O           2.9645418977       -1.4159460805        0.0000186592
	 C          -3.6759557333        0.7799156859        0.0000186592
	 H          -1.5065501327       -2.2889995539       -1.6383738980
	 H          -1.5065501327       -2.2908892801        1.6365214903
	 C          -6.2138579298       -0.5995843911        0.0000186592
	 H          -3.5436749040        2.0044582200       -1.6383738980
	 H          -3.5455646301        2.0025684938        1.6403009426
	 H          -6.4141688999       -1.7938913071       -1.6572711593
	 H          -7.7691025371        0.7345622587       -0.0018710669
	 H          -6.4160586260       -1.7938913071        1.6573084778
	 C           5.4552009408       -0.4389576698        0.0000186592
	 H           5.7802338357        0.6986574622       -1.6629403377
	 H           6.6910818317       -2.0622324180       -0.0018710669
	 H           5.7821235618        0.6967677360        1.6648673823
	            -0.0001402875       -0.0000519051        0.0000075693
	             0.0008303656        0.0003321248       -0.0000441258
	            -0.0005709442       -0.0007415924        0.0001823238
	             0.0000548126       -0.0000133250       -0.0000307832
	             0.0001607740        0.0004235762       -0.0002829793
	             0.0000214242        0.0001510560        0.0001190313
	             0.0000337106        0.0001829963       -0.0002325441
	            -0.0007751043       -0.0001843985        0.0001648451
	             0.0000873134       -0.0000001355        0.0000006729
	            -0.0000260313       -0.0000103809        0.0000960475
	             0.0000772730        0.0001417698        0.0001583393
	             0.0004624241       -0.0002505690       -0.0000579876
	             0.0000259805        0.0000210514       -0.0001175738
	            -0.0005641279        0.0007052309       -0.0001707630
	            -0.0000429580       -0.0002238692        0.0002987973
	             0.0003201885       -0.0004443909       -0.0000175120
	             0.0000451866       -0.0000372391       -0.0000733577

	Previous optimization step data not found.  Starting new optimization.

	---Fragment 1 Intrafragment Coordinates---
	 - Coordinate -           - BOHR/RAD -       - ANG/DEG -
	 R(1,2)           =         2.246236	       1.188657
	 R(2,3)           =         2.854085	       1.510317
	 R(2,4)           =         2.507165	       1.326735
	 R(3,5)           =         2.883665	       1.525970
	 R(3,6)           =         2.053033	       1.086419
	 R(3,7)           =         2.052665	       1.086223
	 R(4,14)          =         2.675423	       1.415773
	 R(5,8)           =         2.888593	       1.528578
	 R(5,9)           =         2.049715	       1.084663
	 R(5,10)          =         2.049977	       1.084801
	 R(8,11)          =         2.052584	       1.086181
	 R(8,12)          =         2.049082	       1.084328
	 R(8,13)          =         2.052770	       1.086279
	 R(14,15)         =         2.040894	       1.079995
	 R(14,16)         =         2.040202	       1.079629
	 R(14,17)         =         2.041684	       1.080413
	 B(1,2,3)         =         2.190573	     125.510583
	 B(1,2,4)         =         2.150939	     123.239743
	 B(2,3,5)         =         1.979012	     113.389058
	 B(2,3,6)         =         1.874643	     107.409115
	 B(2,3,7)         =         1.875139	     107.437563
	 B(2,4,14)        =         2.041571	     116.973425
	 B(3,2,4)         =         1.941673	     111.249673
	 B(3,5,8)         =         1.954843	     112.004252
	 B(3,5,9)         =         1.907034	     109.264976
	 B(3,5,10)        =         1.907122	     109.270041
	 B(4,14,15)       =         1.930302	     110.598185
	 B(4,14,16)       =         1.847705	     105.865699
	 B(4,14,17)       =         1.930717	     110.621908
	 B(5,3,6)         =         1.940498	     111.182344
	 B(5,3,7)         =         1.941195	     111.222298
	 B(5,8,11)        =         1.942944	     111.322512
	 B(5,8,12)        =         1.934681	     110.849073
	 B(5,8,13)        =         1.943778	     111.370248
	 B(6,3,7)         =         1.846766	     105.811908
	 B(8,5,9)         =         1.919852	     109.999402
	 B(8,5,10)        =         1.918475	     109.920530
	 B(9,5,10)        =         1.853714	     106.209986
	 B(11,8,12)       =         1.879714	     107.699705
	 B(11,8,13)       =         1.879396	     107.681435
	 B(12,8,13)       =         1.880515	     107.745597
	 B(15,14,16)      =         1.924390	     110.259426
	 B(15,14,17)      =         1.905888	     109.199347
	 B(16,14,17)      =         1.924474	     110.264229
	 D(1,2,3,5)       =         0.000000	       0.000000
	 D(1,2,3,6)       =         2.151010	     123.243770
	 D(1,2,3,7)       =        -2.152257	    -123.315228
	 D(1,2,4,14)      =         0.000000	       0.000000
	 D(2,3,5,8)       =         3.141593	     180.000000
	 D(2,3,5,9)       =         1.009831	      57.859067
	 D(2,3,5,10)      =        -1.011515	     -57.955522
	 D(2,4,14,15)     =        -1.056151	     -60.512999
	 D(2,4,14,16)     =        -3.140630	    -179.944828
	 D(2,4,14,17)     =         1.057754	      60.604817
	 D(3,2,4,14)      =         3.141593	     180.000000
	 D(3,5,8,11)      =        -1.048641	     -60.082709
	 D(3,5,8,12)      =        -3.140606	    -179.943458
	 D(3,5,8,13)      =         1.049050	      60.106154
	 D(4,2,3,5)       =         3.141593	     180.000000
	 D(4,2,3,6)       =        -0.990583	     -56.756230
	 D(4,2,3,7)       =         0.989336	      56.684772
	 D(6,3,5,8)       =         1.027214	      58.855003
	 D(6,3,5,9)       =        -1.104548	     -63.285931
	 D(6,3,5,10)      =        -3.125894	    -179.100519
	 D(7,3,5,8)       =        -1.026050	     -58.788351
	 D(7,3,5,9)       =         3.125374	     179.070716
	 D(7,3,5,10)      =         1.104028	      63.256127
	 D(9,5,8,11)      =         1.075783	      61.637831
	 D(9,5,8,12)      =        -1.016182	     -58.222918
	 D(9,5,8,13)      =        -3.109711	    -178.173306
	 D(10,5,8,11)     =         3.110970	     178.245452
	 D(10,5,8,12)     =         1.019005	      58.384703
	 D(10,5,8,13)     =        -1.074524	     -61.565685

	Current energy   :      -344.9068594100

	Generating empirical Hessian (Schlegel '84) for each fragment.
	Taking RFO optimization step.
	Going to follow RFO solution 1.
	Using RFO vector 1.
	Norm of target step-size    0.00750
	Projected energy change by RFO approximation:        -0.0000088050

	Back-transformation to cartesian coordinates...
	Successfully converged to displaced geometry.

	--- Internal Coordinate Step in ANG or DEG, aJ/ANG or AJ/DEG ---
	 ---------------------------------------------------------------------------
	   Coordinate                Previous        Force       Change         New 
	   ----------                --------       ------       ------       ------
	    1 R(1,2)          =      1.188657     0.000591     0.000034     1.188691
	    2 R(2,3)          =      1.510317    -0.004691    -0.000962     1.509355
	    3 R(2,4)          =      1.326735     0.001077     0.000115     1.326850
	    4 R(3,5)          =      1.525970    -0.000658    -0.000142     1.525828
	    5 R(3,6)          =      1.086419     0.001537     0.000280     1.086699
	    6 R(3,7)          =      1.086223     0.002444     0.000445     1.086669
	    7 R(4,14)         =      1.415773     0.001855     0.000276     1.416049
	    8 R(5,8)          =      1.528578    -0.002587    -0.000562     1.528015
	    9 R(5,9)          =      1.084663    -0.000041    -0.000007     1.084655
	   10 R(5,10)         =      1.084801    -0.000569    -0.000103     1.084698
	   11 R(8,11)         =      1.086181     0.001795     0.000327     1.086508
	   12 R(8,12)         =      1.084328     0.004235     0.000767     1.085094
	   13 R(8,13)         =      1.086279     0.000904     0.000165     1.086444
	   14 R(14,15)        =      1.079995     0.003090     0.000551     1.080546
	   15 R(14,16)        =      1.079629    -0.004511    -0.000804     1.078825
	   16 R(14,17)        =      1.080413     0.000604     0.000108     1.080520
	   17 B(1,2,3)        =    125.510583     0.000009     0.028378   125.538961
	   18 B(1,2,4)        =    123.239743    -0.000013    -0.039182   123.200561
	   19 B(2,3,5)        =    113.389058     0.000006     0.027018   113.416076
	   20 B(2,3,6)        =    107.409115    -0.000001     0.020176   107.429291
	   21 B(2,3,7)        =    107.437563    -0.000001    -0.007284   107.430279
	   22 B(2,4,14)       =    116.973425     0.000009     0.027189   117.000614
	   23 B(3,2,4)        =    111.249673     0.000004     0.010778   111.260451
	   24 B(3,5,8)        =    112.004252     0.000011     0.047744   112.051995
	   25 B(3,5,9)        =    109.264976     0.000001     0.004446   109.269422
	   26 B(3,5,10)       =    109.270041    -0.000004     0.009187   109.279228
	   27 B(4,14,15)      =    110.598185    -0.000000    -0.000736   110.597449
	   28 B(4,14,16)      =    105.865699     0.000004     0.021281   105.886980
	   29 B(4,14,17)      =    110.621908    -0.000008    -0.040812   110.581096
	   30 B(5,3,6)        =    111.182344    -0.000001     0.009705   111.192049
	   31 B(5,3,7)        =    111.222298    -0.000004    -0.029815   111.192483
	   32 B(5,8,11)       =    111.322512     0.000006     0.040050   111.362562
	   33 B(5,8,12)       =    110.849073     0.000011     0.051477   110.900550
	   34 B(5,8,13)       =    111.370248    -0.000005    -0.034879   111.335369
	   35 B(6,3,7)        =    105.811908    -0.000000    -0.022141   105.789767
	   36 B(8,5,9)        =    109.999402    -0.000009    -0.069168   109.930235
	   37 B(8,5,10)       =    109.920530     0.000001     0.031211   109.951741
	   38 B(9,5,10)       =    106.209986     0.000001    -0.027237   106.182749
	   39 B(11,8,12)      =    107.699705    -0.000006    -0.004566   107.695139
	   40 B(11,8,13)      =    107.681435    -0.000001    -0.003792   107.677643
	   41 B(12,8,13)      =    107.745597    -0.000006    -0.051745   107.693853
	   42 B(15,14,16)     =    110.259426     0.000002     0.017122   110.276548
	   43 B(15,14,17)     =    109.199347     0.000001    -0.000872   109.198474
	   44 B(16,14,17)     =    110.264229     0.000001     0.004558   110.268788
	   45 D(1,2,3,5)      =      0.000000    -0.000000    -0.076125    -0.076125
	   46 D(1,2,3,6)      =    123.243770     0.000000    -0.031360   123.212410
	   47 D(1,2,3,7)      =   -123.315228    -0.000000    -0.050700  -123.365928
	   48 D(1,2,4,14)     =      0.000000    -0.000000     0.015822     0.015822
	   49 D(2,3,5,8)      =    180.000000    -0.000000    -0.027574   179.972426
	   50 D(2,3,5,9)      =     57.859067     0.000000     0.025210    57.884277
	   51 D(2,3,5,10)     =    -57.955522     0.000001     0.050216   -57.905306
	   52 D(2,4,14,15)    =    -60.512999     0.000001    -0.047767   -60.560766
	   53 D(2,4,14,16)    =   -179.944828    -0.000000    -0.080458  -180.025286
	   54 D(2,4,14,17)    =     60.604817    -0.000000    -0.076525    60.528292
	   55 D(3,2,4,14)     =    180.000000    -0.000000    -0.040486   179.959514
	   56 D(3,5,8,11)     =    -60.082709     0.000000    -0.040939   -60.123648
	   57 D(3,5,8,12)     =   -179.943458    -0.000001    -0.096267  -180.039725
	   58 D(3,5,8,13)     =     60.106154     0.000000    -0.042239    60.063915
	   59 D(4,2,3,5)      =    180.000000    -0.000000    -0.018223   179.981777
	   60 D(4,2,3,6)      =    -56.756230     0.000000     0.026542   -56.729688
	   61 D(4,2,3,7)      =     56.684772     0.000000     0.007202    56.691975
	   62 D(6,3,5,8)      =     58.855003    -0.000001    -0.080366    58.774637
	   63 D(6,3,5,9)      =    -63.285931    -0.000000    -0.027581   -63.313512
	   64 D(6,3,5,10)     =   -179.100519     0.000000    -0.002575  -179.103095
	   65 D(7,3,5,8)      =    -58.788351    -0.000000    -0.039826   -58.828177
	   66 D(7,3,5,9)      =    179.070716     0.000000     0.012959   179.083675
	   67 D(7,3,5,10)     =     63.256127     0.000001     0.037965    63.294092
	   68 D(9,5,8,11)     =     61.637831     0.000001    -0.051375    61.586455
	   69 D(9,5,8,12)     =    -58.222918    -0.000000    -0.106704   -58.329622
	   70 D(9,5,8,13)     =   -178.173306     0.000001    -0.052675  -178.225981
	   71 D(10,5,8,11)    =    178.245452    -0.000000    -0.106759   178.138693
	   72 D(10,5,8,12)    =     58.384703    -0.000001    -0.162087    58.222616
	   73 D(10,5,8,13)    =    -61.565685    -0.000000    -0.108058   -61.673744
	 ---------------------------------------------------------------------------

  ==> Convergence Check <==

  Measures of convergence in internal coordinates in au.
  Criteria marked as inactive (o), active & met (*), and active & unmet ( ).
  --------------------------------------------------------------------------------------------- ~
   Step     Total Energy     Delta E     MAX Force     RMS Force      MAX Disp      RMS Disp    ~
  --------------------------------------------------------------------------------------------- ~
    Convergence Criteria    1.00e-06 *    3.00e-04 *             o    1.20e-03 *             o  ~
  --------------------------------------------------------------------------------------------- ~
      1    -344.90685941   -3.45e+02      5.69e-04      1.48e-04 o    2.83e-03      8.77e-04 o  ~
  ---------------------------------------------------------------------------------------------

	Writing optimization data to binary file.
	Structure for next step:
	Cartesian Geometry (in Angstrom)
	    O     0.7498913734   1.3075106228  -0.0003428309
	    C     0.5763272985   0.1315592353   0.0004302333
	    C    -0.7668027281  -0.5570290340   0.0001034186
	    O     1.5685966840  -0.7493103474   0.0004643118
	    C    -1.9451702482   0.4123014562   0.0004968191
	    H    -0.7968229625  -1.2115370603  -0.8668637192
	    H    -0.7968683435  -1.2122907018   0.8664619156
	    C    -3.2879254515  -0.3169711409  -0.0005291562
	    H    -1.8757837062   1.0604505907  -0.8664317470
	    H    -1.8761768603   1.0595669127   0.8681706433
	    H    -3.3948724586  -0.9480853215  -0.8784567619
	    H    -4.1119012155   0.3890689459   0.0004714598
	    H    -3.3945374639  -0.9501149705   0.8758970460
	    C     2.8869916026  -0.2325604853  -0.0001301864
	    H     3.0592284203   0.3686809413  -0.8812787526
	    H     3.5405952122  -1.0908522819   0.0004556405
	    H     3.0592864323   0.3697437679   0.8802495250
			--------------------------
			 OPTKING Finished Execution 
			--------------------------

    Structure for next step:
    Molecular point group: c1
    Full point group: C1

    Geometry (in Angstrom), charge = 0, multiplicity = 1:

    O            0.749835852215     1.307572708291    -0.000392420301
    C            0.576271790568     0.131621410637     0.000380643787
    C           -0.766858133496    -0.556966806085     0.000053829153
    O            1.568541100255    -0.749248104822     0.000414722346
    C           -1.945225563582     0.412363610056     0.000447229573
    H           -0.796878365585    -1.211474782430    -0.866913242427
    H           -0.796923746592    -1.212228423897     0.866412259943
    C           -3.287980664363    -0.316908931396    -0.000578745601
    H           -1.875839026884     1.060512695091    -0.866481270256
    H           -1.876232180924     1.059629017109     0.868120987526
    H           -3.394927663283    -0.948023063787    -0.878506284314
    H           -4.111956365461     0.389131101553     0.000421870287
    H           -3.394592668616    -0.950052712577     0.875847389637
    C            2.886935918194    -0.232498282194    -0.000179775883
    H            3.059172722776     0.368743098458    -0.881328274753
    H            3.540539477934    -1.090790013283     0.000406050995
    H            3.059230734756     0.369805924984     0.880199868318

gradient() will perform analytic gradient computation.

*** tstart() called on cx1-3-2-3.cx1.hpc.ic.ac.uk
*** at Tue Jul  5 16:28:53 2016


         ---------------------------------------------------------
                                   SCF
            by Justin Turney, Rob Parrish, and Andy Simmonett
                              RHF Reference
                        1 Threads,   2000 MiB Core
         ---------------------------------------------------------

  ==> Geometry <==

    Molecular point group: c1
    Full point group: C1

    Geometry (in Angstrom), charge = 0, multiplicity = 1:

       Center              X                  Y                   Z               Mass       
    ------------   -----------------  -----------------  -----------------  -----------------
           O          0.749835852215     1.307572708291    -0.000392420301    15.994914619560
           C          0.576271790568     0.131621410637     0.000380643787    12.000000000000
           C         -0.766858133496    -0.556966806085     0.000053829153    12.000000000000
           O          1.568541100255    -0.749248104822     0.000414722346    15.994914619560
           C         -1.945225563582     0.412363610056     0.000447229573    12.000000000000
           H         -0.796878365585    -1.211474782430    -0.866913242427     1.007825032070
           H         -0.796923746592    -1.212228423897     0.866412259943     1.007825032070
           C         -3.287980664363    -0.316908931396    -0.000578745601    12.000000000000
           H         -1.875839026884     1.060512695091    -0.866481270256     1.007825032070
           H         -1.876232180924     1.059629017109     0.868120987526     1.007825032070
           H         -3.394927663283    -0.948023063787    -0.878506284314     1.007825032070
           H         -4.111956365461     0.389131101553     0.000421870287     1.007825032070
           H         -3.394592668616    -0.950052712577     0.875847389637     1.007825032070
           C          2.886935918194    -0.232498282194    -0.000179775883    12.000000000000
           H          3.059172722776     0.368743098458    -0.881328274753     1.007825032070
           H          3.540539477934    -1.090790013283     0.000406050995     1.007825032070
           H          3.059230734756     0.369805924984     0.880199868318     1.007825032070

  Running in c1 symmetry.

  Rotational constants: A =      0.28592  B =      0.04006  C =      0.03606 [cm^-1]
  Rotational constants: A =   8571.54039  B =   1200.92110  C =   1081.03199 [MHz]
  Nuclear repulsion =  312.472933499303679

  Charge       = 0
  Multiplicity = 1
  Electrons    = 56
  Nalpha       = 28
  Nbeta        = 28

  ==> Algorithm <==

  SCF Algorithm Type is DF.
  DIIS enabled.
  MOM disabled.
  Fractional occupation disabled.
  Guess Type is READ.
  Energy threshold   = 1.00e-08
  Density threshold  = 1.00e-08
  Integral threshold = 0.00e+00

  ==> Primary Basis <==

  Basis Set: 6-31G*
    Number of shells: 62
    Number of basis function: 125
    Number of Cartesian functions: 125
    Spherical Harmonics?: false
    Max angular momentum: 2

  ==> Pre-Iterations <==

   -------------------------------------------------------
    Irrep   Nso     Nmo     Nalpha   Nbeta   Ndocc  Nsocc
   -------------------------------------------------------
     A        125     125       0       0       0       0
   -------------------------------------------------------
    Total     125     125      28      28      28       0
   -------------------------------------------------------

 OEINTS: Overlap, kinetic, potential, dipole, and quadrupole integrals
         stored in file 35.

  ==> Integral Setup <==

  ==> DFJK: Density-Fitted J/K Matrices <==

    J tasked:                  Yes
    K tasked:                  Yes
    wK tasked:                  No
    OpenMP threads:              1
    Integrals threads:           1
    Memory (MB):              1430
    Algorithm:                Core
    Integral Cache:           NONE
    Schwarz Cutoff:          1E-12
    Fitting Condition:       1E-12

   => Auxiliary Basis Set <=

  Basis Set: 
    Number of shells: 258
    Number of basis function: 817
    Number of Cartesian functions: 817
    Spherical Harmonics?: false
    Max angular momentum: 3

  Minimum eigenvalue in the overlap matrix is 2.8069619363E-03.
  Using Symmetric Orthogonalization.
  SCF Guess: Reading in previously saved MOs, projecting if necessary.

  Using orbitals from previous SCF, no projection.
  Recomputing DOCC and SOCC from number of alpha and beta electrons from previous calculation.
              A 
    DOCC [    28 ]

  ==> Iterations <==

                           Total Energy        Delta E     RMS |[F,P]|

   @DF-RHF iter   0:  -344.90653919605080   -3.44907e+02   3.02263e-05 
   @DF-RHF iter   1:  -344.90686166998597   -3.22474e-04   5.07083e-06 
   @DF-RHF iter   2:  -344.90686194129950   -2.71314e-07   2.21167e-06 DIIS
   @DF-RHF iter   3:  -344.90686198046063   -3.91611e-08   8.83361e-07 DIIS
   @DF-RHF iter   4:  -344.90686198958718   -9.12655e-09   1.89364e-07 DIIS
   @DF-RHF iter   5:  -344.90686199005671   -4.69527e-10   6.93987e-08 DIIS
   @DF-RHF iter   6:  -344.90686199011446   -5.77529e-11   2.94129e-08 DIIS
   @DF-RHF iter   7:  -344.90686199012890   -1.44382e-11   9.56568e-09 DIIS

  ==> Post-Iterations <==

    Orbital Energies (a.u.)
    -----------------------

    Doubly Occupied:                                                      

       1A    -20.604047     2A    -20.545876     3A    -11.372702  
       4A    -11.281156     5A    -11.236108     6A    -11.221984  
       7A    -11.214595     8A     -1.469792     9A     -1.363245  
      10A     -1.080616    11A     -1.001509    12A     -0.939816  
      13A     -0.827269    14A     -0.767389    15A     -0.700395  
      16A     -0.683632    17A     -0.672347    18A     -0.637062  
      19A     -0.595220    20A     -0.574765    21A     -0.569035  
      22A     -0.527372    23A     -0.521944    24A     -0.498679  
      25A     -0.487124    26A     -0.478900    27A     -0.456365  
      28A     -0.438261  

    Virtual:                                                              

      29A      0.199264    30A      0.228811    31A      0.261340  
      32A      0.284110    33A      0.293094    34A      0.304358  
      35A      0.310347    36A      0.316745    37A      0.326640  
      38A      0.334390    39A      0.342639    40A      0.369437  
      41A      0.401468    42A      0.423476    43A      0.474916  
      44A      0.522565    45A      0.564564    46A      0.725571  
      47A      0.728559    48A      0.742003    49A      0.742031  
      50A      0.770928    51A      0.775225    52A      0.793670  
      53A      0.842258    54A      0.875953    55A      0.898868  
      56A      0.946230    57A      0.967646    58A      1.002381  
      59A      1.060183    60A      1.068106    61A      1.094774  
      62A      1.119456    63A      1.124103    64A      1.137985  
      65A      1.138999    66A      1.163796    67A      1.172917  
      68A      1.202659    69A      1.207897    70A      1.225429  
      71A      1.227624    72A      1.231976    73A      1.261540  
      74A      1.301406    75A      1.314287    76A      1.379426  
      77A      1.407027    78A      1.546439    79A      1.621050  
      80A      1.624941    81A      1.664056    82A      1.728446  
      83A      1.755696    84A      1.801206    85A      1.872291  
      86A      1.882689    87A      1.976753    88A      2.034572  
      89A      2.038847    90A      2.134460    91A      2.143990  
      92A      2.169245    93A      2.210014    94A      2.253552  
      95A      2.277381    96A      2.302804    97A      2.352897  
      98A      2.363543    99A      2.395387   100A      2.429699  
     101A      2.445355   102A      2.498936   103A      2.550258  
     104A      2.655371   105A      2.663627   106A      2.679236  
     107A      2.682952   108A      2.733664   109A      2.816537  
     110A      2.835937   111A      2.903969   112A      2.959223  
     113A      3.066850   114A      3.068304   115A      3.159365  
     116A      3.348869   117A      3.450081   118A      3.577842  
     119A      4.413473   120A      4.554088   121A      4.613343  
     122A      4.683189   123A      4.747370   124A      4.842591  
     125A      4.994365  

    Final Occupation by Irrep:
              A 
    DOCC [    28 ]

  Energy converged.

  @DF-RHF Final Energy:  -344.90686199012890

   => Energetics <=

    Nuclear Repulsion Energy =            312.4729334993036787
    One-Electron Energy =               -1089.2251778465622465
    Two-Electron Energy =                 431.8453823571292105
    DFT Exchange-Correlation Energy =       0.0000000000000000
    Empirical Dispersion Energy =           0.0000000000000000
    PCM Polarization Energy =               0.0000000000000000
    EFP Energy =                            0.0000000000000000
    Total Energy =                       -344.9068619901293005

    Alert: EFP and PCM quantities not currently incorporated into SCF psivars.

Properties will be evaluated at   0.000000,   0.000000,   0.000000 Bohr
  ==> Properties <==


Properties computed using the SCF density matrix

  Nuclear Dipole Moment: (a.u.)
     X:    -6.1653      Y:    -2.0267      Z:    -0.0017

  Electronic Dipole Moment: (a.u.)
     X:     6.2715      Y:     1.3370      Z:     0.0019

  Dipole Moment: (a.u.)
     X:     0.1062      Y:    -0.6897      Z:     0.0002     Total:     0.6978

  Dipole Moment: (Debye)
     X:     0.2699      Y:    -1.7531      Z:     0.0005     Total:     1.7737


  Saving occupied orbitals to File 180.

*** tstop() called on cx1-3-2-3.cx1.hpc.ic.ac.uk at Tue Jul  5 16:29:05 2016
Module time:
	user time   =      12.27 seconds =       0.20 minutes
	system time =       0.04 seconds =       0.00 minutes
	total time  =         12 seconds =       0.20 minutes
Total time:
	user time   =      37.93 seconds =       0.63 minutes
	system time =       0.20 seconds =       0.00 minutes
	total time  =         39 seconds =       0.65 minutes

*** tstart() called on cx1-3-2-3.cx1.hpc.ic.ac.uk
*** at Tue Jul  5 16:29:05 2016


         ------------------------------------------------------------
                                   SCF GRAD                          
                          Rob Parrish, Justin Turney,                
                       Andy Simmonett, and Alex Sokolov              
         ------------------------------------------------------------

  ==> Geometry <==

    Molecular point group: c1
    Full point group: C1

    Geometry (in Angstrom), charge = 0, multiplicity = 1:

       Center              X                  Y                   Z               Mass       
    ------------   -----------------  -----------------  -----------------  -----------------
           O          0.749835852215     1.307572708291    -0.000392420301    15.994914619560
           C          0.576271790568     0.131621410637     0.000380643787    12.000000000000
           C         -0.766858133496    -0.556966806085     0.000053829153    12.000000000000
           O          1.568541100255    -0.749248104822     0.000414722346    15.994914619560
           C         -1.945225563582     0.412363610056     0.000447229573    12.000000000000
           H         -0.796878365585    -1.211474782430    -0.866913242427     1.007825032070
           H         -0.796923746592    -1.212228423897     0.866412259943     1.007825032070
           C         -3.287980664363    -0.316908931396    -0.000578745601    12.000000000000
           H         -1.875839026884     1.060512695091    -0.866481270256     1.007825032070
           H         -1.876232180924     1.059629017109     0.868120987526     1.007825032070
           H         -3.394927663283    -0.948023063787    -0.878506284314     1.007825032070
           H         -4.111956365461     0.389131101553     0.000421870287     1.007825032070
           H         -3.394592668616    -0.950052712577     0.875847389637     1.007825032070
           C          2.886935918194    -0.232498282194    -0.000179775883    12.000000000000
           H          3.059172722776     0.368743098458    -0.881328274753     1.007825032070
           H          3.540539477934    -1.090790013283     0.000406050995     1.007825032070
           H          3.059230734756     0.369805924984     0.880199868318     1.007825032070

  Nuclear repulsion =  312.472933499303679

  ==> Basis Set <==

  Basis Set: 6-31G*
    Number of shells: 62
    Number of basis function: 125
    Number of Cartesian functions: 125
    Spherical Harmonics?: false
    Max angular momentum: 2

  ==> DFJKGrad: Density-Fitted SCF Gradients <==

    Gradient:                    1
    J tasked:                  Yes
    K tasked:                  Yes
    wK tasked:                  No
    OpenMP threads:              1
    Integrals threads:           1
    Memory (MB):              1430
    Schwarz Cutoff:          0E+00
    Fitting Condition:       1E-12

   => Auxiliary Basis Set <=

  Basis Set: 
    Number of shells: 258
    Number of basis function: 817
    Number of Cartesian functions: 817
    Spherical Harmonics?: false
    Max angular momentum: 3


  -Total Gradient:
     Atom            X                  Y                   Z
    ------   -----------------  -----------------  -----------------
       1        0.000006721247    -0.000076447129    -0.000060032596
       2        0.000053556774     0.000032464081     0.000169608404
       3       -0.000054382178    -0.000084650023    -0.000061494534
       4       -0.000031370847     0.000101930014    -0.000021913504
       5        0.000074795649     0.000041749929     0.000067636238
       6       -0.000001146510     0.000005047959    -0.000021004014
       7        0.000017506925     0.000031582696     0.000010528786
       8       -0.000100022408    -0.000014525771    -0.000037824201
       9       -0.000033905383    -0.000042464973     0.000014057724
      10       -0.000006756564     0.000003718360    -0.000007044990
      11        0.000010008921    -0.000016018263    -0.000020500427
      12       -0.000021158527     0.000023651410     0.000005988911
      13        0.000062594851     0.000028923860    -0.000010058390
      14       -0.000011719318    -0.000073345494    -0.000036076591
      15        0.000024188699     0.000009406803    -0.000023432312
      16        0.000017564991     0.000044268589     0.000011336019
      17       -0.000006476325    -0.000015292048     0.000020225478


*** tstop() called on cx1-3-2-3.cx1.hpc.ic.ac.uk at Tue Jul  5 16:29:19 2016
Module time:
	user time   =      13.86 seconds =       0.23 minutes
	system time =       0.07 seconds =       0.00 minutes
	total time  =         14 seconds =       0.23 minutes
Total time:
	user time   =      51.80 seconds =       0.86 minutes
	system time =       0.27 seconds =       0.00 minutes
	total time  =         53 seconds =       0.88 minutes
CURRENT ENERGY: -344.9068619901

			-----------------------------------------
			 OPTKING 2.0: for geometry optimizations 
			  - R.A. King,  Bethel University        
			-----------------------------------------

	Previous internal coordinate definitions found.
	---Fragment 1 Geometry and Gradient---
	 O           1.4169844053        2.4709543175       -0.0007415669
	 C           1.0889958623        0.2487284193        0.0007193125
	 C          -1.4491518551       -1.0525147286        0.0001017224
	 O           2.9641131077       -1.4158737237        0.0007837117
	 C          -3.6759435819        0.7792542902        0.0008451414
	 H          -1.5058818722       -2.2893555557       -1.6382286092
	 H          -1.5059676299       -2.2907797317        1.6372818895
	 C          -6.2133829859       -0.5988710894       -0.0010936707
	 H          -3.5448220302        2.0040785542       -1.6374123001
	 H          -3.5455649837        2.0024086448        1.6405109166
	 H          -6.4154835246       -1.7915039582       -1.6601362834
	 H          -7.7704714011        0.7353512117        0.0007972193
	 H          -6.4148504764       -1.7953394386        1.6551117006
	 C           5.4555182486       -0.4393580797       -0.0003397272
	 H           5.7809986392        0.6968234695       -1.6654690725
	 H           6.6906499760       -2.0612943936        0.0007673252
	 H           5.7811082660        0.6988319205        1.6633366933
	             0.0000067212       -0.0000764471       -0.0000600326
	             0.0000535568        0.0000324641        0.0001696084
	            -0.0000543822       -0.0000846500       -0.0000614945
	            -0.0000313708        0.0001019300       -0.0000219135
	             0.0000747956        0.0000417499        0.0000676362
	            -0.0000011465        0.0000050480       -0.0000210040
	             0.0000175069        0.0000315827        0.0000105288
	            -0.0001000224       -0.0000145258       -0.0000378242
	            -0.0000339054       -0.0000424650        0.0000140577
	            -0.0000067566        0.0000037184       -0.0000070450
	             0.0000100089       -0.0000160183       -0.0000205004
	            -0.0000211585        0.0000236514        0.0000059889
	             0.0000625949        0.0000289239       -0.0000100584
	            -0.0000117193       -0.0000733455       -0.0000360766
	             0.0000241887        0.0000094068       -0.0000234323
	             0.0000175650        0.0000442686        0.0000113360
	            -0.0000064763       -0.0000152920        0.0000202255

	---Fragment 1 Intrafragment Coordinates---
	 - Coordinate -           - BOHR/RAD -       - ANG/DEG -
	 R(1,2)           =         2.246301	       1.188691
	 R(2,3)           =         2.852267	       1.509355
	 R(2,4)           =         2.507382	       1.326850
	 R(3,5)           =         2.883397	       1.525828
	 R(3,6)           =         2.053563	       1.086699
	 R(3,7)           =         2.053506	       1.086669
	 R(4,14)          =         2.675945	       1.416049
	 R(5,8)           =         2.887530	       1.528015
	 R(5,9)           =         2.049701	       1.084655
	 R(5,10)          =         2.049783	       1.084698
	 R(8,11)          =         2.053202	       1.086508
	 R(8,12)          =         2.050531	       1.085094
	 R(8,13)          =         2.053081	       1.086444
	 R(14,15)         =         2.041936	       1.080546
	 R(14,16)         =         2.038683	       1.078825
	 R(14,17)         =         2.041888	       1.080520
	 B(1,2,3)         =         2.191068	     125.538961
	 B(1,2,4)         =         2.150255	     123.200561
	 B(2,3,5)         =         1.979484	     113.416076
	 B(2,3,6)         =         1.874995	     107.429291
	 B(2,3,7)         =         1.875012	     107.430279
	 B(2,4,14)        =         2.042046	     117.000614
	 B(3,2,4)         =         1.941861	     111.260451
	 B(3,5,8)         =         1.955676	     112.051995
	 B(3,5,9)         =         1.907111	     109.269422
	 B(3,5,10)        =         1.907282	     109.279228
	 B(4,14,15)       =         1.930290	     110.597449
	 B(4,14,16)       =         1.848076	     105.886980
	 B(4,14,17)       =         1.930004	     110.581096
	 B(5,3,6)         =         1.940667	     111.192049
	 B(5,3,7)         =         1.940675	     111.192483
	 B(5,8,11)        =         1.943643	     111.362562
	 B(5,8,12)        =         1.935580	     110.900550
	 B(5,8,13)        =         1.943169	     111.335369
	 B(6,3,7)         =         1.846380	     105.789767
	 B(8,5,9)         =         1.918645	     109.930235
	 B(8,5,10)        =         1.919020	     109.951741
	 B(9,5,10)        =         1.853239	     106.182749
	 B(11,8,12)       =         1.879635	     107.695139
	 B(11,8,13)       =         1.879329	     107.677643
	 B(12,8,13)       =         1.879612	     107.693853
	 B(15,14,16)      =         1.924689	     110.276548
	 B(15,14,17)      =         1.905873	     109.198474
	 B(16,14,17)      =         1.924553	     110.268788
	 D(1,2,3,5)       =        -0.001329	      -0.076125
	 D(1,2,3,6)       =         2.150462	     123.212410
	 D(1,2,3,7)       =        -2.153142	    -123.365928
	 D(1,2,4,14)      =         0.000276	       0.015822
	 D(2,3,5,8)       =         3.141111	     179.972426
	 D(2,3,5,9)       =         1.010271	      57.884277
	 D(2,3,5,10)      =        -1.010638	     -57.905306
	 D(2,4,14,15)     =        -1.056985	     -60.560766
	 D(2,4,14,16)     =         3.141151	     179.974714
	 D(2,4,14,17)     =         1.056418	      60.528292
	 D(3,2,4,14)      =         3.140886	     179.959514
	 D(3,5,8,11)      =        -1.049356	     -60.123648
	 D(3,5,8,12)      =         3.140899	     179.960275
	 D(3,5,8,13)      =         1.048313	      60.063915
	 D(4,2,3,5)       =         3.141275	     179.981777
	 D(4,2,3,6)       =        -0.990120	     -56.729688
	 D(4,2,3,7)       =         0.989462	      56.691975
	 D(6,3,5,8)       =         1.025811	      58.774637
	 D(6,3,5,9)       =        -1.105029	     -63.313512
	 D(6,3,5,10)      =        -3.125939	    -179.103095
	 D(7,3,5,8)       =        -1.026745	     -58.828177
	 D(7,3,5,9)       =         3.125600	     179.083675
	 D(7,3,5,10)      =         1.104690	      63.294092
	 D(9,5,8,11)      =         1.074886	      61.586455
	 D(9,5,8,12)      =        -1.018044	     -58.329622
	 D(9,5,8,13)      =        -3.110630	    -178.225981
	 D(10,5,8,11)     =         3.109107	     178.138693
	 D(10,5,8,12)     =         1.016176	      58.222616
	 D(10,5,8,13)     =        -1.076410	     -61.673744

	Current energy   :      -344.9068619901

	Energy change for the previous step:
		Projected    :        -0.0000088050
		Actual       :        -0.0000025801

	Performing BFGS update.
	Previous computed or guess Hessian on step 1.
	Steps to be used in Hessian update: 1
	Taking RFO optimization step.
	Going to follow RFO solution 1.
	Using RFO vector 1.
	Norm of target step-size    0.01277
	Projected energy change by RFO approximation:         0.0000006538

	Back-transformation to cartesian coordinates...
	Successfully converged to displaced geometry.

	--- Internal Coordinate Step in ANG or DEG, aJ/ANG or AJ/DEG ---
	 ---------------------------------------------------------------------------
	   Coordinate                Previous        Force       Change         New 
	   ----------                --------       ------       ------       ------
	    1 R(1,2)          =      1.188691     0.000615     0.000041     1.188732
	    2 R(2,3)          =      1.509355    -0.000471    -0.000300     1.509055
	    3 R(2,4)          =      1.326850     0.000414     0.000066     1.326916
	    4 R(3,5)          =      1.525828    -0.000223    -0.000076     1.525752
	    5 R(3,6)          =      1.086699    -0.000113     0.000042     1.086740
	    6 R(3,7)          =      1.086669     0.000092     0.000113     1.086781
	    7 R(4,14)         =      1.416049    -0.000076     0.000050     1.416099
	    8 R(5,8)          =      1.528015    -0.000265    -0.000177     1.527839
	    9 R(5,9)          =      1.084655     0.000320     0.000053     1.084708
	   10 R(5,10)         =      1.084698     0.000032    -0.000017     1.084681
	   11 R(8,11)         =      1.086508    -0.000205     0.000036     1.086544
	   12 R(8,12)         =      1.085094    -0.000259     0.000123     1.085217
	   13 R(8,13)         =      1.086444     0.000256     0.000080     1.086523
	   14 R(14,15)        =      1.080546    -0.000232     0.000081     1.080627
	   15 R(14,16)        =      1.078825     0.000202    -0.000141     1.078683
	   16 R(14,17)        =      1.080520    -0.000057     0.000014     1.080534
	   17 B(1,2,3)        =    125.538961    -0.000000     0.004527   125.543488
	   18 B(1,2,4)        =    123.200561     0.000003    -0.001608   123.198953
	   19 B(2,3,5)        =    113.416076     0.000001     0.012012   113.428088
	   20 B(2,3,6)        =    107.429291    -0.000001     0.001186   107.430477
	   21 B(2,3,7)        =    107.430279     0.000001     0.010988   107.441267
	   22 B(2,4,14)       =    117.000614    -0.000004    -0.004601   116.996012
	   23 B(3,2,4)        =    111.260451    -0.000002    -0.004383   111.256068
	   24 B(3,5,8)        =    112.051995    -0.000001     0.006514   112.058509
	   25 B(3,5,9)        =    109.269422    -0.000001     0.002077   109.271500
	   26 B(3,5,10)       =    109.279228     0.000000    -0.008809   109.270419
	   27 B(4,14,15)      =    110.597449    -0.000002    -0.011229   110.586220
	   28 B(4,14,16)      =    105.886980    -0.000004    -0.014164   105.872816
	   29 B(4,14,17)      =    110.581096     0.000003     0.005671   110.586767
	   30 B(5,3,6)        =    111.192049     0.000000    -0.000561   111.191489
	   31 B(5,3,7)        =    111.192483    -0.000000    -0.005621   111.186862
	   32 B(5,8,11)       =    111.362562    -0.000000     0.007378   111.369941
	   33 B(5,8,12)       =    110.900550    -0.000001     0.002667   110.903217
	   34 B(5,8,13)       =    111.335369     0.000007     0.027187   111.362556
	   35 B(6,3,7)        =    105.789767    -0.000001    -0.019637   105.770131
	   36 B(8,5,9)        =    109.930235     0.000003     0.010379   109.940614
	   37 B(8,5,10)       =    109.951741    -0.000000    -0.000146   109.951596
	   38 B(9,5,10)       =    106.182749    -0.000001    -0.011045   106.171704
	   39 B(11,8,12)      =    107.695139    -0.000001    -0.012884   107.682255
	   40 B(11,8,13)      =    107.677643    -0.000003    -0.005778   107.671864
	   41 B(12,8,13)      =    107.693853    -0.000003    -0.020949   107.672904
	   42 B(15,14,16)     =    110.276548     0.000002     0.008949   110.285497
	   43 B(15,14,17)     =    109.198474    -0.000001    -0.003353   109.195121
	   44 B(16,14,17)     =    110.268788     0.000002     0.014190   110.282978
	   45 D(1,2,3,5)      =     -0.076125     0.000001     0.236176     0.160051
	   46 D(1,2,3,6)      =    123.212410     0.000001     0.244249   123.456659
	   47 D(1,2,3,7)      =   -123.365928     0.000000     0.227447  -123.138481
	   48 D(1,2,4,14)     =      0.015822    -0.000000    -0.223801    -0.207979
	   49 D(2,3,5,8)      =    179.972426     0.000000     0.030733   180.003159
	   50 D(2,3,5,9)      =     57.884277    -0.000000     0.011776    57.896053
	   51 D(2,3,5,10)     =    -57.905306    -0.000000     0.028747   -57.876559
	   52 D(2,4,14,15)    =    -60.560766    -0.000000     0.021445   -60.539321
	   53 D(2,4,14,16)    =    179.974714     0.000000     0.025286   180.000000
	   54 D(2,4,14,17)    =     60.528292    -0.000000     0.013530    60.541823
	   55 D(3,2,4,14)     =    179.959514     0.000001     0.254702   180.214215
	   56 D(3,5,8,11)     =    -60.123648    -0.000000     0.051330   -60.072318
	   57 D(3,5,8,12)     =    179.960275     0.000000     0.060906   180.021181
	   58 D(3,5,8,13)     =     60.063915     0.000000     0.067492    60.131407
	   59 D(4,2,3,5)      =    179.981777    -0.000000    -0.255907   179.725870
	   60 D(4,2,3,6)      =    -56.729688    -0.000000    -0.247834   -56.977522
	   61 D(4,2,3,7)      =     56.691975    -0.000001    -0.264636    56.427339
	   62 D(6,3,5,8)      =     58.774637     0.000000     0.021007    58.795644
	   63 D(6,3,5,9)      =    -63.313512    -0.000000     0.002049   -63.311462
	   64 D(6,3,5,10)     =   -179.103095    -0.000000     0.019021  -179.084074
	   65 D(7,3,5,8)      =    -58.828177     0.000000     0.049489   -58.778688
	   66 D(7,3,5,9)      =    179.083675    -0.000000     0.030531   179.114206
	   67 D(7,3,5,10)     =     63.294092     0.000000     0.047502    63.341595
	   68 D(9,5,8,11)     =     61.586455    -0.000000     0.065654    61.652110
	   69 D(9,5,8,12)     =    -58.329622     0.000000     0.075231   -58.254391
	   70 D(9,5,8,13)     =   -178.225981     0.000000     0.081816  -178.144165
	   71 D(10,5,8,11)    =    178.138693    -0.000000     0.058243   178.196936
	   72 D(10,5,8,12)    =     58.222616     0.000000     0.067819    58.290435
	   73 D(10,5,8,13)    =    -61.673744     0.000000     0.074405   -61.599339
	 ---------------------------------------------------------------------------

  ==> Convergence Check <==

  Measures of convergence in internal coordinates in au.
  Criteria marked as inactive (o), active & met (*), and active & unmet ( ).
  ---------------------------------------------------------------------------------------------
   Step     Total Energy     Delta E     MAX Force     RMS Force      MAX Disp      RMS Disp   
  ---------------------------------------------------------------------------------------------
    Convergence Criteria    1.00e-06 *    3.00e-04 *             o    1.20e-03 *             o
  ---------------------------------------------------------------------------------------------
      2    -344.90686199   -2.58e-06      8.96e-05 *    2.72e-05 o    4.62e-03      1.49e-03 o  ~
  ---------------------------------------------------------------------------------------------

	Writing optimization data to binary file.
	Structure for next step:
	Cartesian Geometry (in Angstrom)
	    O     0.7498861685   1.3076572752  -0.0016081663
	    C     0.5761924621   0.1316884131  -0.0050301182
	    C    -0.7666829426  -0.5567363454  -0.0032520090
	    O     1.5684279419  -0.7493128438  -0.0016419259
	    C    -1.9451726062   0.4123217225  -0.0003164831
	    H    -0.7982378960  -1.2110010066  -0.8704005460
	    H    -0.7953432640  -1.2126256909   0.8628204519
	    C    -3.2877160345  -0.3169693638   0.0015033896
	    H    -1.8776071050   1.0607791218  -0.8672242533
	    H    -1.8743303167   1.0594656036   0.8672776893
	    H    -3.3962428086  -0.9488194164  -0.8757456123
	    H    -4.1118701265   0.3890503540   0.0032050649
	    H    -3.3933753224  -0.9494312193   0.8786358638
	    C     2.8868687195  -0.2325555544   0.0018683586
	    H     3.0616197887   0.3688146979  -0.8787967715
	    H     3.5401632534  -1.0909018987   0.0042647008
	    H     3.0565327865   0.3697644313   0.8827652047
			--------------------------
			 OPTKING Finished Execution 
			--------------------------

    Structure for next step:
    Molecular point group: c1
    Full point group: C1

    Geometry (in Angstrom), charge = 0, multiplicity = 1:

    O            0.749858054388     1.307639417570    -0.000551496280
    C            0.576164361296     0.131670645338    -0.003973447897
    C           -0.766710940859    -0.556754060644    -0.002195338822
    O            1.568399765301    -0.749330544270    -0.000585255899
    C           -1.945200514507     0.412303933304     0.000740186841
    H           -0.798265891906    -1.211018671816    -0.869343809591
    H           -0.795371260121    -1.212643355992     0.863877055924
    C           -3.287743840287    -0.316987097350     0.002560059379
    H           -1.877635018412     1.060761283043    -0.866167517145
    H           -1.874358230409     1.059447765011     0.868334293025
    H           -3.396270606062    -0.948837101716    -0.874688875520
    H           -4.111897869323     0.389032566550     0.004261734533
    H           -3.393403120149    -0.949448904567     0.879692466602
    C            2.886840442176    -0.232573294396     0.002925028336
    H            3.061591498054     0.368796911974    -0.877740034476
    H            3.540134926197    -1.090919573175     0.005321370403
    H            3.056504496239     0.369746645371     0.883821807243

gradient() will perform analytic gradient computation.

*** tstart() called on cx1-3-2-3.cx1.hpc.ic.ac.uk
*** at Tue Jul  5 16:29:19 2016


         ---------------------------------------------------------
                                   SCF
            by Justin Turney, Rob Parrish, and Andy Simmonett
                              RHF Reference
                        1 Threads,   2000 MiB Core
         ---------------------------------------------------------

  ==> Geometry <==

    Molecular point group: c1
    Full point group: C1

    Geometry (in Angstrom), charge = 0, multiplicity = 1:

       Center              X                  Y                   Z               Mass       
    ------------   -----------------  -----------------  -----------------  -----------------
           O          0.749858054388     1.307639417570    -0.000551496280    15.994914619560
           C          0.576164361296     0.131670645338    -0.003973447897    12.000000000000
           C         -0.766710940859    -0.556754060644    -0.002195338822    12.000000000000
           O          1.568399765301    -0.749330544270    -0.000585255899    15.994914619560
           C         -1.945200514507     0.412303933304     0.000740186841    12.000000000000
           H         -0.798265891906    -1.211018671816    -0.869343809591     1.007825032070
           H         -0.795371260121    -1.212643355992     0.863877055924     1.007825032070
           C         -3.287743840287    -0.316987097350     0.002560059379    12.000000000000
           H         -1.877635018412     1.060761283043    -0.866167517145     1.007825032070
           H         -1.874358230409     1.059447765011     0.868334293025     1.007825032070
           H         -3.396270606062    -0.948837101716    -0.874688875520     1.007825032070
           H         -4.111897869323     0.389032566550     0.004261734533     1.007825032070
           H         -3.393403120149    -0.949448904567     0.879692466602     1.007825032070
           C          2.886840442176    -0.232573294396     0.002925028336    12.000000000000
           H          3.061591498054     0.368796911974    -0.877740034476     1.007825032070
           H          3.540134926197    -1.090919573175     0.005321370403     1.007825032070
           H          3.056504496239     0.369746645371     0.883821807243     1.007825032070

  Running in c1 symmetry.

  Rotational constants: A =      0.28590  B =      0.04006  C =      0.03606 [cm^-1]
  Rotational constants: A =   8571.04320  B =   1201.04014  C =   1081.12177 [MHz]
  Nuclear repulsion =  312.479956593427971

  Charge       = 0
  Multiplicity = 1
  Electrons    = 56
  Nalpha       = 28
  Nbeta        = 28

  ==> Algorithm <==

  SCF Algorithm Type is DF.
  DIIS enabled.
  MOM disabled.
  Fractional occupation disabled.
  Guess Type is READ.
  Energy threshold   = 1.00e-08
  Density threshold  = 1.00e-08
  Integral threshold = 0.00e+00

  ==> Primary Basis <==

  Basis Set: 6-31G*
    Number of shells: 62
    Number of basis function: 125
    Number of Cartesian functions: 125
    Spherical Harmonics?: false
    Max angular momentum: 2

  ==> Pre-Iterations <==

   -------------------------------------------------------
    Irrep   Nso     Nmo     Nalpha   Nbeta   Ndocc  Nsocc
   -------------------------------------------------------
     A        125     125       0       0       0       0
   -------------------------------------------------------
    Total     125     125      28      28      28       0
   -------------------------------------------------------

 OEINTS: Overlap, kinetic, potential, dipole, and quadrupole integrals
         stored in file 35.

  ==> Integral Setup <==

  ==> DFJK: Density-Fitted J/K Matrices <==

    J tasked:                  Yes
    K tasked:                  Yes
    wK tasked:                  No
    OpenMP threads:              1
    Integrals threads:           1
    Memory (MB):              1430
    Algorithm:                Core
    Integral Cache:           NONE
    Schwarz Cutoff:          1E-12
    Fitting Condition:       1E-12

   => Auxiliary Basis Set <=

  Basis Set: 
    Number of shells: 258
    Number of basis function: 817
    Number of Cartesian functions: 817
    Spherical Harmonics?: false
    Max angular momentum: 3

  Minimum eigenvalue in the overlap matrix is 2.8051411042E-03.
  Using Symmetric Orthogonalization.
  SCF Guess: Reading in previously saved MOs, projecting if necessary.

  Using orbitals from previous SCF, no projection.
  Recomputing DOCC and SOCC from number of alpha and beta electrons from previous calculation.
              A 
    DOCC [    28 ]

  ==> Iterations <==

                           Total Energy        Delta E     RMS |[F,P]|

   @DF-RHF iter   0:  -344.90673407234073   -3.44907e+02   7.46002e-05 
   @DF-RHF iter   1:  -344.90685639816655   -1.22326e-04   1.08906e-05 
   @DF-RHF iter   2:  -344.90685823077268   -1.83261e-06   3.86216e-06 DIIS
   @DF-RHF iter   3:  -344.90685852993028   -2.99158e-07   8.41613e-07 DIIS
   @DF-RHF iter   4:  -344.90685854112013   -1.11899e-08   4.19687e-07 DIIS
   @DF-RHF iter   5:  -344.90685854502436   -3.90423e-09   1.59212e-07 DIIS
   @DF-RHF iter   6:  -344.90685854584279   -8.18432e-10   4.81791e-08 DIIS
   @DF-RHF iter   7:  -344.90685854591726   -7.44649e-11   1.87014e-08 DIIS
   @DF-RHF iter   8:  -344.90685854592817   -1.09139e-11   8.20696e-09 DIIS

  ==> Post-Iterations <==

    Orbital Energies (a.u.)
    -----------------------

    Doubly Occupied:                                                      

       1A    -20.604033     2A    -20.545884     3A    -11.372700  
       4A    -11.281147     5A    -11.236099     6A    -11.221984  
       7A    -11.214617     8A     -1.469756     9A     -1.363221  
      10A     -1.080669    11A     -1.001529    12A     -0.939820  
      13A     -0.827283    14A     -0.767366    15A     -0.700424  
      16A     -0.683614    17A     -0.672332    18A     -0.637043  
      19A     -0.595244    20A     -0.574742    21A     -0.569019  
      22A     -0.527408    23A     -0.521899    24A     -0.498764  
      25A     -0.487101    26A     -0.478860    27A     -0.456356  
      28A     -0.438290  

    Virtual:                                                              

      29A      0.199215    30A      0.228812    31A      0.261345  
      32A      0.284098    33A      0.293075    34A      0.304342  
      35A      0.310356    36A      0.316744    37A      0.326614  
      38A      0.334360    39A      0.342645    40A      0.369432  
      41A      0.401513    42A      0.423556    43A      0.475012  
      44A      0.522568    45A      0.564525    46A      0.725588  
      47A      0.728569    48A      0.742014    49A      0.742041  
      50A      0.770961    51A      0.775252    52A      0.793680  
      53A      0.842244    54A      0.876009    55A      0.898876  
      56A      0.946316    57A      0.967665    58A      1.002312  
      59A      1.060128    60A      1.068108    61A      1.094851  
      62A      1.119490    63A      1.124045    64A      1.137927  
      65A      1.139054    66A      1.163708    67A      1.172831  
      68A      1.202667    69A      1.207851    70A      1.225431  
      71A      1.227604    72A      1.231958    73A      1.261485  
      74A      1.301407    75A      1.314298    76A      1.379395  
      77A      1.407018    78A      1.546435    79A      1.620987  
      80A      1.624997    81A      1.664035    82A      1.728506  
      83A      1.755764    84A      1.801197    85A      1.872372  
      86A      1.882757    87A      1.976791    88A      2.034585  
      89A      2.038856    90A      2.134491    91A      2.143961  
      92A      2.169311    93A      2.209985    94A      2.253492  
      95A      2.277342    96A      2.302882    97A      2.352894  
      98A      2.363583    99A      2.395334   100A      2.429781  
     101A      2.445359   102A      2.498975   103A      2.550120  
     104A      2.655413   105A      2.663592   106A      2.679205  
     107A      2.682945   108A      2.733640   109A      2.816559  
     110A      2.836148   111A      2.904035   112A      2.959342  
     113A      3.066777   114A      3.068381   115A      3.159359  
     116A      3.348830   117A      3.450239   118A      3.577810  
     119A      4.413441   120A      4.554181   121A      4.613314  
     122A      4.683227   123A      4.747321   124A      4.842591  
     125A      4.994410  

    Final Occupation by Irrep:
              A 
    DOCC [    28 ]

  Energy converged.

  @DF-RHF Final Energy:  -344.90685854592817

   => Energetics <=

    Nuclear Repulsion Energy =            312.4799565934279713
    One-Electron Energy =               -1089.2392236712710201
    Two-Electron Energy =                 431.8524085319157848
    DFT Exchange-Correlation Energy =       0.0000000000000000
    Empirical Dispersion Energy =           0.0000000000000000
    PCM Polarization Energy =               0.0000000000000000
    EFP Energy =                            0.0000000000000000
    Total Energy =                       -344.9068585459273208

    Alert: EFP and PCM quantities not currently incorporated into SCF psivars.

Properties will be evaluated at   0.000000,   0.000000,   0.000000 Bohr
  ==> Properties <==


Properties computed using the SCF density matrix

  Nuclear Dipole Moment: (a.u.)
     X:    -6.1658      Y:    -2.0270      Z:     0.0163

  Electronic Dipole Moment: (a.u.)
     X:     6.2718      Y:     1.3372      Z:    -0.0171

  Dipole Moment: (a.u.)
     X:     0.1060      Y:    -0.6898      Z:    -0.0008     Total:     0.6979

  Dipole Moment: (Debye)
     X:     0.2694      Y:    -1.7532      Z:    -0.0020     Total:     1.7738


  Saving occupied orbitals to File 180.

*** tstop() called on cx1-3-2-3.cx1.hpc.ic.ac.uk at Tue Jul  5 16:29:28 2016
Module time:
	user time   =       8.26 seconds =       0.14 minutes
	system time =       0.04 seconds =       0.00 minutes
	total time  =          9 seconds =       0.15 minutes
Total time:
	user time   =      60.13 seconds =       1.00 minutes
	system time =       0.31 seconds =       0.01 minutes
	total time  =         62 seconds =       1.03 minutes

*** tstart() called on cx1-3-2-3.cx1.hpc.ic.ac.uk
*** at Tue Jul  5 16:29:28 2016


         ------------------------------------------------------------
                                   SCF GRAD                          
                          Rob Parrish, Justin Turney,                
                       Andy Simmonett, and Alex Sokolov              
         ------------------------------------------------------------

  ==> Geometry <==

    Molecular point group: c1
    Full point group: C1

    Geometry (in Angstrom), charge = 0, multiplicity = 1:

       Center              X                  Y                   Z               Mass       
    ------------   -----------------  -----------------  -----------------  -----------------
           O          0.749858054388     1.307639417570    -0.000551496280    15.994914619560
           C          0.576164361296     0.131670645338    -0.003973447897    12.000000000000
           C         -0.766710940859    -0.556754060644    -0.002195338822    12.000000000000
           O          1.568399765301    -0.749330544270    -0.000585255899    15.994914619560
           C         -1.945200514507     0.412303933304     0.000740186841    12.000000000000
           H         -0.798265891906    -1.211018671816    -0.869343809591     1.007825032070
           H         -0.795371260121    -1.212643355992     0.863877055924     1.007825032070
           C         -3.287743840287    -0.316987097350     0.002560059379    12.000000000000
           H         -1.877635018412     1.060761283043    -0.866167517145     1.007825032070
           H         -1.874358230409     1.059447765011     0.868334293025     1.007825032070
           H         -3.396270606062    -0.948837101716    -0.874688875520     1.007825032070
           H         -4.111897869323     0.389032566550     0.004261734533     1.007825032070
           H         -3.393403120149    -0.949448904567     0.879692466602     1.007825032070
           C          2.886840442176    -0.232573294396     0.002925028336    12.000000000000
           H          3.061591498054     0.368796911974    -0.877740034476     1.007825032070
           H          3.540134926197    -1.090919573175     0.005321370403     1.007825032070
           H          3.056504496239     0.369746645371     0.883821807243     1.007825032070

  Nuclear repulsion =  312.479956593427971

  ==> Basis Set <==

  Basis Set: 6-31G*
    Number of shells: 62
    Number of basis function: 125
    Number of Cartesian functions: 125
    Spherical Harmonics?: false
    Max angular momentum: 2

  ==> DFJKGrad: Density-Fitted SCF Gradients <==

    Gradient:                    1
    J tasked:                  Yes
    K tasked:                  Yes
    wK tasked:                  No
    OpenMP threads:              1
    Integrals threads:           1
    Memory (MB):              1430
    Schwarz Cutoff:          0E+00
    Fitting Condition:       1E-12

   => Auxiliary Basis Set <=

  Basis Set: 
    Number of shells: 258
    Number of basis function: 817
    Number of Cartesian functions: 817
    Spherical Harmonics?: false
    Max angular momentum: 3


  -Total Gradient:
     Atom            X                  Y                   Z
    ------   -----------------  -----------------  -----------------
       1        0.000018718679    -0.000003895682     0.000481403965
       2       -0.000127865778    -0.000049355218    -0.001326050821
[...]
	system time =       0.07 seconds =       0.00 minutes
	total time  =         13 seconds =       0.22 minutes
Total time:
	user time   =      97.94 seconds =       1.63 minutes
	system time =       0.47 seconds =       0.01 minutes
	total time  =        100 seconds =       1.67 minutes
CURRENT ENERGY: -344.9068621536

			-----------------------------------------
			 OPTKING 2.0: for geometry optimizations 
			  - R.A. King,  Bethel University        
			-----------------------------------------

	Previous internal coordinate definitions found.
	---Fragment 1 Geometry and Gradient---
	 O           1.4170199160        2.4711336790       -0.0000764041
	 C           1.0889523970        0.2488485621       -0.0002047375
	 C          -1.4490024631       -1.0522007863       -0.0008706651
	 O           2.9639281913       -1.4160565912       -0.0000094074
	 C          -3.6759216842        0.7792596261        0.0003049075
	 H          -1.5059438546       -2.2889281464       -1.6392750881
	 H          -1.5058345582       -2.2910852250        1.6359108249
	 C          -6.2130248478       -0.5991473529        0.0001978271
	 H          -3.5452910855        2.0042057858       -1.6380365051
	 H          -3.5447900746        2.0025255331        1.6398308788
	 H          -6.4151385125       -1.7937142959       -1.6573993374
	 H          -7.7701344872        0.7350144647        0.0000287191
	 H          -6.4155336049       -1.7937027527        1.6577791326
	 C           5.4552997866       -0.4394322653        0.0006080276
	 H           5.7808731926        0.6983889479       -1.6633430562
	 H           6.6899848219       -2.0617135683        0.0000942470
	 H           5.7807092228        0.6972262501        1.6653510543
	            -0.0000054870        0.0000072892       -0.0000061695
	             0.0000019134       -0.0000011204        0.0000107672
	             0.0000103002        0.0000094656       -0.0000023489
	             0.0000034667       -0.0000060930       -0.0000128512
	             0.0000117319        0.0000071606       -0.0000150683
	            -0.0000030522        0.0000009383       -0.0000044598
	            -0.0000004705       -0.0000056349        0.0000075313
	             0.0000094502       -0.0000148584        0.0000099489
	             0.0000047682        0.0000071264       -0.0000004363
	             0.0000005448       -0.0000103984       -0.0000038632
	             0.0000050686        0.0000002332       -0.0000022992
	            -0.0000078757        0.0000096482       -0.0000009016
	            -0.0000106775       -0.0000049517        0.0000091746
	            -0.0000008321       -0.0000201253        0.0000269438
	            -0.0000042376        0.0000068234       -0.0000159960
	            -0.0000205460        0.0000118134       -0.0000023456
	             0.0000059345        0.0000026839        0.0000023737

	---Fragment 1 Intrafragment Coordinates---
	 - Coordinate -           - BOHR/RAD -       - ANG/DEG -
	 R(1,2)           =         2.246370	       1.188728
	 R(2,3)           =         2.852007	       1.509217
	 R(2,4)           =         2.507478	       1.326900
	 R(3,5)           =         2.883300	       1.525777
	 R(3,6)           =         2.053559	       1.086697
	 R(3,7)           =         2.053562	       1.086698
	 R(4,14)          =         2.675954	       1.416054
	 R(5,8)           =         2.887369	       1.527930
	 R(5,9)           =         2.049810	       1.084713
	 R(5,10)          =         2.049785	       1.084700
	 R(8,11)          =         2.053161	       1.086486
	 R(8,12)          =         2.050507	       1.085082
	 R(8,13)          =         2.053180	       1.086496
	 R(14,15)         =         2.041903	       1.080529
	 R(14,16)         =         2.038687	       1.078827
	 R(14,17)         =         2.041875	       1.080514
	 B(1,2,3)         =         2.191070	     125.539056
	 B(1,2,4)         =         2.150352	     123.206119
	 B(2,3,5)         =         1.979624	     113.424115
	 B(2,3,6)         =         1.875063	     107.433190
	 B(2,3,7)         =         1.875125	     107.436733
	 B(2,4,14)        =         2.041876	     116.990865
	 B(3,2,4)         =         1.941763	     111.254825
	 B(3,5,8)         =         1.955646	     112.050260
	 B(3,5,9)         =         1.907143	     109.271233
	 B(3,5,10)        =         1.907086	     109.267982
	 B(4,14,15)       =         1.930108	     110.587058
	 B(4,14,16)       =         1.847757	     105.868702
	 B(4,14,17)       =         1.930213	     110.593082
	 B(5,3,6)         =         1.940616	     111.189107
	 B(5,3,7)         =         1.940678	     111.192643
	 B(5,8,11)        =         1.943660	     111.363527
	 B(5,8,12)        =         1.935468	     110.894176
	 B(5,8,13)        =         1.943771	     111.369869
	 B(6,3,7)         =         1.846084	     105.772826
	 B(8,5,9)         =         1.919045	     109.953201
	 B(8,5,10)        =         1.918925	     109.946301
	 B(9,5,10)        =         1.853121	     106.176003
	 B(11,8,12)       =         1.879412	     107.682386
	 B(11,8,13)       =         1.879232	     107.672067
	 B(12,8,13)       =         1.879392	     107.681214
	 B(15,14,16)      =         1.924792	     110.282486
	 B(15,14,17)      =         1.905809	     109.194832
	 B(16,14,17)      =         1.924804	     110.283166
	 D(1,2,3,5)       =        -0.000642	      -0.036788
	 D(1,2,3,6)       =         2.151225	     123.256128
	 D(1,2,3,7)       =        -2.152633	    -123.336777
	 D(1,2,4,14)      =         0.000100	       0.005729
	 D(2,3,5,8)       =        -3.141367	    -179.987054
	 D(2,3,5,9)       =         1.010468	      57.895562
	 D(2,3,5,10)      =        -1.010209	     -57.880690
	 D(2,4,14,15)     =        -1.056409	     -60.527753
	 D(2,4,14,16)     =        -3.141295	    -179.982955
	 D(2,4,14,17)     =         1.056933	      60.557784
	 D(3,2,4,14)      =         3.141593	     180.000000
	 D(3,5,8,11)      =        -1.048478	     -60.073355
	 D(3,5,8,12)      =        -3.141064	    -179.969689
	 D(3,5,8,13)      =         1.049488	      60.131240
	 D(4,2,3,5)       =         3.141054	     179.969160
	 D(4,2,3,6)       =        -0.990264	     -56.737923
	 D(4,2,3,7)       =         0.989064	      56.669172
	 D(6,3,5,8)       =         1.026367	      58.806502
	 D(6,3,5,9)       =        -1.104983	     -63.310882
	 D(6,3,5,10)      =        -3.125660	    -179.087134
	 D(7,3,5,8)       =        -1.025789	     -58.773370
	 D(7,3,5,9)       =         3.126046	     179.109246
	 D(7,3,5,10)      =         1.105369	      63.332994
	 D(9,5,8,11)      =         1.076065	      61.653967
	 D(9,5,8,12)      =        -1.016521	     -58.242367
	 D(9,5,8,13)      =        -3.109155	    -178.141439
	 D(10,5,8,11)     =         3.110322	     178.208298
	 D(10,5,8,12)     =         1.017736	      58.311965
	 D(10,5,8,13)     =        -1.074898	     -61.587107

	Current energy   :      -344.9068621536

	Energy change for the previous step:
		Projected    :        -0.0000098946
		Actual       :        -0.0000036077

	Performing BFGS update.
	Previous computed or guess Hessian on step 1.
	Steps to be used in Hessian update: 3 2
	Taking RFO optimization step.
	Going to follow RFO solution 1.
	Using RFO vector 1.
	Norm of target step-size    0.00317
	Projected energy change by RFO approximation:        -0.0000000529

	Back-transformation to cartesian coordinates...
	Successfully converged to displaced geometry.

	--- Internal Coordinate Step in ANG or DEG, aJ/ANG or AJ/DEG ---
	 ---------------------------------------------------------------------------
	   Coordinate                Previous        Force       Change         New 
	   ----------                --------       ------       ------       ------
	    1 R(1,2)          =      1.188728    -0.000053    -0.000001     1.188727
	    2 R(2,3)          =      1.509217     0.000140     0.000026     1.509243
	    3 R(2,4)          =      1.326900     0.000073     0.000009     1.326909
	    4 R(3,5)          =      1.525777     0.000114     0.000019     1.525796
	    5 R(3,6)          =      1.086697    -0.000025    -0.000007     1.086690
	    6 R(3,7)          =      1.086698    -0.000078    -0.000015     1.086683
	    7 R(4,14)         =      1.416054     0.000147     0.000016     1.416070
	    8 R(5,8)          =      1.527930    -0.000068    -0.000012     1.527917
	    9 R(5,9)          =      1.084713    -0.000040    -0.000003     1.084710
	   10 R(5,10)         =      1.084700     0.000076     0.000013     1.084713
	   11 R(8,11)         =      1.086486    -0.000010    -0.000006     1.086480
	   12 R(8,12)         =      1.085082    -0.000101    -0.000024     1.085057
	   13 R(8,13)         =      1.086496    -0.000093    -0.000013     1.086483
	   14 R(14,15)        =      1.080529    -0.000133    -0.000027     1.080502
	   15 R(14,16)        =      1.078827     0.000180     0.000036     1.078862
	   16 R(14,17)        =      1.080514    -0.000036    -0.000007     1.080507
	   17 B(1,2,3)        =    125.539056    -0.000000    -0.000434   125.538622
	   18 B(1,2,4)        =    123.206119    -0.000001    -0.002280   123.203839
	   19 B(2,3,5)        =    113.424115     0.000001     0.002013   113.426128
	   20 B(2,3,6)        =    107.433190    -0.000000    -0.000805   107.432385
	   21 B(2,3,7)        =    107.436733    -0.000000    -0.000274   107.436459
	   22 B(2,4,14)       =    116.990865     0.000000     0.000029   116.990894
	   23 B(3,2,4)        =    111.254825     0.000001     0.002714   111.257539
	   24 B(3,5,8)        =    112.050260     0.000000     0.000428   112.050688
	   25 B(3,5,9)        =    109.271233     0.000000    -0.001049   109.270184
	   26 B(3,5,10)       =    109.267982     0.000000     0.001906   109.269888
	   27 B(4,14,15)      =    110.587058     0.000001     0.003128   110.590186
	   28 B(4,14,16)      =    105.868702     0.000001     0.003461   105.872164
	   29 B(4,14,17)      =    110.593082    -0.000001    -0.003749   110.589332
	   30 B(5,3,6)        =    111.189107     0.000000     0.000860   111.189967
	   31 B(5,3,7)        =    111.192643    -0.000000    -0.000131   111.192512
	   32 B(5,8,11)       =    111.363527     0.000001     0.002543   111.366070
	   33 B(5,8,12)       =    110.894176     0.000000     0.001109   110.895286
	   34 B(5,8,13)       =    111.369869    -0.000001    -0.002585   111.367284
	   35 B(6,3,7)        =    105.772826    -0.000000    -0.001987   105.770839
	   36 B(8,5,9)        =    109.953201    -0.000001    -0.002923   109.950278
	   37 B(8,5,10)       =    109.946301     0.000000     0.001984   109.948285
	   38 B(9,5,10)       =    106.176003     0.000000    -0.000380   106.175623
	   39 B(11,8,12)      =    107.682386    -0.000000    -0.000680   107.681706
	   40 B(11,8,13)      =    107.672067     0.000000    -0.001315   107.670752
	   41 B(12,8,13)      =    107.681214     0.000000     0.000870   107.682083
	   42 B(15,14,16)     =    110.282486    -0.000000    -0.000205   110.282280
	   43 B(15,14,17)     =    109.194832    -0.000000    -0.001867   109.192965
	   44 B(16,14,17)     =    110.283166    -0.000000    -0.000631   110.282535
	   45 D(1,2,3,5)      =     -0.036788     0.000000     0.012633    -0.024155
	   46 D(1,2,3,6)      =    123.256128     0.000000     0.014473   123.270601
	   47 D(1,2,3,7)      =   -123.336777     0.000000     0.011669  -123.325108
	   48 D(1,2,4,14)     =      0.005729    -0.000000    -0.013778    -0.008048
	   49 D(2,3,5,8)      =   -179.987054    -0.000000    -0.017353  -180.004407
	   50 D(2,3,5,9)      =     57.895562     0.000000    -0.013199    57.882363
	   51 D(2,3,5,10)     =    -57.880690     0.000000    -0.013221   -57.893912
	   52 D(2,4,14,15)    =    -60.527753     0.000000    -0.019681   -60.547433
	   53 D(2,4,14,16)    =   -179.982955    -0.000000    -0.023169  -180.006124
	   54 D(2,4,14,17)    =     60.557784    -0.000000    -0.022444    60.535340
	   55 D(3,2,4,14)     =    180.000000    -0.000000    -0.006011   179.993989
	   56 D(3,5,8,11)     =    -60.073355     0.000000    -0.052964   -60.126319
	   57 D(3,5,8,12)     =   -179.969689    -0.000000    -0.054541  -180.024229
	   58 D(3,5,8,13)     =     60.131240    -0.000000    -0.054664    60.076576
	   59 D(4,2,3,5)      =    179.969160    -0.000000     0.004590   179.973750
	   60 D(4,2,3,6)      =    -56.737923     0.000000     0.006430   -56.731493
	   61 D(4,2,3,7)      =     56.669172    -0.000000     0.003625    56.672797
	   62 D(6,3,5,8)      =     58.806502    -0.000000    -0.018380    58.788122
	   63 D(6,3,5,9)      =    -63.310882     0.000000    -0.014227   -63.325109
	   64 D(6,3,5,10)     =   -179.087134     0.000000    -0.014249  -179.101383
	   65 D(7,3,5,8)      =    -58.773370    -0.000000    -0.016366   -58.789735
	   66 D(7,3,5,9)      =    179.109246     0.000000    -0.012212   179.097034
	   67 D(7,3,5,10)     =     63.332994     0.000000    -0.012234    63.320760
	   68 D(9,5,8,11)     =     61.653967     0.000000    -0.056058    61.597909
	   69 D(9,5,8,12)     =    -58.242367    -0.000000    -0.057635   -58.300002
	   70 D(9,5,8,13)     =   -178.141439    -0.000000    -0.057758  -178.199196
	   71 D(10,5,8,11)    =    178.208298    -0.000000    -0.057071   178.151227
	   72 D(10,5,8,12)    =     58.311965    -0.000000    -0.058648    58.253317
	   73 D(10,5,8,13)    =    -61.587107    -0.000000    -0.058771   -61.645878
	 ---------------------------------------------------------------------------

  ==> Convergence Check <==

  Measures of convergence in internal coordinates in au.
  Criteria marked as inactive (o), active & met (*), and active & unmet ( ).
  ---------------------------------------------------------------------------------------------
   Step     Total Energy     Delta E     MAX Force     RMS Force      MAX Disp      RMS Disp   
  ---------------------------------------------------------------------------------------------
    Convergence Criteria    1.00e-06 *    3.00e-04 *             o    1.20e-03 *             o
  ---------------------------------------------------------------------------------------------
      4    -344.90686215   -3.61e-06      2.18e-05 *    7.47e-06 o    1.03e-03 *    3.71e-04 o  ~
  ---------------------------------------------------------------------------------------------


  **** Optimization is complete! (in 4 steps) ****

  ==> Optimization Summary <==

  Measures of convergence in internal coordinates in au.
  --------------------------------------------------------------------------------------------------------------- ~
   Step         Total Energy             Delta E       MAX Force       RMS Force        MAX Disp        RMS Disp  ~
  --------------------------------------------------------------------------------------------------------------- ~
      1    -344.906859410037   -344.906859410037      0.00056940      0.00014770      0.00282896      0.00087738  ~
      2    -344.906861990129     -0.000002580092      0.00008957      0.00002721      0.00461876      0.00149466  ~
      3    -344.906858545928      0.000003444201      0.00025258      0.00008453      0.00424621      0.00127390  ~
      4    -344.906862153603     -0.000003607675      0.00002184      0.00000747      0.00102574      0.00037146  ~
  --------------------------------------------------------------------------------------------------------------- ~

	Writing optimization data to binary file.
	Final energy is   -344.9068621536032
	Final (previous) structure:
	Cartesian Geometry (in Angstrom)
	    O     0.7498547009   1.3076677221  -0.0000404313
	    C     0.5762488337   0.1316849975  -0.0001083424
	    C    -0.7667791372  -0.5568007175  -0.0004607361
	    O     1.5684433665  -0.7493449314  -0.0000049782
	    C    -1.9452141244   0.4123664652   0.0001613501
	    H    -0.7969112261  -1.2112486997  -0.8674670814
	    H    -0.7968533890  -1.2123901766   0.8656867899
	    C    -3.2877913969  -0.3170551479   0.0001046856
	    H    -1.8760873835   1.0605801041  -0.8668116515
	    H    -1.8758222599   1.0596909526   0.8677611933
	    H    -3.3947453500  -0.9491927966  -0.8770580219
	    H    -4.1117783923   0.3889529324   0.0000151975
	    H    -3.3949544239  -0.9491866882   0.8772590009
	    C     2.8868205335  -0.2325375573   0.0003217544
	    H     3.0591065729   0.3695715422  -0.8802033026
	    H     3.5401877639  -1.0910119143   0.0000498734
	    H     3.0590198038   0.3689562690   0.8812658895
	Saving final (previous) structure.
			--------------------------
			 OPTKING Finished Execution 
			--------------------------

    Final optimized geometry and variables:
    Molecular point group: c1
    Full point group: C1

    Geometry (in Angstrom), charge = 0, multiplicity = 1:

    O            0.749854643639     1.307667622280    -0.000040431325
    C            0.576248789712     0.131684987451    -0.000108342420
    C           -0.766779078681    -0.556800674997    -0.000460736110
    O            1.568443246709    -0.749344874144    -0.000004978177
    C           -1.945213975845     0.412366433705     0.000161350076
    H           -0.796911165268    -1.211248607176    -0.867467015207
    H           -0.796853328118    -1.212390084013     0.865686723810
    C           -3.287791145846    -0.317055123722     0.000104685603
    H           -1.876087240245     1.060580023148    -0.866811585312
    H           -1.875822116695     1.059690871723     0.867761126997
    H           -3.394745090753    -0.949192724095    -0.877057954883
    H           -4.111778078290     0.388952902691     0.000015197479
    H           -3.394954164648    -0.949186615718     0.877258933869
    C            2.886820313088    -0.232537539494     0.000321754365
    H            3.059106339272     0.369571513953    -0.880203235404
    H            3.540187493543    -1.091011830994     0.000049873369
    H            3.059019570176     0.368956240786     0.881265822252

	Cleaning optimization helper files.


Properties will be evaluated at   0.000000,   0.000000,   0.000000 Bohr

Properties computed using the  density matrix

  Nuclear Dipole Moment: (a.u.)
     X:    -6.1657      Y:    -2.0272      Z:     0.0005

  Electronic Dipole Moment: (a.u.)
     X:     6.2717      Y:     1.3375      Z:    -0.0005

  Dipole Moment: (a.u.)
     X:     0.1060      Y:    -0.6897      Z:     0.0000     Total:     0.6978

  Dipole Moment: (Debye)
     X:     0.2695      Y:    -1.7531      Z:     0.0000     Total:     1.7737

  Quadrupole Moment: (Debye Ang)
    XX:   -36.5817     YY:   -48.6170     ZZ:   -41.9968
    XY:    -1.0626     XZ:     0.0011     YZ:    -0.0003

  Traceless Quadrupole Moment: (Debye Ang)
    XX:     5.8168     YY:    -6.2185     ZZ:     0.4017
    XY:    -1.0626     XZ:     0.0011     YZ:    -0.0003

  Mulliken Charges: (a.u.)
   Center  Symbol    Alpha    Beta     Spin     Total
       1     O     4.28583  4.28583  0.00000 -0.57167
       2     C     2.60610  2.60610  0.00000  0.78779
       3     C     3.20602  3.20602  0.00000 -0.41205
       4     O     4.30698  4.30698  0.00000 -0.61397
       5     C     3.15192  3.15192  0.00000 -0.30384
       6     H     0.40094  0.40094  0.00000  0.19811
       7     H     0.40095  0.40095  0.00000  0.19811
       8     C     3.24277  3.24277  0.00000 -0.48555
       9     H     0.41089  0.41089  0.00000  0.17822
      10     H     0.41090  0.41090  0.00000  0.17820
      11     H     0.42135  0.42135  0.00000  0.15730
      12     H     0.41512  0.41512  0.00000  0.16977
      13     H     0.42134  0.42134  0.00000  0.15731
      14     C     3.09249  3.09249  0.00000 -0.18497
      15     H     0.40901  0.40901  0.00000  0.18199
      16     H     0.40837  0.40837  0.00000  0.18327
      17     H     0.40901  0.40901  0.00000  0.18198

   Total alpha = 28.00000, Total beta = 28.00000, Total charge = -0.00000


*** PSI4 exiting successfully. Buy a developer a beer!
