    -----------------------------------------------------------------------
          Psi4: An Open-Source Ab Initio Electronic Structure Package
                              Psi4 (no tag) Driver

                          Git: Rev {detached?}  

    J. M. Turney, A. C. Simmonett, R. M. Parrish, E. G. Hohenstein,
    F. A. Evangelista, J. T. Fermann, B. J. Mintz, L. A. Burns, J. J. Wilke,
    M. L. Abrams, N. J. Russ, M. L. Leininger, C. L. Janssen, E. T. Seidl,
    W. D. Allen, H. F. Schaefer, R. A. King, E. F. Valeev, C. D. Sherrill,
    and T. D. Crawford, WIREs Comput. Mol. Sci. 2, 556-565 (2012)
    (doi: 10.1002/wcms.93)

                         Additional Contributions by
    A. E. DePrince, M. Saitow, U. Bozkaya, A. Yu. Sokolov
    -----------------------------------------------------------------------


    Psi4 started on: Tue Jul  5 16:38:31 2016

    Process ID:  12299
    PSI4DATADIR: /export131/home/mjharvey/miniconda3/share
    Memory level set to 256.000 MB

  ==> Input File <==

--------------------------------------------------------------------------
set {
	reference rhf
	basis 6-31G*
}


set_num_threads( 1 )
memory 2 gb

molecule MOL {
0 1

O	 -2.324811	 1.361668	 -0.277141
C	 -2.105949	 0.203097	 -0.092081
C	 -0.889235	 -0.467034	 -0.705952
C	 -3.002726	 -0.644460	 0.782455
C	 -0.799690	 -0.167705	 -2.211118
H	 -0.991520	 -1.536187	 -0.555110
H	 0.019130	 -0.140442	 -0.207718
C	 0.398899	 -0.856029	 -2.868545
H	 -1.725686	 -0.487914	 -2.675210
H	 -0.725209	 0.907410	 -2.367089
C	 0.575894	 -0.534611	 -4.356973
H	 0.306661	 -1.933186	 -2.742240
H	 1.304265	 -0.563480	 -2.340742
C	 -0.542855	 -1.061800	 -5.257233
H	 1.520315	 -0.958943	 -4.688187
H	 0.666711	 0.542299	 -4.483875
H	 -0.662595	 -2.135686	 -5.142539
H	 -0.320767	 -0.864602	 -6.301354
H	 -1.497555	 -0.597081	 -5.035027
H	 -3.496582	 -1.399307	 0.176174
H	 -3.747939	 -0.023774	 1.260148
H	 -2.421318	 -1.168775	 1.535358

	symmetry c1
}
set optking {
	frozen_dihedral = ("
		6 3 5 8,
		3 5 8 12,
		12 8 11 15
	")
}

ee = energy('scf')
oeprop('DIPOLE', 'QUADRUPOLE', 'MULLIKEN_CHARGES')
f=open( 'psi4out.xyz', 'w' )
f.write( "22  " )
f.write( str(ee) + "\n" )
f.write( MOL.save_string_xyz() )
f.close()
--------------------------------------------------------------------------

  Memory set to   2.000 GiB by Python script.

*** tstart() called on cx1-3-4-4.cx1.hpc.ic.ac.uk
*** at Tue Jul  5 16:38:31 2016


         ---------------------------------------------------------
                                   SCF
            by Justin Turney, Rob Parrish, and Andy Simmonett
                              RHF Reference
                        1 Threads,   2000 MiB Core
         ---------------------------------------------------------

  ==> Geometry <==

    Molecular point group: c1
    Full point group: C1

    Geometry (in Angstrom), charge = 0, multiplicity = 1:

       Center              X                  Y                   Z               Mass       
    ------------   -----------------  -----------------  -----------------  -----------------
           O         -1.225491149982     1.633379306964     1.605136679240    15.994914619560
           C         -1.006629149982     0.474808306964     1.790196679240    12.000000000000
           C          0.210084850018    -0.195322693036     1.176325679240    12.000000000000
           C         -1.903406149982    -0.372748693036     2.664732679240    12.000000000000
           C          0.299629850018     0.104006306964    -0.328840320760    12.000000000000
           H          0.107799850018    -1.264475693036     1.327167679240     1.007825032070
           H          1.118449850018     0.131269306964     1.674559679240     1.007825032070
           C          1.498218850018    -0.584317693036    -0.986267320760    12.000000000000
           H         -0.626366149982    -0.216202693036    -0.792932320760     1.007825032070
           H          0.374110850018     1.179121306964    -0.484811320760     1.007825032070
           C          1.675213850018    -0.262899693036    -2.474695320760    12.000000000000
           H          1.405980850018    -1.661474693036    -0.859962320760     1.007825032070
           H          2.403584850018    -0.291768693036    -0.458464320760     1.007825032070
           C          0.556464850018    -0.790088693036    -3.374955320760    12.000000000000
           H          2.619634850018    -0.687231693036    -2.805909320760     1.007825032070
           H          1.766030850018     0.814010306964    -2.601597320760     1.007825032070
           H          0.436724850018    -1.863974693036    -3.260261320760     1.007825032070
           H          0.778552850018    -0.592890693036    -4.419076320760     1.007825032070
           H         -0.398235149982    -0.325369693036    -3.152749320760     1.007825032070
           H         -2.397262149982    -1.127595693036     2.058451679240     1.007825032070
           H         -2.648619149982     0.247937306964     3.142425679240     1.007825032070
           H         -1.321998149982    -0.897063693036     3.417635679240     1.007825032070

  Running in c1 symmetry.

  Rotational constants: A =      0.15495  B =      0.02447  C =      0.02425 [cm^-1]
  Rotational constants: A =   4645.15450  B =    733.69503  C =    727.10457 [MHz]
  Nuclear repulsion =  372.872492124102564

  Charge       = 0
  Multiplicity = 1
  Electrons    = 64
  Nalpha       = 32
  Nbeta        = 32

  ==> Algorithm <==

  SCF Algorithm Type is DF.
  DIIS enabled.
  MOM disabled.
  Fractional occupation disabled.
  Guess Type is CORE.
  Energy threshold   = 1.00e-06
  Density threshold  = 1.00e-06
  Integral threshold = 0.00e+00

  ==> Primary Basis <==

  Basis Set: 6-31G*
    Number of shells: 76
    Number of basis function: 148
    Number of Cartesian functions: 148
    Spherical Harmonics?: false
    Max angular momentum: 2

  ==> Pre-Iterations <==

   -------------------------------------------------------
    Irrep   Nso     Nmo     Nalpha   Nbeta   Ndocc  Nsocc
   -------------------------------------------------------
     A        148     148       0       0       0       0
   -------------------------------------------------------
    Total     148     148      32      32      32       0
   -------------------------------------------------------

 OEINTS: Overlap, kinetic, potential, dipole, and quadrupole integrals
         stored in file 35.

  ==> Integral Setup <==

  ==> DFJK: Density-Fitted J/K Matrices <==

    J tasked:                  Yes
    K tasked:                  Yes
    wK tasked:                  No
    OpenMP threads:              1
    Integrals threads:           1
    Memory (MB):              1430
    Algorithm:                Core
    Integral Cache:           NONE
    Schwarz Cutoff:          1E-12
    Fitting Condition:       1E-12

   => Auxiliary Basis Set <=

  Basis Set: 
    Number of shells: 318
    Number of basis function: 998
    Number of Cartesian functions: 998
    Spherical Harmonics?: false
    Max angular momentum: 3

  Minimum eigenvalue in the overlap matrix is 3.0691639323E-03.
  Using Symmetric Orthogonalization.
  SCF Guess: Core (One-Electron) Hamiltonian.

  ==> Iterations <==

                           Total Energy        Delta E     RMS |[F,P]|

   @DF-RHF iter   1:  -261.89857348886392   -2.61899e+02   6.52268e-02 
   @DF-RHF iter   2:  -174.99982168919746    8.68988e+01   7.10147e-02 DIIS
   @DF-RHF iter   3:  -288.77027429571103   -1.13770e+02   3.64474e-02 DIIS
   @DF-RHF iter   4:  -182.48484250110130    1.06285e+02   7.23156e-02 DIIS
   @DF-RHF iter   5:  -284.47083750335105   -1.01986e+02   5.01107e-02 DIIS
   @DF-RHF iter   6:  -340.62515197119455   -5.61543e+01   2.05721e-02 DIIS
   @DF-RHF iter   7:  -347.80133401816329   -7.17618e+00   4.97457e-03 DIIS
   @DF-RHF iter   8:  -348.04921061605035   -2.47877e-01   2.20706e-03 DIIS
   @DF-RHF iter   9:  -348.09403967543767   -4.48291e-02   4.70243e-04 DIIS
   @DF-RHF iter  10:  -348.09682345037572   -2.78377e-03   1.98871e-04 DIIS
   @DF-RHF iter  11:  -348.09748662010497   -6.63170e-04   5.09664e-05 DIIS
   @DF-RHF iter  12:  -348.09758834719457   -1.01727e-04   2.18653e-05 DIIS
   @DF-RHF iter  13:  -348.09761669130705   -2.83441e-05   1.11511e-05 DIIS
   @DF-RHF iter  14:  -348.09762585013550   -9.15883e-06   4.27700e-06 DIIS
   @DF-RHF iter  15:  -348.09762702528349   -1.17515e-06   1.44639e-06 DIIS
   @DF-RHF iter  16:  -348.09762712571319   -1.00430e-07   3.98915e-07 DIIS

  ==> Post-Iterations <==

    Orbital Energies (a.u.)
    -----------------------

    Doubly Occupied:                                                      

       1A    -20.547869     2A    -11.325047     3A    -11.230089  
       4A    -11.229023     5A    -11.222470     6A    -11.218956  
       7A    -11.217925     8A    -11.210205     9A     -1.393805  
      10A     -1.092038    11A     -1.043092    12A     -1.000818  
      13A     -0.936226    14A     -0.854851    15A     -0.783022  
      16A     -0.732278    17A     -0.657624    18A     -0.649150  
      19A     -0.627900    20A     -0.612011    21A     -0.601441  
      22A     -0.583831    23A     -0.557962    24A     -0.549052  
      25A     -0.523136    26A     -0.520724    27A     -0.498544  
      28A     -0.483082    29A     -0.465589    30A     -0.461874  
      31A     -0.459289    32A     -0.397278  

    Virtual:                                                              

      33A      0.166759    34A      0.224266    35A      0.236895  
      36A      0.264380    37A      0.276916    38A      0.282431  
      39A      0.306164    40A      0.308092    41A      0.313379  
      42A      0.314296    43A      0.331494    44A      0.339183  
      45A      0.344644    46A      0.355228    47A      0.365747  
      48A      0.385860    49A      0.421632    50A      0.426588  
      51A      0.440452    52A      0.453984    53A      0.515427  
      54A      0.528837    55A      0.700393    56A      0.719663  
      57A      0.726679    58A      0.749724    59A      0.756120  
      60A      0.762196    61A      0.787606    62A      0.816647  
      63A      0.837055    64A      0.862747    65A      0.882919  
      66A      0.928993    67A      0.933964    68A      0.956887  
      69A      0.982273    70A      0.991066    71A      1.024108  
      72A      1.035544    73A      1.075805    74A      1.104741  
      75A      1.116233    76A      1.117941    77A      1.135284  
      78A      1.152035    79A      1.158167    80A      1.168655  
      81A      1.192342    82A      1.194412    83A      1.202523  
      84A      1.203846    85A      1.211393    86A      1.234274  
      87A      1.243388    88A      1.260245    89A      1.281602  
      90A      1.290716    91A      1.313269    92A      1.349805  
      93A      1.407802    94A      1.471892    95A      1.488116  
      96A      1.561364    97A      1.656839    98A      1.712455  
      99A      1.735557   100A      1.749462   101A      1.837637  
     102A      1.845672   103A      1.930078   104A      1.965601  
     105A      1.988679   106A      2.034361   107A      2.085286  
     108A      2.107755   109A      2.117676   110A      2.161865  
     111A      2.213892   112A      2.222420   113A      2.246263  
     114A      2.268579   115A      2.269500   116A      2.302284  
     117A      2.314435   118A      2.363386   119A      2.374180  
     120A      2.432617   121A      2.470391   122A      2.513629  
     123A      2.586831   124A      2.610796   125A      2.648591  
     126A      2.675088   127A      2.691802   128A      2.718620  
     129A      2.743806   130A      2.759308   131A      2.785113  
     132A      2.860940   133A      2.926770   134A      2.979853  
     135A      2.995524   136A      3.039973   137A      3.082035  
     138A      3.198196   139A      3.373534   140A      3.385454  
     141A      4.438432   142A      4.523317   143A      4.587688  
     144A      4.685950   145A      4.768453   146A      4.855798  
     147A      4.924784   148A      5.002883  

    Final Occupation by Irrep:
              A 
    DOCC [    32 ]

  Energy converged.

  @DF-RHF Final Energy:  -348.09762712571319

   => Energetics <=

    Nuclear Repulsion Energy =            372.8724921241025640
    One-Electron Energy =               -1210.5679337885069344
    Two-Electron Energy =                 489.5978145386905567
    DFT Exchange-Correlation Energy =       0.0000000000000000
    Empirical Dispersion Energy =           0.0000000000000000
    PCM Polarization Energy =               0.0000000000000000
    EFP Energy =                            0.0000000000000000
    Total Energy =                       -348.0976271257138137

    Alert: EFP and PCM quantities not currently incorporated into SCF psivars.

Properties will be evaluated at   0.000000,   0.000000,   0.000000 Bohr
  ==> Properties <==


Properties computed using the SCF density matrix

  Nuclear Dipole Moment: (a.u.)
     X:     3.3862      Y:    -6.1379      Z:    -6.7566

  Electronic Dipole Moment: (a.u.)
     X:    -3.1043      Y:     5.0301      Z:     6.8533

  Dipole Moment: (a.u.)
     X:     0.2819      Y:    -1.1078      Z:     0.0967     Total:     1.1472

  Dipole Moment: (Debye)
     X:     0.7165      Y:    -2.8157      Z:     0.2458     Total:     2.9158


  Saving occupied orbitals to File 180.

*** tstop() called on cx1-3-4-4.cx1.hpc.ic.ac.uk at Tue Jul  5 16:38:50 2016
Module time:
	user time   =      18.13 seconds =       0.30 minutes
	system time =       0.21 seconds =       0.00 minutes
	total time  =         19 seconds =       0.32 minutes
Total time:
	user time   =      18.13 seconds =       0.30 minutes
	system time =       0.21 seconds =       0.00 minutes
	total time  =         19 seconds =       0.32 minutes


Properties will be evaluated at   0.000000,   0.000000,   0.000000 Bohr

Properties computed using the  density matrix

  Nuclear Dipole Moment: (a.u.)
     X:     3.3862      Y:    -6.1379      Z:    -6.7566

  Electronic Dipole Moment: (a.u.)
     X:    -3.1043      Y:     5.0301      Z:     6.8533

  Dipole Moment: (a.u.)
     X:     0.2819      Y:    -1.1078      Z:     0.0967     Total:     1.1472

  Dipole Moment: (Debye)
     X:     0.7165      Y:    -2.8157      Z:     0.2458     Total:     2.9158

  Quadrupole Moment: (Debye Ang)
    XX:   -51.7036     YY:   -57.3801     ZZ:   -49.5853
    XY:     4.3200     XZ:     0.0268     YZ:    -4.6982

  Traceless Quadrupole Moment: (Debye Ang)
    XX:     1.1861     YY:    -4.4904     ZZ:     3.3044
    XY:     4.3200     XZ:     0.0268     YZ:    -4.6982

  Mulliken Charges: (a.u.)
   Center  Symbol    Alpha    Beta     Spin     Total
       1     O     4.26282  4.26282  0.00000 -0.52565
       2     C     2.73517  2.73517  0.00000  0.52965
       3     C     3.20404  3.20404  0.00000 -0.40808
       4     C     3.28975  3.28975  0.00000 -0.57950
       5     C     3.15799  3.15799  0.00000 -0.31598
       6     H     0.41725  0.41725  0.00000  0.16550
       7     H     0.40109  0.40109  0.00000  0.19782
       8     C     3.15329  3.15329  0.00000 -0.30659
       9     H     0.41865  0.41865  0.00000  0.16270
      10     H     0.40456  0.40456  0.00000  0.19087
      11     C     3.15288  3.15288  0.00000 -0.30576
      12     H     0.42511  0.42511  0.00000  0.14977
      13     H     0.42136  0.42136  0.00000  0.15729
      14     C     3.24194  3.24194  0.00000 -0.48388
      15     H     0.42040  0.42040  0.00000  0.15920
      16     H     0.42082  0.42082  0.00000  0.15836
      17     H     0.42289  0.42289  0.00000  0.15422
      18     H     0.41813  0.41813  0.00000  0.16374
      19     H     0.41877  0.41877  0.00000  0.16245
      20     H     0.40743  0.40743  0.00000  0.18515
      21     H     0.39693  0.39693  0.00000  0.20615
      22     H     0.40872  0.40872  0.00000  0.18256

   Total alpha = 32.00000, Total beta = 32.00000, Total charge =  0.00000


*** PSI4 exiting successfully. Buy a developer a beer!
