    -----------------------------------------------------------------------
          Psi4: An Open-Source Ab Initio Electronic Structure Package
                              Psi4 (no tag) Driver

                          Git: Rev {detached?}  

    J. M. Turney, A. C. Simmonett, R. M. Parrish, E. G. Hohenstein,
    F. A. Evangelista, J. T. Fermann, B. J. Mintz, L. A. Burns, J. J. Wilke,
    M. L. Abrams, N. J. Russ, M. L. Leininger, C. L. Janssen, E. T. Seidl,
    W. D. Allen, H. F. Schaefer, R. A. King, E. F. Valeev, C. D. Sherrill,
    and T. D. Crawford, WIREs Comput. Mol. Sci. 2, 556-565 (2012)
    (doi: 10.1002/wcms.93)

                         Additional Contributions by
    A. E. DePrince, M. Saitow, U. Bozkaya, A. Yu. Sokolov
    -----------------------------------------------------------------------


    Psi4 started on: Tue Jul  5 16:19:50 2016

    Process ID:  18682
    PSI4DATADIR: /export131/home/mjharvey/miniconda3/share
    Memory level set to 256.000 MB

  ==> Input File <==

--------------------------------------------------------------------------
set {
	reference rhf
	basis 6-31G*
}


set_num_threads( 1 )
memory 2 gb

molecule MOL {
0 1

H	 1.709000	 -2.951000	 -0.140000
C	 1.453000	 -1.946000	 -0.464000
C	 0.408000	 -1.338000	 0.466000
H	 1.067000	 -1.998000	 -1.476000
H	 2.370000	 -1.367000	 -0.487000
N	 -0.000000	 -0.000000	 0.058000
H	 -0.464000	 -1.979000	 0.456000
H	 0.775000	 -1.341000	 1.497000
C	 -1.363000	 0.315000	 0.466000
C	 0.954000	 1.023000	 0.466000
C	 -2.412000	 -0.285000	 -0.464000
H	 -1.482000	 1.391000	 0.456000
H	 -1.549000	 -0.001000	 1.497000
C	 0.959000	 2.232000	 -0.464000
H	 1.946000	 0.588000	 0.456000
H	 0.774000	 1.342000	 1.497000
H	 -2.263000	 0.075000	 -1.476000
H	 -2.369000	 -1.369000	 -0.487000
H	 -3.410000	 -0.005000	 -0.140000
H	 1.197000	 1.922000	 -1.476000
H	 -0.001000	 2.736000	 -0.487000
H	 1.701000	 2.956000	 -0.140000

	symmetry c1
}
ee = optimize('scf')
oeprop('DIPOLE', 'QUADRUPOLE', 'MULLIKEN_CHARGES')
f=open( 'psi4out.xyz', 'w' )
f.write( "22  " )
f.write( str(ee) + "\n" )
f.write( MOL.save_string_xyz() )
f.close()
--------------------------------------------------------------------------

  Memory set to   2.000 GiB by Python script.
gradient() will perform analytic gradient computation.

*** tstart() called on cx1-3-15-2.cx1.hpc.ic.ac.uk
*** at Tue Jul  5 16:19:51 2016


         ---------------------------------------------------------
                                   SCF
            by Justin Turney, Rob Parrish, and Andy Simmonett
                              RHF Reference
                        1 Threads,   2000 MiB Core
         ---------------------------------------------------------

  ==> Geometry <==

    Molecular point group: c1
    Full point group: C1

    Geometry (in Angstrom), charge = 0, multiplicity = 1:

       Center              X                  Y                   Z               Mass       
    ------------   -----------------  -----------------  -----------------  -----------------
           H          1.709108703779    -2.951108703779    -0.144258851993     1.007825032070
           C          1.453108703779    -1.946108703779    -0.468258851993    12.000000000000
           C          0.408108703779    -1.338108703779     0.461741148007    12.000000000000
           H          1.067108703779    -1.998108703779    -1.480258851993     1.007825032070
           H          2.370108703779    -1.367108703779    -0.491258851993     1.007825032070
           N          0.000108703779    -0.000108703779     0.053741148007    14.003074004780
           H         -0.463891296221    -1.979108703779     0.451741148007     1.007825032070
           H          0.775108703779    -1.341108703779     1.492741148007     1.007825032070
           C         -1.362891296221     0.314891296221     0.461741148007    12.000000000000
           C          0.954108703779     1.022891296221     0.461741148007    12.000000000000
           C         -2.411891296221    -0.285108703779    -0.468258851993    12.000000000000
           H         -1.481891296221     1.390891296221     0.451741148007     1.007825032070
           H         -1.548891296221    -0.001108703779     1.492741148007     1.007825032070
           C          0.959108703779     2.231891296221    -0.468258851993    12.000000000000
           H          1.946108703779     0.587891296221     0.451741148007     1.007825032070
           H          0.774108703779     1.341891296221     1.492741148007     1.007825032070
           H         -2.262891296221     0.074891296221    -1.480258851993     1.007825032070
           H         -2.368891296221    -1.369108703779    -0.491258851993     1.007825032070
           H         -3.409891296221    -0.005108703779    -0.144258851993     1.007825032070
           H          1.197108703779     1.921891296221    -1.480258851993     1.007825032070
           H         -0.000891296221     2.735891296221    -0.491258851993     1.007825032070
           H          1.701108703779     2.955891296221    -0.144258851993     1.007825032070

  Running in c1 symmetry.

  Rotational constants: A =      0.07722  B =      0.07721  C =      0.04485 [cm^-1]
  Rotational constants: A =   2315.13824  B =   2314.61064  C =   1344.54340 [MHz]
  Nuclear repulsion =  337.497668676411536

  Charge       = 0
  Multiplicity = 1
  Electrons    = 58
  Nalpha       = 29
  Nbeta        = 29

  ==> Algorithm <==

  SCF Algorithm Type is DF.
  DIIS enabled.
  MOM disabled.
  Fractional occupation disabled.
  Guess Type is CORE.
  Energy threshold   = 1.00e-08
  Density threshold  = 1.00e-08
  Integral threshold = 0.00e+00

  ==> Primary Basis <==

  Basis Set: 6-31G*
    Number of shells: 72
    Number of basis function: 135
    Number of Cartesian functions: 135
    Spherical Harmonics?: false
    Max angular momentum: 2

  ==> Pre-Iterations <==

   -------------------------------------------------------
    Irrep   Nso     Nmo     Nalpha   Nbeta   Ndocc  Nsocc
   -------------------------------------------------------
     A        135     135       0       0       0       0
   -------------------------------------------------------
    Total     135     135      29      29      29       0
   -------------------------------------------------------

 OEINTS: Overlap, kinetic, potential, dipole, and quadrupole integrals
         stored in file 35.

  ==> Integral Setup <==

  ==> DFJK: Density-Fitted J/K Matrices <==

    J tasked:                  Yes
    K tasked:                  Yes
    wK tasked:                  No
    OpenMP threads:              1
    Integrals threads:           1
    Memory (MB):              1430
    Algorithm:                Core
    Integral Cache:           NONE
    Schwarz Cutoff:          1E-12
    Fitting Condition:       1E-12

   => Auxiliary Basis Set <=

  Basis Set: 
    Number of shells: 303
    Number of basis function: 942
    Number of Cartesian functions: 942
    Spherical Harmonics?: false
    Max angular momentum: 3

  Minimum eigenvalue in the overlap matrix is 4.4234629080E-03.
  Using Symmetric Orthogonalization.
  SCF Guess: Core (One-Electron) Hamiltonian.

  ==> Iterations <==

                           Total Energy        Delta E     RMS |[F,P]|

   @DF-RHF iter   1:  -151.22683863942473   -1.51227e+02   8.84899e-02 
   @DF-RHF iter   2:  -210.08715671166806   -5.88603e+01   5.11537e-02 DIIS
   @DF-RHF iter   3:  -229.05160923481424   -1.89645e+01   5.88496e-02 DIIS
   @DF-RHF iter   4:  -284.52010212855339   -5.54685e+01   2.17368e-02 DIIS
   @DF-RHF iter   5:  -289.92356825029026   -5.40347e+00   6.29074e-03 DIIS
   @DF-RHF iter   6:  -290.31977142289065   -3.96203e-01   2.25446e-03 DIIS
   @DF-RHF iter   7:  -290.36881545756364   -4.90440e-02   4.99688e-04 DIIS
   @DF-RHF iter   8:  -290.37197799475064   -3.16254e-03   1.59994e-04 DIIS
   @DF-RHF iter   9:  -290.37229726412079   -3.19269e-04   5.15105e-05 DIIS
   @DF-RHF iter  10:  -290.37232964610541   -3.23820e-05   1.64878e-05 DIIS
   @DF-RHF iter  11:  -290.37233317647213   -3.53037e-06   3.88214e-06 DIIS
   @DF-RHF iter  12:  -290.37233337406280   -1.97591e-07   6.76447e-07 DIIS
   @DF-RHF iter  13:  -290.37233338267492   -8.61212e-09   1.83113e-07 DIIS
   @DF-RHF iter  14:  -290.37233338328133   -6.06406e-10   5.48173e-08 DIIS
   @DF-RHF iter  15:  -290.37233338333749   -5.61613e-11   1.47918e-08 DIIS
   @DF-RHF iter  16:  -290.37233338334056   -3.06954e-12   4.85588e-09 DIIS

  ==> Post-Iterations <==

    Orbital Energies (a.u.)
    -----------------------

    Doubly Occupied:                                                      

       1A    -15.537049     2A    -11.240257     3A    -11.240210  
       4A    -11.240180     5A    -11.205101     6A    -11.205075  
       7A    -11.205061     8A     -1.223631     9A     -1.023348  
      10A     -1.023303    11A     -0.955181    12A     -0.845914  
      13A     -0.845840    14A     -0.772314    15A     -0.645668  
      16A     -0.645628    17A     -0.619909    18A     -0.591278  
      19A     -0.591172    20A     -0.549982    21A     -0.531812  
      22A     -0.518257    23A     -0.518218    24A     -0.493564  
      25A     -0.493497    26A     -0.490620    27A     -0.461163  
      28A     -0.460974    29A     -0.340985  

    Virtual:                                                              

      30A      0.232274    31A      0.254509    32A      0.254537  
      33A      0.277320    34A      0.300973    35A      0.301002  
      36A      0.320902    37A      0.325859    38A      0.325906  
      39A      0.335392    40A      0.335432    41A      0.350093  
      42A      0.358686    43A      0.391112    44A      0.391199  
      45A      0.391441    46A      0.417610    47A      0.417692  
      48A      0.449512    49A      0.477494    50A      0.477595  
      51A      0.720873    52A      0.720936    53A      0.739883  
      54A      0.740036    55A      0.748488    56A      0.755176  
      57A      0.801751    58A      0.801841    59A      0.810818  
      60A      0.907025    61A      0.935333    62A      0.935509  
      63A      0.945896    64A      0.964919    65A      0.965034  
      66A      1.052143    67A      1.052292    68A      1.100589  
      69A      1.126673    70A      1.140633    71A      1.140730  
      72A      1.158270    73A      1.175583    74A      1.175753  
      75A      1.188086    76A      1.202450    77A      1.202550  
      78A      1.208966    79A      1.253056    80A      1.253186  
      81A      1.254885    82A      1.288460    83A      1.288643  
      84A      1.293988    85A      1.340717    86A      1.341104  
      87A      1.350452    88A      1.520847    89A      1.521078  
      90A      1.668706    91A      1.696288    92A      1.696530  
      93A      1.750756    94A      1.848696    95A      1.848803  
      96A      1.888408    97A      2.064838    98A      2.064936  
      99A      2.074201   100A      2.181019   101A      2.181219  
     102A      2.260134   103A      2.282827   104A      2.283026  
     105A      2.305849   106A      2.337937   107A      2.340991  
     108A      2.341245   109A      2.431623   110A      2.431805  
     111A      2.533453   112A      2.533622   113A      2.572830  
     114A      2.649243   115A      2.669449   116A      2.669916  
     117A      2.685540   118A      2.698697   119A      2.699028  
     120A      2.749412   121A      2.811976   122A      2.862890  
     123A      2.863177   124A      3.054114   125A      3.113719  
     126A      3.113831   127A      3.241335   128A      3.241734  
     129A      4.486145   130A      4.629522   131A      4.629613  
     132A      4.694241   133A      4.861310   134A      4.861439  
     135A      4.943672  

    Final Occupation by Irrep:
              A 
    DOCC [    29 ]

  Energy converged.

  @DF-RHF Final Energy:  -290.37233338334056

   => Energetics <=

    Nuclear Repulsion Energy =            337.4976686764115357
    One-Electron Energy =               -1060.7096229981730175
    Two-Electron Energy =                 432.8396209384201256
    DFT Exchange-Correlation Energy =       0.0000000000000000
    Empirical Dispersion Energy =           0.0000000000000000
    PCM Polarization Energy =               0.0000000000000000
    EFP Energy =                            0.0000000000000000
    Total Energy =                       -290.3723333833413562

    Alert: EFP and PCM quantities not currently incorporated into SCF psivars.

Properties will be evaluated at   0.000000,   0.000000,   0.000000 Bohr
  ==> Properties <==


Properties computed using the SCF density matrix

  Nuclear Dipole Moment: (a.u.)
     X:     0.0025      Y:    -0.0025      Z:    -0.4819

  Electronic Dipole Moment: (a.u.)
     X:    -0.0031      Y:     0.0027      Z:     0.7668

  Dipole Moment: (a.u.)
     X:    -0.0007      Y:     0.0002      Z:     0.2849     Total:     0.2849

  Dipole Moment: (Debye)
     X:    -0.0017      Y:     0.0005      Z:     0.7242     Total:     0.7242


  Saving occupied orbitals to File 180.

*** tstop() called on cx1-3-15-2.cx1.hpc.ic.ac.uk at Tue Jul  5 16:20:05 2016
Module time:
	user time   =      14.41 seconds =       0.24 minutes
	system time =       0.08 seconds =       0.00 minutes
	total time  =         14 seconds =       0.23 minutes
Total time:
	user time   =      14.41 seconds =       0.24 minutes
	system time =       0.08 seconds =       0.00 minutes
	total time  =         14 seconds =       0.23 minutes

*** tstart() called on cx1-3-15-2.cx1.hpc.ic.ac.uk
*** at Tue Jul  5 16:20:05 2016


         ------------------------------------------------------------
                                   SCF GRAD                          
                          Rob Parrish, Justin Turney,                
                       Andy Simmonett, and Alex Sokolov              
         ------------------------------------------------------------

  ==> Geometry <==

    Molecular point group: c1
    Full point group: C1

    Geometry (in Angstrom), charge = 0, multiplicity = 1:

       Center              X                  Y                   Z               Mass       
    ------------   -----------------  -----------------  -----------------  -----------------
           H          1.709108703779    -2.951108703779    -0.144258851993     1.007825032070
           C          1.453108703779    -1.946108703779    -0.468258851993    12.000000000000
           C          0.408108703779    -1.338108703779     0.461741148007    12.000000000000
           H          1.067108703779    -1.998108703779    -1.480258851993     1.007825032070
           H          2.370108703779    -1.367108703779    -0.491258851993     1.007825032070
           N          0.000108703779    -0.000108703779     0.053741148007    14.003074004780
           H         -0.463891296221    -1.979108703779     0.451741148007     1.007825032070
           H          0.775108703779    -1.341108703779     1.492741148007     1.007825032070
           C         -1.362891296221     0.314891296221     0.461741148007    12.000000000000
           C          0.954108703779     1.022891296221     0.461741148007    12.000000000000
           C         -2.411891296221    -0.285108703779    -0.468258851993    12.000000000000
           H         -1.481891296221     1.390891296221     0.451741148007     1.007825032070
           H         -1.548891296221    -0.001108703779     1.492741148007     1.007825032070
           C          0.959108703779     2.231891296221    -0.468258851993    12.000000000000
           H          1.946108703779     0.587891296221     0.451741148007     1.007825032070
           H          0.774108703779     1.341891296221     1.492741148007     1.007825032070
           H         -2.262891296221     0.074891296221    -1.480258851993     1.007825032070
           H         -2.368891296221    -1.369108703779    -0.491258851993     1.007825032070
           H         -3.409891296221    -0.005108703779    -0.144258851993     1.007825032070
           H          1.197108703779     1.921891296221    -1.480258851993     1.007825032070
           H         -0.000891296221     2.735891296221    -0.491258851993     1.007825032070
           H          1.701108703779     2.955891296221    -0.144258851993     1.007825032070

  Nuclear repulsion =  337.497668676411536

  ==> Basis Set <==

  Basis Set: 6-31G*
    Number of shells: 72
    Number of basis function: 135
    Number of Cartesian functions: 135
    Spherical Harmonics?: false
    Max angular momentum: 2

  ==> DFJKGrad: Density-Fitted SCF Gradients <==

    Gradient:                    1
    J tasked:                  Yes
    K tasked:                  Yes
    wK tasked:                  No
    OpenMP threads:              1
    Integrals threads:           1
    Memory (MB):              1430
    Schwarz Cutoff:          0E+00
    Fitting Condition:       1E-12

   => Auxiliary Basis Set <=

  Basis Set: 
    Number of shells: 303
    Number of basis function: 942
    Number of Cartesian functions: 942
    Spherical Harmonics?: false
    Max angular momentum: 3


  -Total Gradient:
     Atom            X                  Y                   Z
    ------   -----------------  -----------------  -----------------
       1        0.000031895662    -0.000067355049     0.000001840349
       2       -0.000173534972     0.000236695521     0.000057636020
       3       -0.000414977051    -0.000447560993    -0.000283490586
       4        0.000046852534    -0.000046042437    -0.000036450334
       5        0.000067784057    -0.000005234718    -0.000020939889
       6        0.000249321944    -0.000064638233    -0.000066260786
       7        0.000219777827     0.000142457858     0.000065364860
       8        0.000060169897     0.000051892584     0.000239115502
       9       -0.000357141765    -0.000124283238    -0.000326681244
      10       -0.000494643160     0.000417461416    -0.000272266206
      11       -0.000076392611     0.000687925238     0.000269283601
      12        0.000021628136    -0.000083039958     0.000013719187
      13        0.000024095784    -0.000010865459     0.000191030542
      14        0.000111176580     0.000330470688     0.000386235380
      15        0.000319702358    -0.000141675502     0.000049010883
      16        0.000075723410    -0.000024470691     0.000109013825
      17        0.000053206320    -0.000043000822    -0.000080229714
      18       -0.000013776757    -0.000261928435     0.000020593428
      19        0.000232097262    -0.000187515330    -0.000042647704
      20        0.000071000130    -0.000201852123    -0.000320330802
      21        0.000087948063    -0.000099931533     0.000080030108
      22       -0.000141913647    -0.000057508784    -0.000033576416


*** tstop() called on cx1-3-15-2.cx1.hpc.ic.ac.uk at Tue Jul  5 16:20:25 2016
Module time:
	user time   =      19.80 seconds =       0.33 minutes
	system time =       0.08 seconds =       0.00 minutes
	total time  =         20 seconds =       0.33 minutes
Total time:
	user time   =      34.22 seconds =       0.57 minutes
	system time =       0.16 seconds =       0.00 minutes
	total time  =         34 seconds =       0.57 minutes
CURRENT ENERGY: -290.3723333833

			-----------------------------------------
			 OPTKING 2.0: for geometry optimizations 
			  - R.A. King,  Bethel University        
			-----------------------------------------

	Internal coordinates to be generated automatically.
	Detected frag with atoms:  1 2 3 4 5 6 7 8 9 10 11 12 13 14 15 16 17 18 19 20
	 21 22
	---Fragment 1 Bond Connectivity---
	 1 : 2
	 2 : 1 3 4 5
	 3 : 2 6 7 8
	 4 : 2
	 5 : 2
	 6 : 3 9 10
	 7 : 3
	 8 : 3
	 9 : 6 11 12 13
	 10 : 6 14 15 16
	 11 : 9 17 18 19
	 12 : 9
	 13 : 9
	 14 : 10 20 21 22
	 15 : 10
	 16 : 10
	 17 : 11
	 18 : 11
	 19 : 11
	 20 : 14
	 21 : 14
	 22 : 14

	---Fragment 1 Geometry and Gradient---
	 H           3.2297473815       -5.5767872385       -0.2726097225
	 C           2.7459774915       -3.6776124750       -0.8848809896
	 C           0.7712136826       -2.5286589862        0.8725643140
	 H           2.0165432042       -3.7758782339       -2.7972838360
	 H           4.4788563553       -2.5834610440       -0.9283446906
	 N           0.0002054204       -0.0002054204        0.1015560518
	 H          -0.8766275053       -3.7399734374        0.8536670527
	 H           1.4647431734       -2.5343281646        2.8208719570
	 C          -2.5754912988        0.5950583115        0.8725643140
	 C           1.8030041511        1.9329844136        0.8725643140
	 C          -4.5578140121       -0.5387773682       -0.8848809896
	 H          -2.8003687086        2.6284036305        0.8536670527
	 H          -2.9269803595       -0.0020951465        2.8208719570
	 C           1.8124527818        4.2176633082       -0.8848809896
	 H           3.6776124750        1.1109535458        0.8536670527
	 H           1.4628534472        2.5358070500        2.8208719570
	 H          -4.2762448183        0.1415240396       -2.7972838360
	 H          -4.4765557884       -2.5872404963       -0.9283446906
	 H          -6.4437606928       -0.0096540510       -0.2726097225
	 H           2.2622076014        3.6318482070       -2.7972838360
	 H          -0.0016843058        5.1700852792       -0.9283446906
	 H           3.2146295724        5.5858250284       -0.2726097225
	             0.0000318957       -0.0000673550        0.0000018403
	            -0.0001735350        0.0002366955        0.0000576360
	            -0.0004149771       -0.0004475610       -0.0002834906
	             0.0000468525       -0.0000460424       -0.0000364503
	             0.0000677841       -0.0000052347       -0.0000209399
	             0.0002493219       -0.0000646382       -0.0000662608
	             0.0002197778        0.0001424579        0.0000653649
	             0.0000601699        0.0000518926        0.0002391155
	            -0.0003571418       -0.0001242832       -0.0003266812
	            -0.0004946432        0.0004174614       -0.0002722662
	            -0.0000763926        0.0006879252        0.0002692836
	             0.0000216281       -0.0000830400        0.0000137192
	             0.0000240958       -0.0000108655        0.0001910305
	             0.0001111766        0.0003304707        0.0003862354
	             0.0003197024       -0.0001416755        0.0000490109
	             0.0000757234       -0.0000244707        0.0001090138
	             0.0000532063       -0.0000430008       -0.0000802297
	            -0.0000137768       -0.0002619284        0.0000205934
	             0.0002320973       -0.0001875153       -0.0000426477
	             0.0000710001       -0.0002018521       -0.0003203308
	             0.0000879481       -0.0000999315        0.0000800301
	            -0.0001419136       -0.0000575088       -0.0000335764

	Previous optimization step data not found.  Starting new optimization.

	---Fragment 1 Intrafragment Coordinates---
	 - Coordinate -           - BOHR/RAD -       - ANG/DEG -
	 R(1,2)           =         2.053235	       1.086525
	 R(2,3)           =         2.882430	       1.525316
	 R(2,4)           =         2.049150	       1.084363
	 R(2,5)           =         2.049860	       1.084739
	 R(3,6)           =         2.753540	       1.457111
	 R(3,7)           =         2.045243	       1.082296
	 R(3,8)           =         2.068071	       1.094376
	 R(6,9)           =         2.753726	       1.457209
	 R(6,10)          =         2.753500	       1.457089
	 R(9,11)          =         2.881632	       1.524894
	 R(9,12)          =         2.045830	       1.082607
	 R(9,13)          =         2.067859	       1.094264
	 R(10,14)         =         2.882440	       1.525322
	 R(10,15)         =         2.047010	       1.083231
	 R(10,16)         =         2.067607	       1.094131
	 R(11,17)         =         2.049238	       1.084410
	 R(11,18)         =         2.050535	       1.085096
	 R(11,19)         =         2.052229	       1.085993
	 R(14,20)         =         2.050059	       1.084845
	 R(14,21)         =         2.049412	       1.084502
	 R(14,22)         =         2.052521	       1.086147
	 B(1,2,3)         =         1.926556	     110.383533
	 B(1,2,4)         =         1.894219	     108.530741
	 B(1,2,5)         =         1.876393	     107.509391
	 B(2,3,6)         =         1.968316	     112.776218
	 B(2,3,7)         =         1.886276	     108.075675
	 B(2,3,8)         =         1.921499	     110.093801
	 B(3,2,4)         =         1.922247	     110.136668
	 B(3,2,5)         =         1.959865	     112.291999
	 B(3,6,9)         =         1.962758	     112.457730
	 B(3,6,10)        =         1.963795	     112.517156
	 B(4,2,5)         =         1.882554	     107.862398
	 B(6,3,7)         =         1.891947	     108.400591
	 B(6,3,8)         =         1.939288	     111.112990
	 B(6,9,11)        =         1.968855	     112.807074
	 B(6,9,12)        =         1.891332	     108.365331
	 B(6,9,13)        =         1.939454	     111.122555
	 B(6,10,14)       =         1.969157	     112.824390
	 B(6,10,15)       =         1.891319	     108.364576
	 B(6,10,16)       =         1.939963	     111.151686
	 B(7,3,8)         =         1.851749	     106.097417
	 B(9,6,10)        =         1.963010	     112.472185
	 B(9,11,17)       =         1.921981	     110.121397
	 B(9,11,18)       =         1.959230	     112.255596
	 B(9,11,19)       =         1.927062	     110.412497
	 B(10,14,20)      =         1.920896	     110.059210
	 B(10,14,21)      =         1.958845	     112.233532
	 B(10,14,22)      =         1.926984	     110.408056
	 B(11,9,12)       =         1.885800	     108.048367
	 B(11,9,13)       =         1.922037	     110.124613
	 B(12,9,13)       =         1.851504	     106.083350
	 B(14,10,15)      =         1.885639	     108.039158
	 B(14,10,16)      =         1.921942	     110.119191
	 B(15,10,16)      =         1.850884	     106.047817
	 B(17,11,18)      =         1.882222	     107.843404
	 B(17,11,19)      =         1.895574	     108.608418
	 B(18,11,19)      =         1.875813	     107.476158
	 B(20,14,21)      =         1.883062	     107.891499
	 B(20,14,22)      =         1.895340	     108.594966
	 B(21,14,22)      =         1.876822	     107.533964
	 D(1,2,3,6)       =        -3.115177	    -178.486506
	 D(1,2,3,7)       =        -1.024052	     -58.673839
	 D(1,2,3,8)       =         0.991202	      56.791689
	 D(2,3,6,9)       =         2.646548	     151.636048
	 D(2,3,6,10)      =        -1.398251	     -80.113885
	 D(3,6,9,11)      =        -1.398577	     -80.132568
	 D(3,6,9,12)      =         2.797431	     160.280999
	 D(3,6,9,13)      =         0.769722	      44.101796
	 D(3,6,10,14)     =         2.646208	     151.616539
	 D(3,6,10,15)     =         0.559053	      32.031377
	 D(3,6,10,16)     =        -1.468183	     -84.120709
	 D(4,2,3,6)       =        -1.023825	     -58.660878
	 D(4,2,3,7)       =         1.067300	      61.151789
	 D(4,2,3,8)       =         3.082554	     176.617317
	 D(5,2,3,6)       =         1.074518	      61.565325
	 D(5,2,3,7)       =        -3.117542	    -178.622007
	 D(5,2,3,8)       =        -1.102289	     -63.156480
	 D(6,9,11,17)     =        -1.022174	     -58.566267
	 D(6,9,11,18)     =         1.075145	      61.601253
	 D(6,9,11,19)     =        -3.115361	    -178.497057
	 D(6,10,14,20)    =        -1.022547	     -58.587621
	 D(6,10,14,21)    =         1.074836	      61.583589
	 D(6,10,14,22)    =        -3.114699	    -178.459105
	 D(7,3,6,9)       =         0.558696	      32.010945
	 D(7,3,6,10)      =         2.797082	     160.261012
	 D(8,3,6,9)       =        -1.469582	     -84.200855
	 D(8,3,6,10)      =         0.768804	      44.049212
	 D(9,6,10,14)     =        -1.398724	     -80.140977
	 D(9,6,10,15)     =         2.797307	     160.273861
	 D(9,6,10,16)     =         0.770070	      44.121775
	 D(10,6,9,11)     =         2.645810	     151.593753
	 D(10,6,9,12)     =         0.558633	      32.007319
	 D(10,6,9,13)     =        -1.469077	     -84.171884
	 D(12,9,11,17)    =         1.068196	      61.203108
	 D(12,9,11,18)    =        -3.117671	    -178.629372
	 D(12,9,11,19)    =        -1.024991	     -58.727681
	 D(13,9,11,17)    =         3.083177	     176.653055
	 D(13,9,11,18)    =        -1.102689	     -63.179425
	 D(13,9,11,19)    =         0.989990	      56.722266
	 D(15,10,14,20)   =         1.067885	      61.185299
	 D(15,10,14,21)   =        -3.117917	    -178.643491
	 D(15,10,14,22)   =        -1.024267	     -58.686185
	 D(16,10,14,20)   =         3.081987	     176.584836
	 D(16,10,14,21)   =        -1.103815	     -63.243954
	 D(16,10,14,22)   =         0.989835	      56.713352

	Current energy   :      -290.3723333833

	Generating empirical Hessian (Schlegel '84) for each fragment.
	Taking RFO optimization step.
	Going to follow RFO solution 1.
	Using RFO vector 1.
	Norm of target step-size    0.00804
	Projected energy change by RFO approximation:        -0.0000114191

	Back-transformation to cartesian coordinates...
	Successfully converged to displaced geometry.

	--- Internal Coordinate Step in ANG or DEG, aJ/ANG or AJ/DEG ---
	 ---------------------------------------------------------------------------
	   Coordinate                Previous        Force       Change         New 
	   ----------                --------       ------       ------       ------
	    1 R(1,2)          =      1.086525    -0.000580    -0.000106     1.086420
	    2 R(2,3)          =      1.525316     0.000551     0.000118     1.525435
	    3 R(2,4)          =      1.084363    -0.000161    -0.000029     1.084334
	    4 R(2,5)          =      1.084739    -0.000453    -0.000082     1.084657
	    5 R(3,6)          =      1.457111    -0.000702    -0.000121     1.456990
	    6 R(3,7)          =      1.082296     0.002159     0.000388     1.082684
	    7 R(3,8)          =      1.094376    -0.002021    -0.000378     1.093998
	    8 R(6,9)          =      1.457209    -0.000960    -0.000165     1.457044
	    9 R(6,10)         =      1.457089    -0.001439    -0.000248     1.456842
	   10 R(9,11)         =      1.524894     0.002579     0.000554     1.525448
	   11 R(9,12)         =      1.082607     0.000701     0.000126     1.082733
	   12 R(9,13)         =      1.094264    -0.001475    -0.000276     1.093988
	   13 R(10,14)        =      1.525322     0.000749     0.000161     1.525483
	   14 R(10,15)        =      1.083231    -0.002877    -0.000519     1.082712
	   15 R(10,16)        =      1.094131    -0.000685    -0.000128     1.094003
	   16 R(11,17)        =      1.084410    -0.000559    -0.000101     1.084309
	   17 R(11,18)        =      1.085096    -0.002148    -0.000390     1.084707
	   18 R(11,19)        =      1.085993     0.002260     0.000412     1.086404
	   19 R(14,20)        =      1.084845    -0.003065    -0.000556     1.084289
	   20 R(14,21)        =      1.084502     0.001038     0.000188     1.084690
	   21 R(14,22)        =      1.086147     0.001197     0.000218     1.086365
	   22 B(1,2,3)        =    110.383533    -0.000000     0.004036   110.387568
	   23 B(1,2,4)        =    108.530741     0.000004     0.022064   108.552805
	   24 B(1,2,5)        =    107.509391     0.000003     0.020009   107.529400
	   25 B(2,3,6)        =    112.776218     0.000009     0.030479   112.806697
	   26 B(2,3,7)        =    108.075675    -0.000004    -0.043355   108.032321
	   27 B(2,3,8)        =    110.093801    -0.000005    -0.000373   110.093428
	   28 B(3,2,4)        =    110.136668    -0.000007    -0.035369   110.101299
	   29 B(3,2,5)        =    112.291999    -0.000003    -0.016950   112.275049
	   30 B(3,6,9)        =    112.457730     0.000008     0.040029   112.497758
	   31 B(3,6,10)       =    112.517156    -0.000009    -0.029684   112.487472
	   32 B(4,2,5)        =    107.862398     0.000004     0.008896   107.871294
	   33 B(6,3,7)        =    108.400591    -0.000005    -0.044814   108.355776
	   34 B(6,3,8)        =    111.112990     0.000002     0.045211   111.158201
	   35 B(6,9,11)       =    112.807074    -0.000002    -0.010808   112.796266
	   36 B(6,9,12)       =    108.365331     0.000001     0.012804   108.378135
	   37 B(6,9,13)       =    111.122555     0.000004     0.017333   111.139888
	   38 B(6,10,14)      =    112.824390    -0.000009    -0.044232   112.780159
	   39 B(6,10,15)      =    108.364576     0.000003     0.021361   108.385937
	   40 B(6,10,16)      =    111.151686     0.000002    -0.011790   111.139896
	   41 B(7,3,8)        =    106.097417     0.000003     0.007747   106.105164
	   42 B(9,6,10)       =    112.472185     0.000002     0.016100   112.488285
	   43 B(9,11,17)      =    110.121397    -0.000002    -0.021398   110.099999
	   44 B(9,11,18)      =    112.255596     0.000003     0.033674   112.289270
	   45 B(9,11,19)      =    110.412497    -0.000005    -0.027909   110.384588
	   46 B(10,14,20)     =    110.059210     0.000009     0.039553   110.098763
	   47 B(10,14,21)     =    112.233532     0.000009     0.053327   112.286859
	   48 B(10,14,22)     =    110.408056    -0.000007    -0.037845   110.370212
	   49 B(11,9,12)      =    108.048367     0.000000    -0.000037   108.048329
	   50 B(11,9,13)      =    110.124613    -0.000004    -0.032919   110.091694
	   51 B(12,9,13)      =    106.083350     0.000001     0.015773   106.099123
	   52 B(14,10,15)     =    108.039158     0.000002     0.010580   108.049738
	   53 B(14,10,16)     =    110.119191    -0.000000    -0.022831   110.096361
	   54 B(15,10,16)     =    106.047817     0.000003     0.054870   106.102686
	   55 B(17,11,18)     =    107.843404     0.000001     0.017531   107.860935
	   56 B(17,11,19)     =    108.608418    -0.000002    -0.051025   108.557393
	   57 B(18,11,19)     =    107.476158     0.000005     0.048690   107.524847
	   58 B(20,14,21)     =    107.891499    -0.000008    -0.022760   107.868739
	   59 B(20,14,22)     =    108.594966    -0.000004    -0.039035   108.555931
	   60 B(21,14,22)     =    107.533964    -0.000000     0.003309   107.537272
	   61 D(1,2,3,6)      =   -178.486506     0.000001     0.099592  -178.386915
	   62 D(1,2,3,7)      =    -58.673839    -0.000000     0.033390   -58.640449
	   63 D(1,2,3,8)      =     56.791689    -0.000000     0.018129    56.809818
	   64 D(2,3,6,9)      =    151.636048    -0.000001    -0.121370   151.514679
	   65 D(2,3,6,10)     =    -80.113885    -0.000000    -0.090333   -80.204218
	   66 D(3,6,9,11)     =    -80.132568    -0.000000    -0.024272   -80.156840
	   67 D(3,6,9,12)     =    160.280999    -0.000000    -0.026122   160.254877
	   68 D(3,6,9,13)     =     44.101796    -0.000001    -0.062521    44.039275
	   69 D(3,6,10,14)    =    151.616539    -0.000000    -0.050429   151.566111
	   70 D(3,6,10,15)    =     32.031377    -0.000000    -0.050553    31.980823
	   71 D(3,6,10,16)    =    -84.120709    -0.000001    -0.123026   -84.243735
	   72 D(4,2,3,6)      =    -58.660878     0.000001     0.106972   -58.553906
	   73 D(4,2,3,7)      =     61.151789     0.000000     0.040770    61.192559
	   74 D(4,2,3,8)      =    176.617317    -0.000000     0.025510   176.642827
	   75 D(5,2,3,6)      =     61.565325     0.000000     0.082701    61.648026
	   76 D(5,2,3,7)      =   -178.622007    -0.000000     0.016499  -178.605508
	   77 D(5,2,3,8)      =    -63.156480    -0.000001     0.001239   -63.155241
	   78 D(6,9,11,17)    =    -58.566267    -0.000001    -0.023859   -58.590126
	   79 D(6,9,11,18)    =     61.601253    -0.000000     0.005946    61.607199
	   80 D(6,9,11,19)    =   -178.497057     0.000001     0.070949  -178.426108
	   81 D(6,10,14,20)   =    -58.587621    -0.000001    -0.002941   -58.590562
	   82 D(6,10,14,21)   =     61.583589    -0.000000     0.030619    61.614208
	   83 D(6,10,14,22)   =   -178.459105     0.000000     0.044290  -178.414815
	   84 D(7,3,6,9)      =     32.010945     0.000000    -0.055996    31.954949
	   85 D(7,3,6,10)     =    160.261012     0.000000    -0.024960   160.236053
	   86 D(8,3,6,9)      =    -84.200855    -0.000000    -0.064076   -84.264931
	   87 D(8,3,6,10)     =     44.049212     0.000000    -0.033040    44.016172
	   88 D(9,6,10,14)    =    -80.140977     0.000001    -0.006839   -80.147816
	   89 D(9,6,10,15)    =    160.273861     0.000001    -0.006964   160.266897
	   90 D(9,6,10,16)    =     44.121775    -0.000000    -0.079436    44.042339
	   91 D(10,6,9,11)    =    151.593753     0.000001    -0.031270   151.562483
	   92 D(10,6,9,12)    =     32.007319     0.000001    -0.033120    31.974199
	   93 D(10,6,9,13)    =    -84.171884    -0.000000    -0.069518   -84.241403
	   94 D(12,9,11,17)   =     61.203108    -0.000001    -0.014568    61.188540
	   95 D(12,9,11,18)   =   -178.629372    -0.000000     0.015236  -178.614136
	   96 D(12,9,11,19)   =    -58.727681     0.000001     0.080239   -58.647442
	   97 D(13,9,11,17)   =    176.653055    -0.000001    -0.013406   176.639649
	   98 D(13,9,11,18)   =    -63.179425    -0.000000     0.016398   -63.163027
	   99 D(13,9,11,19)   =     56.722266     0.000001     0.081401    56.803667
	  100 D(15,10,14,20)  =     61.185299    -0.000001     0.003560    61.188859
	  101 D(15,10,14,21)  =   -178.643491    -0.000000     0.037121  -178.606370
	  102 D(15,10,14,22)  =    -58.686185     0.000000     0.050792   -58.635393
	  103 D(16,10,14,20)  =    176.584836     0.000000     0.062664   176.647500
	  104 D(16,10,14,21)  =    -63.243954     0.000001     0.096224   -63.147730
	  105 D(16,10,14,22)  =     56.713352     0.000001     0.109895    56.823247
	 ---------------------------------------------------------------------------

  ==> Convergence Check <==

  Measures of convergence in internal coordinates in au.
  Criteria marked as inactive (o), active & met (*), and active & unmet ( ).
  --------------------------------------------------------------------------------------------- ~
   Step     Total Energy     Delta E     MAX Force     RMS Force      MAX Disp      RMS Disp    ~
  --------------------------------------------------------------------------------------------- ~
    Convergence Criteria    1.00e-06 *    3.00e-04 *             o    1.20e-03 *             o  ~
  --------------------------------------------------------------------------------------------- ~
      1    -290.37233338   -2.90e+02      3.72e-04      9.72e-05 o    2.15e-03      7.85e-04 o  ~
  ---------------------------------------------------------------------------------------------

	Writing optimization data to binary file.
	Structure for next step:
	Cartesian Geometry (in Angstrom)
	    H     1.7080918532  -2.9517937192  -0.1453532508
	    C     1.4528892486  -1.9464857525  -0.4686719141
	    C     0.4094022444  -1.3375747772   0.4626244820
	    H     1.0653290225  -1.9973095912  -1.4801040413
	    H     2.3702185918  -1.3681901162  -0.4923815851
	    N     0.0003662243   0.0000332810   0.0548076001
	    H    -0.4630448027  -1.9786306862   0.4531819955
	    H     0.7774116325  -1.3410495792   1.4928614920
	    C    -1.3626807027   0.3147454405   0.4622831253
	    C     0.9541284091   1.0229749354   0.4626261103
	    C    -2.4114051721  -0.2854221337  -0.4688274774
	    H    -1.4820164192   1.3908385540   0.4526468376
	    H    -1.5495508502  -0.0019860447   1.4926082850
	    C     0.9585550993   2.2312805302  -0.4685430289
	    H     1.9458002365   0.5885071909   0.4531476639
	    H     0.7729257480   1.3430685855   1.4929403938
	    H    -2.2618525254   0.0754091564  -1.4803413090
	    H    -2.3687375868  -1.3690319853  -0.4924385298
	    H    -3.4097647850  -0.0043091366  -0.1455199837
	    H     1.1964647495   1.9213576018  -1.4799919971
	    H    -0.0012954378   2.7359410914  -0.4921594012
	    H     1.7011567054   2.9552356713  -0.1450902476
			--------------------------
			 OPTKING Finished Execution 
			--------------------------

    Structure for next step:
    Molecular point group: c1
    Full point group: C1

    Geometry (in Angstrom), charge = 0, multiplicity = 1:

    H            1.707924172058    -2.951721567042    -0.145603823083
    C            1.452721586904    -1.946413677141    -0.468922461616
    C            0.409234662426    -1.337502748377     0.462373863306
    H            1.065161390452    -1.997237511928    -1.480354511620
    H            2.370050860071    -1.368118084977    -0.492632130807
    N            0.000198673490     0.000105207679     0.054557012586
    H           -0.463212318102    -1.978558608360     0.452931377537
    H            0.777244022398    -1.340977550074     1.492610794673
    C           -1.362848149405     0.314817343185     0.462032506645
    C            0.953960785453     1.023046784035     0.462375491647
    C           -2.411572538667    -0.285350185178    -0.469078024928
    H           -1.482183856784     1.390910374496     0.452396219718
    H           -1.549718282649    -0.001914117835     1.492357587704
    C            0.958387475391     2.231352286560    -0.468793576483
    H            1.945632537216     0.588579072705     0.452897045919
    H            0.772758138194     1.343140409628     1.492689696432
    H           -2.262019903423     0.075481077350    -1.480591779261
    H           -2.368904956607    -1.368959954031    -0.492689075496
    H           -3.409932075316    -0.004237209533    -0.145770555972
    H            1.196297107433     1.921429381826    -1.480242467396
    H           -0.001462988425     2.736012809164    -0.492409946964
    H            1.700989024747     2.955307372349    -0.145340819848

gradient() will perform analytic gradient computation.

*** tstart() called on cx1-3-15-2.cx1.hpc.ic.ac.uk
*** at Tue Jul  5 16:20:27 2016


         ---------------------------------------------------------
                                   SCF
            by Justin Turney, Rob Parrish, and Andy Simmonett
                              RHF Reference
                        1 Threads,   2000 MiB Core
         ---------------------------------------------------------

  ==> Geometry <==

    Molecular point group: c1
    Full point group: C1

    Geometry (in Angstrom), charge = 0, multiplicity = 1:

       Center              X                  Y                   Z               Mass       
    ------------   -----------------  -----------------  -----------------  -----------------
           H          1.707924172058    -2.951721567042    -0.145603823083     1.007825032070
           C          1.452721586904    -1.946413677141    -0.468922461616    12.000000000000
           C          0.409234662426    -1.337502748377     0.462373863306    12.000000000000
           H          1.065161390452    -1.997237511928    -1.480354511620     1.007825032070
           H          2.370050860071    -1.368118084977    -0.492632130807     1.007825032070
           N          0.000198673490     0.000105207679     0.054557012586    14.003074004780
           H         -0.463212318102    -1.978558608360     0.452931377537     1.007825032070
           H          0.777244022398    -1.340977550074     1.492610794673     1.007825032070
           C         -1.362848149405     0.314817343185     0.462032506645    12.000000000000
           C          0.953960785453     1.023046784035     0.462375491647    12.000000000000
           C         -2.411572538667    -0.285350185178    -0.469078024928    12.000000000000
           H         -1.482183856784     1.390910374496     0.452396219718     1.007825032070
           H         -1.549718282649    -0.001914117835     1.492357587704     1.007825032070
           C          0.958387475391     2.231352286560    -0.468793576483    12.000000000000
           H          1.945632537216     0.588579072705     0.452897045919     1.007825032070
           H          0.772758138194     1.343140409628     1.492689696432     1.007825032070
           H         -2.262019903423     0.075481077350    -1.480591779261     1.007825032070
           H         -2.368904956607    -1.368959954031    -0.492689075496     1.007825032070
           H         -3.409932075316    -0.004237209533    -0.145770555972     1.007825032070
           H          1.196297107433     1.921429381826    -1.480242467396     1.007825032070
           H         -0.001462988425     2.736012809164    -0.492409946964     1.007825032070
           H          1.700989024747     2.955307372349    -0.145340819848     1.007825032070

  Running in c1 symmetry.

  Rotational constants: A =      0.07723  B =      0.07720  C =      0.04486 [cm^-1]
  Rotational constants: A =   2315.20661  B =   2314.40483  C =   1344.84435 [MHz]
  Nuclear repulsion =  337.502752845900659

  Charge       = 0
  Multiplicity = 1
  Electrons    = 58
  Nalpha       = 29
  Nbeta        = 29

  ==> Algorithm <==

  SCF Algorithm Type is DF.
  DIIS enabled.
  MOM disabled.
  Fractional occupation disabled.
  Guess Type is READ.
  Energy threshold   = 1.00e-08
  Density threshold  = 1.00e-08
  Integral threshold = 0.00e+00

  ==> Primary Basis <==

  Basis Set: 6-31G*
    Number of shells: 72
    Number of basis function: 135
    Number of Cartesian functions: 135
    Spherical Harmonics?: false
    Max angular momentum: 2

  ==> Pre-Iterations <==

   -------------------------------------------------------
    Irrep   Nso     Nmo     Nalpha   Nbeta   Ndocc  Nsocc
   -------------------------------------------------------
     A        135     135       0       0       0       0
   -------------------------------------------------------
    Total     135     135      29      29      29       0
   -------------------------------------------------------

 OEINTS: Overlap, kinetic, potential, dipole, and quadrupole integrals
         stored in file 35.

  ==> Integral Setup <==

  ==> DFJK: Density-Fitted J/K Matrices <==

    J tasked:                  Yes
    K tasked:                  Yes
    wK tasked:                  No
    OpenMP threads:              1
    Integrals threads:           1
    Memory (MB):              1430
    Algorithm:                Core
    Integral Cache:           NONE
    Schwarz Cutoff:          1E-12
    Fitting Condition:       1E-12

   => Auxiliary Basis Set <=

  Basis Set: 
    Number of shells: 303
    Number of basis function: 942
    Number of Cartesian functions: 942
    Spherical Harmonics?: false
    Max angular momentum: 3

  Minimum eigenvalue in the overlap matrix is 4.4241071763E-03.
  Using Symmetric Orthogonalization.
  SCF Guess: Reading in previously saved MOs, projecting if necessary.

  Using orbitals from previous SCF, no projection.
  Recomputing DOCC and SOCC from number of alpha and beta electrons from previous calculation.
              A 
    DOCC [    29 ]

  ==> Iterations <==

                           Total Energy        Delta E     RMS |[F,P]|

   @DF-RHF iter   0:  -290.37267405631349   -2.90373e+02   2.33864e-05 
   @DF-RHF iter   1:  -290.37233500248499    3.39054e-04   4.18216e-06 
   @DF-RHF iter   2:  -290.37233525621605   -2.53731e-07   1.37578e-06 DIIS
   @DF-RHF iter   3:  -290.37233528256729   -2.63512e-08   5.43797e-07 DIIS
   @DF-RHF iter   4:  -290.37233528673619   -4.16890e-09   1.17245e-07 DIIS
   @DF-RHF iter   5:  -290.37233528691445   -1.78261e-10   2.95723e-08 DIIS
   @DF-RHF iter   6:  -290.37233528692843   -1.39835e-11   1.01661e-08 DIIS
   @DF-RHF iter   7:  -290.37233528693184   -3.41061e-12   2.32569e-09 DIIS

  ==> Post-Iterations <==

    Orbital Energies (a.u.)
    -----------------------

    Doubly Occupied:                                                      

       1A    -15.536999     2A    -11.240218     3A    -11.240195  
       4A    -11.240176     5A    -11.205069     6A    -11.205058  
       7A    -11.205042     8A     -1.223715     9A     -1.023295  
      10A     -1.023284    11A     -0.955145    12A     -0.845931  
      13A     -0.845905    14A     -0.772367    15A     -0.645720  
      16A     -0.645691    17A     -0.619871    18A     -0.591208  
      19A     -0.591199    20A     -0.549991    21A     -0.531796  
      22A     -0.518265    23A     -0.518219    24A     -0.493565  
      25A     -0.493549    26A     -0.490590    27A     -0.461122  
      28A     -0.461093    29A     -0.340937  

    Virtual:                                                              

      30A      0.232232    31A      0.254533    32A      0.254553  
      33A      0.277391    34A      0.300954    35A      0.300988  
      36A      0.320956    37A      0.325889    38A      0.325914  
      39A      0.335436    40A      0.335454    41A      0.350073  
      42A      0.358612    43A      0.391094    44A      0.391158  
      45A      0.391401    46A      0.417587    47A      0.417594  
      48A      0.449312    49A      0.477543    50A      0.477577  
      51A      0.720968    52A      0.720990    53A      0.740029  
      54A      0.740070    55A      0.748425    56A      0.755047  
      57A      0.801726    58A      0.801743    59A      0.810937  
      60A      0.906975    61A      0.935283    62A      0.935361  
      63A      0.945636    64A      0.964990    65A      0.965000  
      66A      1.052170    67A      1.052232    68A      1.100566  
      69A      1.126981    70A      1.140706    71A      1.140733  
      72A      1.158375    73A      1.175746    74A      1.175777  
      75A      1.188083    76A      1.202545    77A      1.202553  
      78A      1.208928    79A      1.253102    80A      1.253120  
      81A      1.254815    82A      1.288554    83A      1.288591  
      84A      1.293927    85A      1.340801    86A      1.340827  
      87A      1.350558    88A      1.520779    89A      1.520976  
      90A      1.668851    91A      1.696306    92A      1.696467  
      93A      1.750652    94A      1.848484    95A      1.848604  
      96A      1.888527    97A      2.064954    98A      2.065034  
      99A      2.074128   100A      2.181107   101A      2.181119  
     102A      2.260210   103A      2.282756   104A      2.282823  
     105A      2.305940   106A      2.337757   107A      2.341304  
     108A      2.341338   109A      2.431703   110A      2.431815  
     111A      2.533538   112A      2.533722   113A      2.573163  
     114A      2.649467   115A      2.669683   116A      2.669721  
     117A      2.685639   118A      2.698920   119A      2.699011  
     120A      2.749049   121A      2.811895   122A      2.863256  
     123A      2.863281   124A      3.054230   125A      3.113572  
     126A      3.113707   127A      3.241530   128A      3.241667  
     129A      4.486240   130A      4.629446   131A      4.629482  
     132A      4.694441   133A      4.861316   134A      4.861424  
     135A      4.943649  

    Final Occupation by Irrep:
              A 
    DOCC [    29 ]

  Energy converged.

  @DF-RHF Final Energy:  -290.37233528693184

   => Energetics <=

    Nuclear Repulsion Energy =            337.5027528459006589
    One-Electron Energy =               -1060.7197418715293225
    Two-Electron Energy =                 432.8446537386972750
    DFT Exchange-Correlation Energy =       0.0000000000000000
    Empirical Dispersion Energy =           0.0000000000000000
    PCM Polarization Energy =               0.0000000000000000
    EFP Energy =                            0.0000000000000000
    Total Energy =                       -290.3723352869313885

    Alert: EFP and PCM quantities not currently incorporated into SCF psivars.

Properties will be evaluated at   0.000000,   0.000000,   0.000000 Bohr
  ==> Properties <==


Properties computed using the SCF density matrix

  Nuclear Dipole Moment: (a.u.)
     X:    -0.0013      Y:    -0.0008      Z:    -0.4874

  Electronic Dipole Moment: (a.u.)
     X:     0.0011      Y:     0.0007      Z:     0.7724

  Dipole Moment: (a.u.)
     X:    -0.0002      Y:    -0.0001      Z:     0.2850     Total:     0.2850

  Dipole Moment: (Debye)
     X:    -0.0006      Y:    -0.0002      Z:     0.7243     Total:     0.7243


  Saving occupied orbitals to File 180.

*** tstop() called on cx1-3-15-2.cx1.hpc.ic.ac.uk at Tue Jul  5 16:20:39 2016
Module time:
	user time   =      11.98 seconds =       0.20 minutes
	system time =       0.04 seconds =       0.00 minutes
	total time  =         12 seconds =       0.20 minutes
Total time:
	user time   =      46.31 seconds =       0.77 minutes
	system time =       0.23 seconds =       0.00 minutes
	total time  =         48 seconds =       0.80 minutes

*** tstart() called on cx1-3-15-2.cx1.hpc.ic.ac.uk
*** at Tue Jul  5 16:20:39 2016


         ------------------------------------------------------------
                                   SCF GRAD                          
                          Rob Parrish, Justin Turney,                
                       Andy Simmonett, and Alex Sokolov              
         ------------------------------------------------------------

  ==> Geometry <==

    Molecular point group: c1
    Full point group: C1

    Geometry (in Angstrom), charge = 0, multiplicity = 1:

       Center              X                  Y                   Z               Mass       
    ------------   -----------------  -----------------  -----------------  -----------------
           H          1.707924172058    -2.951721567042    -0.145603823083     1.007825032070
           C          1.452721586904    -1.946413677141    -0.468922461616    12.000000000000
           C          0.409234662426    -1.337502748377     0.462373863306    12.000000000000
           H          1.065161390452    -1.997237511928    -1.480354511620     1.007825032070
           H          2.370050860071    -1.368118084977    -0.492632130807     1.007825032070
           N          0.000198673490     0.000105207679     0.054557012586    14.003074004780
           H         -0.463212318102    -1.978558608360     0.452931377537     1.007825032070
           H          0.777244022398    -1.340977550074     1.492610794673     1.007825032070
           C         -1.362848149405     0.314817343185     0.462032506645    12.000000000000
           C          0.953960785453     1.023046784035     0.462375491647    12.000000000000
           C         -2.411572538667    -0.285350185178    -0.469078024928    12.000000000000
           H         -1.482183856784     1.390910374496     0.452396219718     1.007825032070
           H         -1.549718282649    -0.001914117835     1.492357587704     1.007825032070
           C          0.958387475391     2.231352286560    -0.468793576483    12.000000000000
           H          1.945632537216     0.588579072705     0.452897045919     1.007825032070
           H          0.772758138194     1.343140409628     1.492689696432     1.007825032070
           H         -2.262019903423     0.075481077350    -1.480591779261     1.007825032070
           H         -2.368904956607    -1.368959954031    -0.492689075496     1.007825032070
           H         -3.409932075316    -0.004237209533    -0.145770555972     1.007825032070
           H          1.196297107433     1.921429381826    -1.480242467396     1.007825032070
           H         -0.001462988425     2.736012809164    -0.492409946964     1.007825032070
           H          1.700989024747     2.955307372349    -0.145340819848     1.007825032070

  Nuclear repulsion =  337.502752845900659

  ==> Basis Set <==

  Basis Set: 6-31G*
    Number of shells: 72
    Number of basis function: 135
    Number of Cartesian functions: 135
    Spherical Harmonics?: false
    Max angular momentum: 2

  ==> DFJKGrad: Density-Fitted SCF Gradients <==

    Gradient:                    1
    J tasked:                  Yes
    K tasked:                  Yes
    wK tasked:                  No
    OpenMP threads:              1
    Integrals threads:           1
    Memory (MB):              1430
    Schwarz Cutoff:          0E+00
    Fitting Condition:       1E-12

   => Auxiliary Basis Set <=

  Basis Set: 
    Number of shells: 303
    Number of basis function: 942
    Number of Cartesian functions: 942
    Spherical Harmonics?: false
    Max angular momentum: 3


  -Total Gradient:
     Atom            X                  Y                   Z
    ------   -----------------  -----------------  -----------------
       1        0.000012317732    -0.000018339709    -0.000014806046
       2       -0.000040513859    -0.000000982374     0.000038226016
       3        0.000134473047     0.000014139684     0.000007632892
       4        0.000002967863    -0.000003630431    -0.000004297389
       5       -0.000018376057    -0.000018370421     0.000002930053
       6        0.000007394289     0.000065194082    -0.000070083641
       7        0.000002684193     0.000042513991    -0.000018149948
       8        0.000005460388    -0.000020618171     0.000016701059
       9       -0.000077194162     0.000030562088    -0.000033297103
      10        0.000044776165    -0.000046988208     0.000004391062
      11        0.000038979748     0.000031140597     0.000038693761
      12        0.000004527975     0.000024243937     0.000023954806
      13        0.000007457468    -0.000000150999     0.000005099650
      14       -0.000043823394    -0.000025609064    -0.000024911548
      15       -0.000005024471     0.000000636543     0.000027622953
      16       -0.000020088333    -0.000016455811     0.000010014738
      17        0.000001458729    -0.000019187733     0.000013349099
      18       -0.000023803407    -0.000017372432    -0.000026755688
      19       -0.000007972479    -0.000010195080    -0.000004910409
      20       -0.000009758952     0.000013765440     0.000024971770
      21       -0.000009993717     0.000014022509    -0.000019667251
      22       -0.000005948768    -0.000038318437     0.000003291165


*** tstop() called on cx1-3-15-2.cx1.hpc.ic.ac.uk at Tue Jul  5 16:20:59 2016
Module time:
	user time   =      19.64 seconds =       0.33 minutes
	system time =       0.07 seconds =       0.00 minutes
	total time  =         20 seconds =       0.33 minutes
Total time:
	user time   =      65.96 seconds =       1.10 minutes
	system time =       0.30 seconds =       0.01 minutes
	total time  =         68 seconds =       1.13 minutes
CURRENT ENERGY: -290.3723352869

			-----------------------------------------
			 OPTKING 2.0: for geometry optimizations 
			  - R.A. King,  Bethel University        
			-----------------------------------------

	Previous internal coordinate definitions found.
	---Fragment 1 Geometry and Gradient---
	 H           3.2275089409       -5.5779453822       -0.2751513495
	 C           2.7452459466       -3.6781887911       -0.8861350300
	 C           0.7733414361       -2.5275138964        0.8737599727
	 H           2.0128633153       -3.7742319199       -2.7974646065
	 H           4.4787470465       -2.5853684981       -0.9309398115
	 N           0.0003754385        0.0001988137        0.1030978124
	 H          -0.8753444226       -3.7389339077        0.8559162605
	 H           1.4687783408       -2.5340803200        2.8206256249
	 C          -2.5754097631        0.5949185605        0.8731149020
	 C           1.8027246260        1.9332782430        0.8737630498
	 C          -4.5572116477       -0.5392337020       -0.8864290021
	 H          -2.8009215679        2.6284396832        0.8549049588
	 H          -2.9285431373       -0.0036171585        2.8201471331
	 C           1.8110898577        4.2166447276       -0.8858914724
	 H           3.6767126506        1.1122532550        0.8558513832
	 H           1.4603012481        2.5381675322        2.8207747276
	 H          -4.2745981246        0.1426385644       -2.7979129774
	 H          -4.4765816028       -2.5869594000       -0.9310474214
	 H          -6.4438377541       -0.0080071656       -0.2754664290
	 H           2.2606739066        3.6309753153       -2.7972528736
	 H          -0.0027646475        5.1703149054       -0.9305199449
	 H           3.2144034118        5.5847215722       -0.2746543454
	             0.0000123177       -0.0000183397       -0.0000148060
	            -0.0000405139       -0.0000009824        0.0000382260
	             0.0001344730        0.0000141397        0.0000076329
	             0.0000029679       -0.0000036304       -0.0000042974
	            -0.0000183761       -0.0000183704        0.0000029301
	             0.0000073943        0.0000651941       -0.0000700836
	             0.0000026842        0.0000425140       -0.0000181499
	             0.0000054604       -0.0000206182        0.0000167011
	            -0.0000771942        0.0000305621       -0.0000332971
	             0.0000447762       -0.0000469882        0.0000043911
	             0.0000389797        0.0000311406        0.0000386938
	             0.0000045280        0.0000242439        0.0000239548
	             0.0000074575       -0.0000001510        0.0000050997
	            -0.0000438234       -0.0000256091       -0.0000249115
	            -0.0000050245        0.0000006365        0.0000276230
	            -0.0000200883       -0.0000164558        0.0000100147
	             0.0000014587       -0.0000191877        0.0000133491
	            -0.0000238034       -0.0000173724       -0.0000267557
	            -0.0000079725       -0.0000101951       -0.0000049104
	            -0.0000097590        0.0000137654        0.0000249718
	            -0.0000099937        0.0000140225       -0.0000196673
	            -0.0000059488       -0.0000383184        0.0000032912

	---Fragment 1 Intrafragment Coordinates---
	 - Coordinate -           - BOHR/RAD -       - ANG/DEG -
	 R(1,2)           =         2.053035	       1.086420
	 R(2,3)           =         2.882653	       1.525435
	 R(2,4)           =         2.049095	       1.084334
	 R(2,5)           =         2.049705	       1.084657
	 R(3,6)           =         2.753312	       1.456990
	 R(3,7)           =         2.045977	       1.082684
	 R(3,8)           =         2.067356	       1.093998
	 R(6,9)           =         2.753414	       1.457044
	 R(6,10)          =         2.753032	       1.456842
	 R(9,11)          =         2.882678	       1.525448
	 R(9,12)          =         2.046068	       1.082733
	 R(9,13)          =         2.067337	       1.093988
	 R(10,14)         =         2.882745	       1.525483
	 R(10,15)         =         2.046029	       1.082712
	 R(10,16)         =         2.067365	       1.094003
	 R(11,17)         =         2.049046	       1.084309
	 R(11,18)         =         2.049798	       1.084707
	 R(11,19)         =         2.053006	       1.086404
	 R(14,20)         =         2.049009	       1.084289
	 R(14,21)         =         2.049767	       1.084690
	 R(14,22)         =         2.052933	       1.086365
	 B(1,2,3)         =         1.926627	     110.387568
	 B(1,2,4)         =         1.894604	     108.552805
	 B(1,2,5)         =         1.876742	     107.529400
	 B(2,3,6)         =         1.968848	     112.806697
	 B(2,3,7)         =         1.885520	     108.032321
	 B(2,3,8)         =         1.921493	     110.093428
	 B(3,2,4)         =         1.921630	     110.101299
	 B(3,2,5)         =         1.959569	     112.275049
	 B(3,6,9)         =         1.963456	     112.497758
	 B(3,6,10)        =         1.963277	     112.487472
	 B(4,2,5)         =         1.882709	     107.871294
	 B(6,3,7)         =         1.891165	     108.355776
	 B(6,3,8)         =         1.940077	     111.158201
	 B(6,9,11)        =         1.968666	     112.796266
	 B(6,9,12)        =         1.891555	     108.378135
	 B(6,9,13)        =         1.939757	     111.139888
	 B(6,10,14)       =         1.968385	     112.780159
	 B(6,10,15)       =         1.891691	     108.385937
	 B(6,10,16)       =         1.939757	     111.139896
	 B(7,3,8)         =         1.851884	     106.105164
	 B(9,6,10)        =         1.963291	     112.488285
	 B(9,11,17)       =         1.921607	     110.099999
	 B(9,11,18)       =         1.959817	     112.289270
	 B(9,11,19)       =         1.926575	     110.384588
	 B(10,14,20)      =         1.921586	     110.098763
	 B(10,14,21)      =         1.959775	     112.286859
	 B(10,14,22)      =         1.926324	     110.370212
	 B(11,9,12)       =         1.885799	     108.048329
	 B(11,9,13)       =         1.921463	     110.091694
	 B(12,9,13)       =         1.851779	     106.099123
	 B(14,10,15)      =         1.885824	     108.049738
	 B(14,10,16)      =         1.921544	     110.096361
	 B(15,10,16)      =         1.851841	     106.102686
	 B(17,11,18)      =         1.882528	     107.860935
	 B(17,11,19)      =         1.894684	     108.557393
	 B(18,11,19)      =         1.876663	     107.524847
	 B(20,14,21)      =         1.882665	     107.868739
	 B(20,14,22)      =         1.894658	     108.555931
	 B(21,14,22)      =         1.876879	     107.537272
	 D(1,2,3,6)       =        -3.113439	    -178.386915
	 D(1,2,3,7)       =        -1.023469	     -58.640449
	 D(1,2,3,8)       =         0.991518	      56.809818
	 D(2,3,6,9)       =         2.644430	     151.514679
	 D(2,3,6,10)      =        -1.399828	     -80.204218
	 D(3,6,9,11)      =        -1.399001	     -80.156840
	 D(3,6,9,12)      =         2.796975	     160.254877
	 D(3,6,9,13)      =         0.768630	      44.039275
	 D(3,6,10,14)     =         2.645328	     151.566111
	 D(3,6,10,15)     =         0.558171	      31.980823
	 D(3,6,10,16)     =        -1.470331	     -84.243735
	 D(4,2,3,6)       =        -1.021958	     -58.553906
	 D(4,2,3,7)       =         1.068012	      61.192559
	 D(4,2,3,8)       =         3.082999	     176.642827
	 D(5,2,3,6)       =         1.075961	      61.648026
	 D(5,2,3,7)       =        -3.117254	    -178.605508
	 D(5,2,3,8)       =        -1.102267	     -63.155241
	 D(6,9,11,17)     =        -1.022591	     -58.590126
	 D(6,9,11,18)     =         1.075248	      61.607199
	 D(6,9,11,19)     =        -3.114123	    -178.426108
	 D(6,10,14,20)    =        -1.022598	     -58.590562
	 D(6,10,14,21)    =         1.075371	      61.614208
	 D(6,10,14,22)    =        -3.113926	    -178.414815
	 D(7,3,6,9)       =         0.557719	      31.954949
	 D(7,3,6,10)      =         2.796647	     160.236053
	 D(8,3,6,9)       =        -1.470700	     -84.264931
	 D(8,3,6,10)      =         0.768227	      44.016172
	 D(9,6,10,14)     =        -1.398843	     -80.147816
	 D(9,6,10,15)     =         2.797185	     160.266897
	 D(9,6,10,16)     =         0.768684	      44.042339
	 D(10,6,9,11)     =         2.645264	     151.562483
	 D(10,6,9,12)     =         0.558055	      31.974199
	 D(10,6,9,13)     =        -1.470290	     -84.241403
	 D(12,9,11,17)    =         1.067941	      61.188540
	 D(12,9,11,18)    =        -3.117405	    -178.614136
	 D(12,9,11,19)    =        -1.023591	     -58.647442
	 D(13,9,11,17)    =         3.082943	     176.639649
	 D(13,9,11,18)    =        -1.102403	     -63.163027
	 D(13,9,11,19)    =         0.991411	      56.803667
	 D(15,10,14,20)   =         1.067947	      61.188859
	 D(15,10,14,21)   =        -3.117269	    -178.606370
	 D(15,10,14,22)   =        -1.023381	     -58.635393
	 D(16,10,14,20)   =         3.083080	     176.647500
	 D(16,10,14,21)   =        -1.102136	     -63.147730
	 D(16,10,14,22)   =         0.991753	      56.823247

	Current energy   :      -290.3723352869

	Energy change for the previous step:
		Projected    :        -0.0000114191
		Actual       :        -0.0000019036
	Energy ratio indicates iffy step: Trust radius decreased to 1.250e-01.


	Performing BFGS update.
	Previous computed or guess Hessian on step 1.
	Steps to be used in Hessian update: 1
	Taking RFO optimization step.
	Going to follow RFO solution 1.
	Using RFO vector 1.
	Norm of target step-size    0.00714
	Projected energy change by RFO approximation:        -0.0000013706

	Back-transformation to cartesian coordinates...
	Successfully converged to displaced geometry.

	--- Internal Coordinate Step in ANG or DEG, aJ/ANG or AJ/DEG ---
	 ---------------------------------------------------------------------------
	   Coordinate                Previous        Force       Change         New 
	   ----------                --------       ------       ------       ------
	    1 R(1,2)          =      1.086420    -0.000127    -0.000033     1.086387
	    2 R(2,3)          =      1.525435     0.000221     0.000056     1.525490
	    3 R(2,4)          =      1.084334    -0.000026    -0.000007     1.084327
	    4 R(2,5)          =      1.084657     0.000209     0.000025     1.084682
	    5 R(3,6)          =      1.456990    -0.000334    -0.000065     1.456925
	    6 R(3,7)          =      1.082684     0.000224     0.000079     1.082764
	    7 R(3,8)          =      1.093998    -0.000145    -0.000067     1.093931
	    8 R(6,9)          =      1.457044    -0.000542    -0.000102     1.456942
	    9 R(6,10)         =      1.456842     0.000782     0.000093     1.456934
	   10 R(9,11)         =      1.525448     0.000101     0.000081     1.525529
	   11 R(9,12)         =      1.082733    -0.000193    -0.000017     1.082716
	   12 R(9,13)         =      1.093988    -0.000029    -0.000036     1.093952
	   13 R(10,14)        =      1.525483     0.000155     0.000048     1.525531
	   14 R(10,15)        =      1.082712     0.000042    -0.000051     1.082661
	   15 R(10,16)        =      1.094003    -0.000065    -0.000025     1.093977
	   16 R(11,17)        =      1.084309     0.000154     0.000014     1.084322
	   17 R(11,18)        =      1.084707    -0.000140    -0.000066     1.084640
	   18 R(11,19)        =      1.086404    -0.000027     0.000042     1.086446
	   19 R(14,20)        =      1.084289     0.000242    -0.000023     1.084266
	   20 R(14,21)        =      1.084690    -0.000130    -0.000000     1.084690
	   21 R(14,22)        =      1.086365     0.000236     0.000063     1.086428
	   22 B(1,2,3)        =    110.387568    -0.000002    -0.008904   110.378664
	   23 B(1,2,4)        =    108.552805     0.000001     0.007571   108.560375
	   24 B(1,2,5)        =    107.529400     0.000001     0.005247   107.534646
	   25 B(2,3,6)        =    112.806697    -0.000006    -0.016104   112.790593
	   26 B(2,3,7)        =    108.032321     0.000001     0.011766   108.044087
	   27 B(2,3,8)        =    110.093428     0.000002    -0.010426   110.083002
	   28 B(3,2,4)        =    110.101299    -0.000000    -0.004080   110.097219
	   29 B(3,2,5)        =    112.275049     0.000000    -0.001430   112.273620
	   30 B(3,6,9)        =    112.497758    -0.000003     0.005039   112.502798
	   31 B(3,6,10)       =    112.487472     0.000001     0.011452   112.498925
	   32 B(4,2,5)        =    107.871294     0.000000     0.002382   107.873676
	   33 B(6,3,7)        =    108.355776     0.000004     0.030228   108.386005
	   34 B(6,3,8)        =    111.158201    -0.000000    -0.014997   111.143204
	   35 B(6,9,11)       =    112.796266    -0.000001    -0.004336   112.791930
	   36 B(6,9,12)       =    108.378135     0.000000    -0.000181   108.377954
	   37 B(6,9,13)       =    111.139888     0.000001     0.009417   111.149305
	   38 B(6,10,14)      =    112.780159     0.000007     0.017430   112.797588
	   39 B(6,10,15)      =    108.385937    -0.000002    -0.011397   108.374540
	   40 B(6,10,16)      =    111.139896    -0.000000     0.011790   111.151686
	   41 B(7,3,8)        =    106.105164    -0.000001     0.002378   106.107543
	   42 B(9,6,10)       =    112.488285     0.000002     0.020611   112.508895
	   43 B(9,11,17)      =    110.099999     0.000000     0.000165   110.100164
	   44 B(9,11,18)      =    112.289270    -0.000004    -0.011086   112.278184
	   45 B(9,11,19)      =    110.384588    -0.000001    -0.007284   110.377304
	   46 B(10,14,20)     =    110.098763    -0.000001     0.003332   110.102095
	   47 B(10,14,21)     =    112.286859    -0.000003    -0.007103   112.279757
	   48 B(10,14,22)     =    110.370212     0.000003     0.009733   110.379945
	   49 B(11,9,12)      =    108.048329    -0.000001    -0.009597   108.038733
	   50 B(11,9,13)      =    110.091694    -0.000000    -0.003037   110.088658
	   51 B(12,9,13)      =    106.099123     0.000001     0.007974   106.107097
	   52 B(14,10,15)     =    108.049738    -0.000003    -0.017417   108.032320
	   53 B(14,10,16)     =    110.096361    -0.000003    -0.007949   110.088412
	   54 B(15,10,16)     =    106.102686     0.000001     0.005828   106.108515
	   55 B(17,11,18)     =    107.860935     0.000002     0.012131   107.873066
	   56 B(17,11,19)     =    108.557393     0.000000    -0.004934   108.552459
	   57 B(18,11,19)     =    107.524847     0.000002     0.011721   107.536569
	   58 B(20,14,21)     =    107.868739     0.000001     0.000870   107.869609
	   59 B(20,14,22)     =    108.555931    -0.000001    -0.002292   108.553639
	   60 B(21,14,22)     =    107.537272    -0.000001    -0.004819   107.532453
	   61 D(1,2,3,6)      =   -178.386915    -0.000001    -0.091303  -178.478218
	   62 D(1,2,3,7)      =    -58.640449     0.000000    -0.055625   -58.696074
	   63 D(1,2,3,8)      =     56.809818     0.000000    -0.051777    56.758041
	   64 D(2,3,6,9)      =    151.514679     0.000000     0.123496   151.638174
	   65 D(2,3,6,10)     =    -80.204218     0.000001     0.166021   -80.038197
	   66 D(3,6,9,11)     =    -80.156840     0.000000     0.049019   -80.107820
	   67 D(3,6,9,12)     =    160.254877     0.000000     0.063824   160.318701
	   68 D(3,6,9,13)     =     44.039275     0.000000     0.049002    44.088277
	   69 D(3,6,10,14)    =    151.566111    -0.000000    -0.009567   151.556544
	   70 D(3,6,10,15)    =     31.980823     0.000000     0.009038    31.989861
	   71 D(3,6,10,16)    =    -84.243735     0.000000     0.002151   -84.241584
	   72 D(4,2,3,6)      =    -58.553906    -0.000000    -0.090162   -58.644068
	   73 D(4,2,3,7)      =     61.192559     0.000000    -0.054484    61.138075
	   74 D(4,2,3,8)      =    176.642827     0.000000    -0.050636   176.592191
	   75 D(5,2,3,6)      =     61.648026    -0.000000    -0.090892    61.557134
	   76 D(5,2,3,7)      =   -178.605508     0.000000    -0.055214  -178.660723
	   77 D(5,2,3,8)      =    -63.155241     0.000000    -0.051367   -63.206607
	   78 D(6,9,11,17)    =    -58.590126     0.000000    -0.020221   -58.610347
	   79 D(6,9,11,18)    =     61.607199     0.000000    -0.012072    61.595127
	   80 D(6,9,11,19)    =   -178.426108     0.000000    -0.009578  -178.435685
	   81 D(6,10,14,20)   =    -58.590562     0.000000    -0.011194   -58.601757
	   82 D(6,10,14,21)   =     61.614208     0.000000    -0.012503    61.601705
	   83 D(6,10,14,22)   =   -178.414815     0.000000    -0.016653  -178.431468
	   84 D(7,3,6,9)      =     31.954949    -0.000000     0.098477    32.053426
	   85 D(7,3,6,10)     =    160.236053     0.000000     0.141002   160.377054
	   86 D(8,3,6,9)      =    -84.264931    -0.000000     0.086027   -84.178904
	   87 D(8,3,6,10)     =     44.016172     0.000000     0.128552    44.144724
	   88 D(9,6,10,14)    =    -80.147816    -0.000000     0.024792   -80.123024
	   89 D(9,6,10,15)    =    160.266897     0.000000     0.043396   160.310293
	   90 D(9,6,10,16)    =     44.042339     0.000000     0.036509    44.078848
	   91 D(10,6,9,11)    =    151.562483    -0.000000     0.011295   151.573778
	   92 D(10,6,9,12)    =     31.974199     0.000000     0.026100    32.000299
	   93 D(10,6,9,13)    =    -84.241403    -0.000000     0.011278   -84.230124
	   94 D(12,9,11,17)   =     61.188540    -0.000000    -0.029552    61.158988
	   95 D(12,9,11,18)   =   -178.614136     0.000000    -0.021402  -178.635538
	   96 D(12,9,11,19)   =    -58.647442    -0.000000    -0.018908   -58.666350
	   97 D(13,9,11,17)   =    176.639649    -0.000000    -0.027050   176.612598
	   98 D(13,9,11,18)   =    -63.163027     0.000000    -0.018901   -63.181928
	   99 D(13,9,11,19)   =     56.803667    -0.000000    -0.016407    56.787260
	  100 D(15,10,14,20)  =     61.188859     0.000000    -0.026354    61.162505
	  101 D(15,10,14,21)  =   -178.606370     0.000000    -0.027663  -178.634034
	  102 D(15,10,14,22)  =    -58.635393    -0.000000    -0.031813   -58.667207
	  103 D(16,10,14,20)  =    176.647500    -0.000000    -0.033417   176.614083
	  104 D(16,10,14,21)  =    -63.147730    -0.000000    -0.034726   -63.182456
	  105 D(16,10,14,22)  =     56.823247    -0.000000    -0.038876    56.784371
	 ---------------------------------------------------------------------------

  ==> Convergence Check <==

  Measures of convergence in internal coordinates in au.
  Criteria marked as inactive (o), active & met (*), and active & unmet ( ).
  ---------------------------------------------------------------------------------------------
   Step     Total Energy     Delta E     MAX Force     RMS Force      MAX Disp      RMS Disp   
  ---------------------------------------------------------------------------------------------
    Convergence Criteria    1.00e-06 *    3.00e-04 *             o    1.20e-03 *             o
  ---------------------------------------------------------------------------------------------
      2    -290.37233529   -1.90e-06      9.49e-05 *    2.45e-05 o    2.90e-03      6.97e-04 o  ~
  ---------------------------------------------------------------------------------------------

	Writing optimization data to binary file.
	Structure for next step:
	Cartesian Geometry (in Angstrom)
	    H     1.7096816690  -2.9503500567  -0.1448535585
	    C     1.4536065117  -1.9453781185  -0.4684174840
	    C     0.4081652966  -1.3380255451   0.4617953953
	    H     1.0672428675  -1.9965041793  -1.4802841387
	    H     2.3701882987  -1.3658043887  -0.4909323550
	    N    -0.0003799828  -0.0001400276   0.0546289650
	    H    -0.4639389061  -1.9796534497   0.4506009022
	    H     0.7747481798  -1.3421024342   1.4924680470
	    C    -1.3631777809   0.3149889374   0.4622513315
	    C     0.9541722551   1.0224180101   0.4618915837
	    C    -2.4122007574  -0.2853884568  -0.4685207029
	    H    -1.4823637629   1.3910757538   0.4519805942
	    H    -1.5500542226  -0.0012429651   1.4926908693
	    C     0.9588715980   2.2309934653  -0.4690043808
	    H     1.9455474500   0.5874250775   0.4513699631
	    H     0.7740911179   1.3425430768   1.4923659313
	    H    -2.2629616324   0.0753150299  -1.4801409372
	    H    -2.3694233618  -1.3689359349  -0.4917501892
	    H    -3.4104554138  -0.0040433790  -0.1449513282
	    H     1.1962474069   1.9212712470  -1.4806157812
	    H    -0.0007880220   2.7360420187  -0.4920750252
	    H     1.7018865580   2.9546872232  -0.1457053160
			--------------------------
			 OPTKING Finished Execution 
			--------------------------

    Structure for next step:
    Molecular point group: c1
    Full point group: C1

    Geometry (in Angstrom), charge = 0, multiplicity = 1:

    H            1.709804460941    -2.950281192100    -0.144863657454
    C            1.453729323195    -1.945309330619    -0.468427558203
    C            0.408288187945    -1.337956803587     0.461785250068
    H            1.067365708507    -1.996435387535    -1.480294135657
    H            2.370311040120    -1.365735645083    -0.490942427471
    N           -0.000257060336    -0.000071388269     0.054618850809
    H           -0.463815948160    -1.979584659189     0.450590757814
    H            0.774871043112    -1.342033692377     1.492457823071
    C           -1.363054754335     0.315057552696     0.462241186169
    C            0.954295104681     1.022486571301     0.461881438465
    C           -2.412077650705    -0.285319795705    -0.468530777140
    H           -1.482240727194     1.391144286884     0.451970449692
    H           -1.549931181810    -0.001174325693     1.492680645345
    C            0.958994447219     2.231061934245    -0.469014454928
    H            1.945670223919     0.587493671975     0.451359818644
[...]
	 B(6,10,16)       =         1.939963	     111.151686
	 B(7,3,8)         =         1.851926	     106.107543
	 B(9,6,10)        =         1.963651	     112.508895
	 B(9,11,17)       =         1.921610	     110.100164
	 B(9,11,18)       =         1.959624	     112.278184
	 B(9,11,19)       =         1.926447	     110.377304
	 B(10,14,20)      =         1.921644	     110.102095
	 B(10,14,21)      =         1.959651	     112.279757
	 B(10,14,22)      =         1.926493	     110.379945
	 B(11,9,12)       =         1.885632	     108.038733
	 B(11,9,13)       =         1.921410	     110.088658
	 B(12,9,13)       =         1.851918	     106.107097
	 B(14,10,15)      =         1.885520	     108.032320
	 B(14,10,16)      =         1.921405	     110.088412
	 B(15,10,16)      =         1.851943	     106.108515
	 B(17,11,18)      =         1.882740	     107.873066
	 B(17,11,19)      =         1.894598	     108.552459
	 B(18,11,19)      =         1.876867	     107.536569
	 B(20,14,21)      =         1.882680	     107.869609
	 B(20,14,22)      =         1.894618	     108.553639
	 B(21,14,22)      =         1.876795	     107.532453
	 D(1,2,3,6)       =        -3.115033	    -178.478218
	 D(1,2,3,7)       =        -1.024440	     -58.696074
	 D(1,2,3,8)       =         0.990615	      56.758041
	 D(2,3,6,9)       =         2.646585	     151.638174
	 D(2,3,6,10)      =        -1.396930	     -80.038197
	 D(3,6,9,11)      =        -1.398145	     -80.107820
	 D(3,6,9,12)      =         2.798089	     160.318701
	 D(3,6,9,13)      =         0.769486	      44.088277
	 D(3,6,10,14)     =         2.645161	     151.556544
	 D(3,6,10,15)     =         0.558328	      31.989861
	 D(3,6,10,16)     =        -1.470293	     -84.241584
	 D(4,2,3,6)       =        -1.023532	     -58.644068
	 D(4,2,3,7)       =         1.067061	      61.138075
	 D(4,2,3,8)       =         3.082115	     176.592191
	 D(5,2,3,6)       =         1.074375	      61.557134
	 D(5,2,3,7)       =        -3.118218	    -178.660723
	 D(5,2,3,8)       =        -1.103163	     -63.206607
	 D(6,9,11,17)     =        -1.022944	     -58.610347
	 D(6,9,11,18)     =         1.075038	      61.595127
	 D(6,9,11,19)     =        -3.114290	    -178.435685
	 D(6,10,14,20)    =        -1.022794	     -58.601757
	 D(6,10,14,21)    =         1.075153	      61.601705
	 D(6,10,14,22)    =        -3.114217	    -178.431468
	 D(7,3,6,9)       =         0.559438	      32.053426
	 D(7,3,6,10)      =         2.799108	     160.377054
	 D(8,3,6,9)       =        -1.469199	     -84.178904
	 D(8,3,6,10)      =         0.770471	      44.144724
	 D(9,6,10,14)     =        -1.398411	     -80.123024
	 D(9,6,10,15)     =         2.797942	     160.310293
	 D(9,6,10,16)     =         0.769321	      44.078848
	 D(10,6,9,11)     =         2.645461	     151.573778
	 D(10,6,9,12)     =         0.558511	      32.000299
	 D(10,6,9,13)     =        -1.470093	     -84.230124
	 D(12,9,11,17)    =         1.067426	      61.158988
	 D(12,9,11,18)    =        -3.117778	    -178.635538
	 D(12,9,11,19)    =        -1.023921	     -58.666350
	 D(13,9,11,17)    =         3.082471	     176.612598
	 D(13,9,11,18)    =        -1.102733	     -63.181928
	 D(13,9,11,19)    =         0.991125	      56.787260
	 D(15,10,14,20)   =         1.067487	      61.162505
	 D(15,10,14,21)   =        -3.117752	    -178.634034
	 D(15,10,14,22)   =        -1.023936	     -58.667207
	 D(16,10,14,20)   =         3.082497	     176.614083
	 D(16,10,14,21)   =        -1.102742	     -63.182456
	 D(16,10,14,22)   =         0.991074	      56.784371

	Current energy   :      -290.3723353432

	Energy change for the previous step:
		Projected    :        -0.0000013706
		Actual       :        -0.0000000562
	Energy ratio indicates iffy step: Trust radius decreased to 3.125e-02.


	Performing BFGS update.
	Previous computed or guess Hessian on step 1.
	Steps to be used in Hessian update: 2 1
	Taking RFO optimization step.
	Going to follow RFO solution 1.
	Using RFO vector 1.
	Norm of target step-size    0.00458
	Projected energy change by RFO approximation:        -0.0000002647

	Back-transformation to cartesian coordinates...
	Successfully converged to displaced geometry.

	--- Internal Coordinate Step in ANG or DEG, aJ/ANG or AJ/DEG ---
	 ---------------------------------------------------------------------------
	   Coordinate                Previous        Force       Change         New 
	   ----------                --------       ------       ------       ------
	    1 R(1,2)          =      1.086387     0.000041     0.000004     1.086391
	    2 R(2,3)          =      1.525490     0.000234     0.000028     1.525518
	    3 R(2,4)          =      1.084327     0.000031     0.000003     1.084330
	    4 R(2,5)          =      1.084682    -0.000160    -0.000009     1.084673
	    5 R(3,6)          =      1.456925     0.000028    -0.000001     1.456925
	    6 R(3,7)          =      1.082764    -0.000396    -0.000042     1.082722
	    7 R(3,8)          =      1.093931     0.000393     0.000044     1.093975
	    8 R(6,9)          =      1.456942    -0.000195    -0.000023     1.456919
	    9 R(6,10)         =      1.456934    -0.000105     0.000011     1.456946
	   10 R(9,11)         =      1.525529    -0.000050    -0.000017     1.525512
	   11 R(9,12)         =      1.082716    -0.000061    -0.000012     1.082703
	   12 R(9,13)         =      1.093952     0.000206     0.000026     1.093978
	   13 R(10,14)        =      1.525531    -0.000101    -0.000011     1.525519
	   14 R(10,15)        =      1.082661     0.000123     0.000025     1.082686
	   15 R(10,16)        =      1.093977     0.000052     0.000007     1.093984
	   16 R(11,17)        =      1.084322     0.000052     0.000010     1.084333
	   17 R(11,18)        =      1.084640     0.000137     0.000020     1.084660
	   18 R(11,19)        =      1.086446    -0.000269    -0.000036     1.086410
	   19 R(14,20)        =      1.084266     0.000387     0.000054     1.084320
	   20 R(14,21)        =      1.084690    -0.000088    -0.000015     1.084675
	   21 R(14,22)        =      1.086428    -0.000169    -0.000017     1.086412
	   22 B(1,2,3)        =    110.378664    -0.000000    -0.002467   110.376197
	   23 B(1,2,4)        =    108.560375    -0.000001    -0.002226   108.558149
	   24 B(1,2,5)        =    107.534646    -0.000001    -0.002946   107.531700
	   25 B(2,3,6)        =    112.790593     0.000005     0.006126   112.796719
	   26 B(2,3,7)        =    108.044087    -0.000002    -0.008713   108.035373
	   27 B(2,3,8)        =    110.083002    -0.000000     0.007186   110.090188
	   28 B(3,2,4)        =    110.097219     0.000001     0.003471   110.100690
	   29 B(3,2,5)        =    112.273620     0.000002     0.004530   112.278150
	   30 B(3,6,9)        =    112.502798    -0.000000    -0.006377   112.496420
	   31 B(3,6,10)       =    112.498925     0.000003     0.004147   112.503072
	   32 B(4,2,5)        =    107.873676    -0.000001    -0.000668   107.873007
	   33 B(6,3,7)        =    108.386005    -0.000002    -0.007072   108.378933
	   34 B(6,3,8)        =    111.143204    -0.000001     0.003793   111.146998
	   35 B(6,9,11)       =    112.791930     0.000002     0.004500   112.796430
	   36 B(6,9,12)       =    108.377954    -0.000001    -0.003107   108.374847
	   37 B(6,9,13)       =    111.149305    -0.000001     0.000576   111.149881
	   38 B(6,10,14)      =    112.797588    -0.000001     0.002688   112.800277
	   39 B(6,10,15)      =    108.374540     0.000001     0.003385   108.377925
	   40 B(6,10,16)      =    111.151686    -0.000000    -0.001354   111.150333
	   41 B(7,3,8)        =    106.107543     0.000001    -0.002570   106.104973
	   42 B(9,6,10)       =    112.508895    -0.000003    -0.009845   112.499050
	   43 B(9,11,17)      =    110.100164    -0.000000     0.001017   110.101181
	   44 B(9,11,18)      =    112.278184     0.000000    -0.002751   112.275433
	   45 B(9,11,19)      =    110.377304     0.000000     0.000231   110.377534
	   46 B(10,14,20)     =    110.102095    -0.000001    -0.001705   110.100391
	   47 B(10,14,21)     =    112.279757    -0.000000    -0.004295   112.275462
	   48 B(10,14,22)     =    110.379945    -0.000001     0.001012   110.380957
	   49 B(11,9,12)      =    108.038733    -0.000001    -0.004058   108.034675
	   50 B(11,9,13)      =    110.088658    -0.000000     0.002143   110.090801
	   51 B(12,9,13)      =    106.107097     0.000000    -0.000639   106.106458
	   52 B(14,10,15)     =    108.032320     0.000000    -0.000094   108.032227
	   53 B(14,10,16)     =    110.088412     0.000000    -0.001304   110.087108
	   54 B(15,10,16)     =    106.108515    -0.000000    -0.003586   106.104929
	   55 B(17,11,18)     =    107.873066     0.000000     0.001277   107.874343
	   56 B(17,11,19)     =    108.552459     0.000000     0.003672   108.556131
	   57 B(18,11,19)     =    107.536569    -0.000001    -0.003293   107.533276
	   58 B(20,14,21)     =    107.869609     0.000001     0.003023   107.872632
	   59 B(20,14,22)     =    108.553639     0.000001     0.003609   108.557249
	   60 B(21,14,22)     =    107.532453     0.000000    -0.001333   107.531121
	   61 D(1,2,3,6)      =   -178.478218     0.000000     0.052435  -178.425782
	   62 D(1,2,3,7)      =    -58.696074    -0.000000     0.041544   -58.654530
	   63 D(1,2,3,8)      =     56.758041    -0.000000     0.037446    56.795487
	   64 D(2,3,6,9)      =    151.638174    -0.000000    -0.087440   151.550735
	   65 D(2,3,6,10)     =    -80.038197    -0.000001    -0.102928   -80.141125
	   66 D(3,6,9,11)     =    -80.107820    -0.000000    -0.032738   -80.140558
	   67 D(3,6,9,12)     =    160.318701    -0.000000    -0.028372   160.290330
	   68 D(3,6,9,13)     =     44.088277     0.000000    -0.026073    44.062205
	   69 D(3,6,10,14)    =    151.556544     0.000000    -0.000042   151.556502
	   70 D(3,6,10,15)    =     31.989861     0.000000    -0.003867    31.985994
	   71 D(3,6,10,16)    =    -84.241584     0.000000    -0.000782   -84.242366
	   72 D(4,2,3,6)      =    -58.644068     0.000000     0.050320   -58.593748
	   73 D(4,2,3,7)      =     61.138075    -0.000000     0.039429    61.177505
	   74 D(4,2,3,8)      =    176.592191    -0.000000     0.035331   176.627521
	   75 D(5,2,3,6)      =     61.557134     0.000000     0.054857    61.611990
	   76 D(5,2,3,7)      =   -178.660723     0.000000     0.043966  -178.616757
	   77 D(5,2,3,8)      =    -63.206607    -0.000000     0.039867   -63.166741
	   78 D(6,9,11,17)    =    -58.610347     0.000000     0.015372   -58.594975
	   79 D(6,9,11,18)    =     61.595127     0.000000     0.015867    61.610994
	   80 D(6,9,11,19)    =   -178.435685    -0.000000     0.010018  -178.425667
	   81 D(6,10,14,20)   =    -58.601757    -0.000000    -0.000489   -58.602246
	   82 D(6,10,14,21)   =     61.601705    -0.000000    -0.000673    61.601032
	   83 D(6,10,14,22)   =   -178.431468    -0.000000    -0.004525  -178.435993
	   84 D(7,3,6,9)      =     32.053426     0.000000    -0.075602    31.977825
	   85 D(7,3,6,10)     =    160.377054    -0.000000    -0.091090   160.285965
	   86 D(8,3,6,9)      =    -84.178904     0.000000    -0.070413   -84.249317
	   87 D(8,3,6,10)     =     44.144724    -0.000000    -0.085901    44.058823
	   88 D(9,6,10,14)    =    -80.123024    -0.000000    -0.013713   -80.136737
	   89 D(9,6,10,15)    =    160.310293    -0.000000    -0.017537   160.292755
	   90 D(9,6,10,16)    =     44.078848    -0.000000    -0.014453    44.064395
	   91 D(10,6,9,11)    =    151.573778    -0.000000    -0.024585   151.549193
	   92 D(10,6,9,12)    =     32.000299    -0.000000    -0.020219    31.980081
	   93 D(10,6,9,13)    =    -84.230124    -0.000000    -0.017920   -84.248044
	   94 D(12,9,11,17)   =     61.158988     0.000000     0.011546    61.170534
	   95 D(12,9,11,18)   =   -178.635538     0.000000     0.012041  -178.623497
	   96 D(12,9,11,19)   =    -58.666350    -0.000000     0.006193   -58.660158
	   97 D(13,9,11,17)   =    176.612598    -0.000000     0.009658   176.622256
	   98 D(13,9,11,18)   =    -63.181928    -0.000000     0.010153   -63.171774
	   99 D(13,9,11,19)   =     56.787260    -0.000000     0.004305    56.791565
	  100 D(15,10,14,20)  =     61.162505     0.000000     0.005324    61.167829
	  101 D(15,10,14,21)  =   -178.634034     0.000000     0.005140  -178.628893
	  102 D(15,10,14,22)  =    -58.667207     0.000000     0.001288   -58.665919
	  103 D(16,10,14,20)  =    176.614083     0.000000     0.000302   176.614385
	  104 D(16,10,14,21)  =    -63.182456     0.000000     0.000119   -63.182337
	  105 D(16,10,14,22)  =     56.784371    -0.000000    -0.003733    56.780637
	 ---------------------------------------------------------------------------

  ==> Convergence Check <==

  Measures of convergence in internal coordinates in au.
  Criteria marked as inactive (o), active & met (*), and active & unmet ( ).
  ---------------------------------------------------------------------------------------------
   Step     Total Energy     Delta E     MAX Force     RMS Force      MAX Disp      RMS Disp   
  ---------------------------------------------------------------------------------------------
    Convergence Criteria    1.00e-06 *    3.00e-04 *             o    1.20e-03 *             o
  ---------------------------------------------------------------------------------------------
      3    -290.37233534   -5.62e-08 *    6.05e-05 *    1.71e-05 o    1.80e-03      4.47e-04 o  ~
  ---------------------------------------------------------------------------------------------


  **** Optimization is complete! (in 3 steps) ****

  ==> Optimization Summary <==

  Measures of convergence in internal coordinates in au.
  --------------------------------------------------------------------------------------------------------------- ~
   Step         Total Energy             Delta E       MAX Force       RMS Force        MAX Disp        RMS Disp  ~
  --------------------------------------------------------------------------------------------------------------- ~
      1    -290.372333383341   -290.372333383341      0.00037208      0.00009723      0.00214721      0.00078468  ~
      2    -290.372335286932     -0.000001903591      0.00009492      0.00002452      0.00289761      0.00069709  ~
      3    -290.372335343164     -0.000000056233      0.00006050      0.00001706      0.00179643      0.00044713  ~
  --------------------------------------------------------------------------------------------------------------- ~

	Writing optimization data to binary file.
	Final energy is   -290.3723353431644
	Final (previous) structure:
	Cartesian Geometry (in Angstrom)
	    H     1.7098045915  -2.9502814174  -0.1448636685
	    C     1.4537294342  -1.9453094792  -0.4684275940
	    C     0.4082882191  -1.3379569058   0.4617852853
	    H     1.0673657900  -1.9964355400  -1.4802942487
	    H     2.3703112211  -1.3657357494  -0.4909424650
	    N    -0.0002570604  -0.0000713883   0.0546188550
	    H    -0.4638159836  -1.9795848104   0.4505907922
	    H     0.7748711023  -1.3420337949   1.4924579370
	    C    -1.3630548584   0.3150575768   0.4622412215
	    C     0.9542951776   1.0224866494   0.4618814737
	    C    -2.4120778349  -0.2853198175  -0.4685308129
	    H    -1.4822408404   1.3911443931   0.4519704842
	    H    -1.5499313002  -0.0011743258   1.4926807593
	    C     0.9589945205   2.2310621046  -0.4690144907
	    H     1.9456703725   0.5874937168   0.4513598531
	    H     0.7742140404   1.3426117161   1.4923558214
	    H    -2.2628387100   0.0753836692  -1.4801510472
	    H    -2.3693004393  -1.3688672956  -0.4917602992
	    H    -3.4103324913  -0.0039747397  -0.1449614382
	    H     1.1963703294   1.9213398863  -1.4806258912
	    H    -0.0006650995   2.7361106580  -0.4920851352
	    H     1.7020094805   2.9547558625  -0.1457154260
	Saving final (previous) structure.
			--------------------------
			 OPTKING Finished Execution 
			--------------------------

    Final optimized geometry and variables:
    Molecular point group: c1
    Full point group: C1

    Geometry (in Angstrom), charge = 0, multiplicity = 1:

    H            1.709804460941    -2.950281192100    -0.144863657454
    C            1.453729323195    -1.945309330619    -0.468427558203
    C            0.408288187945    -1.337956803587     0.461785250068
    H            1.067365708507    -1.996435387535    -1.480294135657
    H            2.370311040120    -1.365735645083    -0.490942427471
    N           -0.000257060336    -0.000071388269     0.054618850809
    H           -0.463815948160    -1.979584659189     0.450590757814
    H            0.774871043112    -1.342033692377     1.492457823071
    C           -1.363054754335     0.315057552696     0.462241186169
    C            0.954295104681     1.022486571301     0.461881438465
    C           -2.412077650705    -0.285319795705    -0.468530777140
    H           -1.482240727194     1.391144286884     0.451970449692
    H           -1.549931181810    -0.001174325693     1.492680645345
    C            0.958994447219     2.231061934245    -0.469014454928
    H            1.945670223919     0.587493671975     0.451359818644
    H            0.774213981298     1.342611613616     1.492355707391
    H           -2.262838537168     0.075383663438    -1.480150934185
    H           -2.369300258377    -1.368867191024    -0.491760261616
    H           -3.410332230882    -0.003974739376    -0.144961427154
    H            1.196370238034     1.921339739600    -1.480625778124
    H           -0.000665099430     2.736110449031    -0.492085097578
    H            1.702009350547     2.954755636867    -0.145715414882

	Cleaning optimization helper files.


Properties will be evaluated at   0.000000,   0.000000,   0.000000 Bohr

Properties computed using the  density matrix

  Nuclear Dipole Moment: (a.u.)
     X:     0.0014      Y:     0.0007      Z:    -0.4876

  Electronic Dipole Moment: (a.u.)
     X:    -0.0012      Y:    -0.0008      Z:     0.7721

  Dipole Moment: (a.u.)
     X:     0.0002      Y:    -0.0001      Z:     0.2845     Total:     0.2845

  Dipole Moment: (Debye)
     X:     0.0004      Y:    -0.0003      Z:     0.7231     Total:     0.7231

  Quadrupole Moment: (Debye Ang)
    XX:   -46.7303     YY:   -46.7298     ZZ:   -48.7986
    XY:    -0.0002     XZ:    -0.0005     YZ:     0.0003

  Traceless Quadrupole Moment: (Debye Ang)
    XX:     0.6893     YY:     0.6898     ZZ:    -1.3790
    XY:    -0.0002     XZ:    -0.0005     YZ:     0.0003

  Mulliken Charges: (a.u.)
   Center  Symbol    Alpha    Beta     Spin     Total
       1     H     0.42359  0.42359  0.00000  0.15282
       2     C     3.23522  3.23522  0.00000 -0.47045
       3     C     3.05915  3.05915  0.00000 -0.11830
       4     H     0.41516  0.41516  0.00000  0.16967
       5     H     0.42134  0.42134  0.00000  0.15731
       6     N     3.78384  3.78384  0.00000 -0.56768
       7     H     0.41869  0.41869  0.00000  0.16263
       8     H     0.43224  0.43224  0.00000  0.13553
       9     C     3.05914  3.05914  0.00000 -0.11828
      10     C     3.05915  3.05915  0.00000 -0.11830
      11     C     3.23521  3.23521  0.00000 -0.47042
      12     H     0.41869  0.41869  0.00000  0.16262
      13     H     0.43222  0.43222  0.00000  0.13555
      14     C     3.23521  3.23521  0.00000 -0.47042
      15     H     0.41869  0.41869  0.00000  0.16263
      16     H     0.43222  0.43222  0.00000  0.13555
      17     H     0.41516  0.41516  0.00000  0.16967
      18     H     0.42134  0.42134  0.00000  0.15731
      19     H     0.42361  0.42361  0.00000  0.15278
      20     H     0.41516  0.41516  0.00000  0.16968
      21     H     0.42136  0.42136  0.00000  0.15729
      22     H     0.42361  0.42361  0.00000  0.15279

   Total alpha = 29.00000, Total beta = 29.00000, Total charge = -0.00000


*** PSI4 exiting successfully. Buy a developer a beer!
