    -----------------------------------------------------------------------
          Psi4: An Open-Source Ab Initio Electronic Structure Package
                              Psi4 (no tag) Driver

                          Git: Rev {detached?}  

    J. M. Turney, A. C. Simmonett, R. M. Parrish, E. G. Hohenstein,
    F. A. Evangelista, J. T. Fermann, B. J. Mintz, L. A. Burns, J. J. Wilke,
    M. L. Abrams, N. J. Russ, M. L. Leininger, C. L. Janssen, E. T. Seidl,
    W. D. Allen, H. F. Schaefer, R. A. King, E. F. Valeev, C. D. Sherrill,
    and T. D. Crawford, WIREs Comput. Mol. Sci. 2, 556-565 (2012)
    (doi: 10.1002/wcms.93)

                         Additional Contributions by
    A. E. DePrince, M. Saitow, U. Bozkaya, A. Yu. Sokolov
    -----------------------------------------------------------------------


    Psi4 started on: Tue Jul  5 16:40:03 2016

    Process ID:  20983
    PSI4DATADIR: /export131/home/mjharvey/miniconda3/share
    Memory level set to 256.000 MB

  ==> Input File <==

--------------------------------------------------------------------------
set {
	reference rhf
	basis 6-31G*
}


set_num_threads( 1 )
memory 2 gb

molecule MOL {
0 1

H	 -1.263842	 -1.572006	 -4.128558
C	 -0.628210	 -1.362020	 -3.287755
C	 -0.778768	 -2.064143	 -2.096714
C	 0.349440	 -0.392267	 -3.372791
H	 -1.535644	 -2.823641	 -2.012268
C	 0.034416	 -1.797647	 -1.016478
H	 0.480419	 0.160861	 -4.286015
C	 1.178276	 -0.111232	 -2.291814
H	 -0.071101	 -2.332374	 -0.090861
C	 1.019677	 -0.816920	 -1.109472
H	 1.929180	 0.648602	 -2.389082
O	 1.765256	 -0.628444	 0.000000
C	 2.778419	 0.335181	 0.000000
H	 2.731280	 0.961222	 -0.884976
H	 3.711703	 -0.207767	 0.000000
H	 2.731280	 0.961222	 0.884976

	symmetry c1
}
set optking {
	frozen_dihedral = ("
		13 12 10 8
	")
}

ee = energy('scf')
oeprop('DIPOLE', 'QUADRUPOLE', 'MULLIKEN_CHARGES')
f=open( 'psi4out.xyz', 'w' )
f.write( "16  " )
f.write( str(ee) + "\n" )
f.write( MOL.save_string_xyz() )
f.close()
--------------------------------------------------------------------------

  Memory set to   2.000 GiB by Python script.

*** tstart() called on cx1-3-2-1.cx1.hpc.ic.ac.uk
*** at Tue Jul  5 16:40:04 2016


         ---------------------------------------------------------
                                   SCF
            by Justin Turney, Rob Parrish, and Andy Simmonett
                              RHF Reference
                        1 Threads,   2000 MiB Core
         ---------------------------------------------------------

  ==> Geometry <==

    Molecular point group: c1
    Full point group: C1

    Geometry (in Angstrom), charge = 0, multiplicity = 1:

       Center              X                  Y                   Z               Mass       
    ------------   -----------------  -----------------  -----------------  -----------------
           H         -2.045421844352    -0.750246766238    -2.545067317331     1.007825032070
           C         -1.409789844352    -0.540260766238    -1.704264317331    12.000000000000
           C         -1.560347844352    -1.242383766238    -0.513223317331    12.000000000000
           C         -0.432139844352     0.429492233762    -1.789300317331    12.000000000000
           H         -2.317223844352    -2.001881766238    -0.428777317331     1.007825032070
           C         -0.747163844352    -0.975887766238     0.567012682669    12.000000000000
           H         -0.301160844352     0.982620233762    -2.702524317331     1.007825032070
           C          0.396696155648     0.710527233762    -0.708323317331    12.000000000000
           H         -0.852680844352    -1.510614766238     1.492629682669     1.007825032070
           C          0.238097155648     0.004839233762     0.474018682669    12.000000000000
           H          1.147600155648     1.470361233762    -0.805591317331     1.007825032070
           O          0.983676155648     0.193315233762     1.583490682669    15.994914619560
           C          1.996839155648     1.156940233762     1.583490682669    12.000000000000
           H          1.949700155648     1.782981233762     0.698514682669     1.007825032070
           H          2.930123155648     0.613992233762     1.583490682669     1.007825032070
           H          1.949700155648     1.782981233762     2.468466682669     1.007825032070

  Running in c1 symmetry.

  Rotational constants: A =      0.17182  B =      0.05268  C =      0.04062 [cm^-1]
  Rotational constants: A =   5151.02013  B =   1579.24793  C =   1217.77355 [MHz]
  Nuclear repulsion =  348.314243258955742

  Charge       = 0
  Multiplicity = 1
  Electrons    = 58
  Nalpha       = 29
  Nbeta        = 29

  ==> Algorithm <==

  SCF Algorithm Type is DF.
  DIIS enabled.
  MOM disabled.
  Fractional occupation disabled.
  Guess Type is CORE.
  Energy threshold   = 1.00e-06
  Density threshold  = 1.00e-06
  Integral threshold = 0.00e+00

  ==> Primary Basis <==

  Basis Set: 6-31G*
    Number of shells: 64
    Number of basis function: 136
    Number of Cartesian functions: 136
    Spherical Harmonics?: false
    Max angular momentum: 2

  ==> Pre-Iterations <==

   -------------------------------------------------------
    Irrep   Nso     Nmo     Nalpha   Nbeta   Ndocc  Nsocc
   -------------------------------------------------------
     A        136     136       0       0       0       0
   -------------------------------------------------------
    Total     136     136      29      29      29       0
   -------------------------------------------------------

 OEINTS: Overlap, kinetic, potential, dipole, and quadrupole integrals
         stored in file 35.

  ==> Integral Setup <==

  ==> DFJK: Density-Fitted J/K Matrices <==

    J tasked:                  Yes
    K tasked:                  Yes
    wK tasked:                  No
    OpenMP threads:              1
    Integrals threads:           1
    Memory (MB):              1430
    Algorithm:                Core
    Integral Cache:           NONE
    Schwarz Cutoff:          1E-12
    Fitting Condition:       1E-12

   => Auxiliary Basis Set <=

  Basis Set: 
    Number of shells: 264
    Number of basis function: 848
    Number of Cartesian functions: 848
    Spherical Harmonics?: false
    Max angular momentum: 3

  Minimum eigenvalue in the overlap matrix is 4.4553001245E-04.
  Using Symmetric Orthogonalization.
  SCF Guess: Core (One-Electron) Hamiltonian.

  ==> Iterations <==

                           Total Energy        Delta E     RMS |[F,P]|

   @DF-RHF iter   1:  -265.43821049038269   -2.65438e+02   7.04003e-02 
   @DF-RHF iter   2:  -245.48572361914211    1.99525e+01   5.37940e-02 DIIS
   @DF-RHF iter   3:  -320.29291451174282   -7.48072e+01   3.60889e-02 DIIS
   @DF-RHF iter   4:  -339.63702239389096   -1.93441e+01   2.07391e-02 DIIS
   @DF-RHF iter   5:  -343.41878704018967   -3.78176e+00   1.08200e-02 DIIS
   @DF-RHF iter   6:  -344.51638253760319   -1.09760e+00   2.16785e-03 DIIS
   @DF-RHF iter   7:  -344.56511483369712   -4.87323e-02   7.69035e-04 DIIS
   @DF-RHF iter   8:  -344.57298611225673   -7.87128e-03   2.47335e-04 DIIS
   @DF-RHF iter   9:  -344.57389679515398   -9.10683e-04   8.82199e-05 DIIS
   @DF-RHF iter  10:  -344.57401361796980   -1.16823e-04   2.45130e-05 DIIS
   @DF-RHF iter  11:  -344.57403067623562   -1.70583e-05   9.98828e-06 DIIS
   @DF-RHF iter  12:  -344.57403401784433   -3.34161e-06   4.67261e-06 DIIS
   @DF-RHF iter  13:  -344.57403499191429   -9.74070e-07   1.96043e-06 DIIS
   @DF-RHF iter  14:  -344.57403522827934   -2.36365e-07   6.74906e-07 DIIS

  ==> Post-Iterations <==

    Orbital Energies (a.u.)
    -----------------------

    Doubly Occupied:                                                      

       1A    -20.584176     2A    -11.295716     3A    -11.278053  
       4A    -11.233226     5A    -11.231557     6A    -11.222954  
       7A    -11.218514     8A    -11.218355     9A     -1.414387  
      10A     -1.145637    11A     -1.021712    12A     -1.012734  
      13A     -0.942818    14A     -0.831174    15A     -0.804020  
      16A     -0.724893    17A     -0.662785    18A     -0.660749  
      19A     -0.655671    20A     -0.621304    21A     -0.587842  
      22A     -0.571459    23A     -0.525563    24A     -0.520428  
      25A     -0.511631    26A     -0.472581    27A     -0.460212  
      28A     -0.334823    29A     -0.303074  

    Virtual:                                                              

      30A      0.146304    31A      0.167273    32A      0.236455  
      33A      0.262744    34A      0.285180    35A      0.304697  
      36A      0.315178    37A      0.322746    38A      0.330401  
      39A      0.343192    40A      0.383768    41A      0.407507  
      42A      0.451452    43A      0.482424    44A      0.505775  
      45A      0.540611    46A      0.565400    47A      0.671807  
      48A      0.707191    49A      0.731557    50A      0.752606  
      51A      0.757945    52A      0.768703    53A      0.816320  
      54A      0.830878    55A      0.833043    56A      0.841199  
      57A      0.844253    58A      0.855011    59A      0.865370  
      60A      0.897643    61A      0.919416    62A      0.940413  
      63A      0.972223    64A      1.011069    65A      1.056569  
      66A      1.116243    67A      1.119876    68A      1.125958  
      69A      1.129251    70A      1.148038    71A      1.173349  
      72A      1.188602    73A      1.208685    74A      1.212682  
      75A      1.253511    76A      1.263555    77A      1.306524  
      78A      1.321052    79A      1.347724    80A      1.393429  
      81A      1.443970    82A      1.448077    83A      1.512687  
      84A      1.543472    85A      1.604160    86A      1.640407  
      87A      1.692826    88A      1.712546    89A      1.724254  
      90A      1.748687    91A      1.777781    92A      1.799365  
      93A      1.853723    94A      1.988277    95A      2.065348  
      96A      2.118630    97A      2.123539    98A      2.156123  
      99A      2.198804   100A      2.268526   101A      2.319104  
     102A      2.328167   103A      2.349722   104A      2.423800  
     105A      2.428392   106A      2.440753   107A      2.475912  
     108A      2.496010   109A      2.500513   110A      2.581337  
     111A      2.595928   112A      2.606856   113A      2.653278  
     114A      2.678896   115A      2.746076   116A      2.878757  
     117A      2.889984   118A      2.938025   119A      3.001994  
     120A      3.040450   121A      3.044536   122A      3.105427  
     123A      3.120957   124A      3.148426   125A      3.282930  
     126A      3.377810   127A      3.596561   128A      3.850184  
     129A      4.491363   130A      4.534723   131A      4.551608  
     132A      4.652164   133A      4.748130   134A      4.769839  
     135A      4.883070   136A      5.186144  

    Final Occupation by Irrep:
              A 
    DOCC [    29 ]

  Energy converged.

  @DF-RHF Final Energy:  -344.57403522827934

   => Energetics <=

    Nuclear Repulsion Energy =            348.3142432589557416
    One-Electron Energy =               -1157.6402276917701784
    Two-Electron Energy =                 464.7519492045352081
    DFT Exchange-Correlation Energy =       0.0000000000000000
    Empirical Dispersion Energy =           0.0000000000000000
    PCM Polarization Energy =               0.0000000000000000
    EFP Energy =                            0.0000000000000000
    Total Energy =                       -344.5740352282792855

    Alert: EFP and PCM quantities not currently incorporated into SCF psivars.

Properties will be evaluated at   0.000000,   0.000000,   0.000000 Bohr
  ==> Properties <==


Properties computed using the SCF density matrix

  Nuclear Dipole Moment: (a.u.)
     X:     2.3115      Y:     2.2229      Z:    -0.2163

  Electronic Dipole Moment: (a.u.)
     X:    -1.9942      Y:    -1.8138      Z:     0.0151

  Dipole Moment: (a.u.)
     X:     0.3173      Y:     0.4091      Z:    -0.2012     Total:     0.5555

  Dipole Moment: (Debye)
     X:     0.8066      Y:     1.0399      Z:    -0.5115     Total:     1.4120


  Saving occupied orbitals to File 180.

*** tstop() called on cx1-3-2-1.cx1.hpc.ic.ac.uk at Tue Jul  5 16:40:16 2016
Module time:
	user time   =      11.44 seconds =       0.19 minutes
	system time =       0.10 seconds =       0.00 minutes
	total time  =         12 seconds =       0.20 minutes
Total time:
	user time   =      11.44 seconds =       0.19 minutes
	system time =       0.10 seconds =       0.00 minutes
	total time  =         12 seconds =       0.20 minutes


Properties will be evaluated at   0.000000,   0.000000,   0.000000 Bohr

Properties computed using the  density matrix

  Nuclear Dipole Moment: (a.u.)
     X:     2.3115      Y:     2.2229      Z:    -0.2163

  Electronic Dipole Moment: (a.u.)
     X:    -1.9942      Y:    -1.8138      Z:     0.0151

  Dipole Moment: (a.u.)
     X:     0.3173      Y:     0.4091      Z:    -0.2012     Total:     0.5555

  Dipole Moment: (Debye)
     X:     0.8066      Y:     1.0399      Z:    -0.5115     Total:     1.4120

  Quadrupole Moment: (Debye Ang)
    XX:   -43.8435     YY:   -45.2208     ZZ:   -46.2379
    XY:     5.9953     XZ:     2.2152     YZ:    -0.0871

  Traceless Quadrupole Moment: (Debye Ang)
    XX:     1.2573     YY:    -0.1201     ZZ:    -1.1372
    XY:     5.9953     XZ:     2.2152     YZ:    -0.0871

  Mulliken Charges: (a.u.)
   Center  Symbol    Alpha    Beta     Spin     Total
       1     H     0.40157  0.40157  0.00000  0.19685
       2     C     3.11323  3.11323  0.00000 -0.22647
       3     C     3.09079  3.09079  0.00000 -0.18158
       4     C     3.08997  3.08997  0.00000 -0.17995
       5     H     0.39872  0.39872  0.00000  0.20256
       6     C     3.12759  3.12759  0.00000 -0.25519
       7     H     0.39971  0.39971  0.00000  0.20058
       8     C     3.14739  3.14739  0.00000 -0.29479
       9     H     0.39302  0.39302  0.00000  0.21396
      10     C     2.78160  2.78160  0.00000  0.43681
      11     H     0.39504  0.39504  0.00000  0.20992
      12     O     4.32913  4.32913  0.00000 -0.65827
      13     C     3.08339  3.08339  0.00000 -0.16677
      14     H     0.42284  0.42284  0.00000  0.15432
      15     H     0.41460  0.41460  0.00000  0.17080
      16     H     0.41140  0.41140  0.00000  0.17721

   Total alpha = 29.00000, Total beta = 29.00000, Total charge = -0.00000


*** PSI4 exiting successfully. Buy a developer a beer!
