    -----------------------------------------------------------------------
          Psi4: An Open-Source Ab Initio Electronic Structure Package
                              Psi4 (no tag) Driver

                          Git: Rev {detached?}  

    J. M. Turney, A. C. Simmonett, R. M. Parrish, E. G. Hohenstein,
    F. A. Evangelista, J. T. Fermann, B. J. Mintz, L. A. Burns, J. J. Wilke,
    M. L. Abrams, N. J. Russ, M. L. Leininger, C. L. Janssen, E. T. Seidl,
    W. D. Allen, H. F. Schaefer, R. A. King, E. F. Valeev, C. D. Sherrill,
    and T. D. Crawford, WIREs Comput. Mol. Sci. 2, 556-565 (2012)
    (doi: 10.1002/wcms.93)

                         Additional Contributions by
    A. E. DePrince, M. Saitow, U. Bozkaya, A. Yu. Sokolov
    -----------------------------------------------------------------------


    Psi4 started on: Tue Jul  5 16:34:58 2016

    Process ID:  16801
    PSI4DATADIR: /export131/home/mjharvey/miniconda3/share
    Memory level set to 256.000 MB

  ==> Input File <==

--------------------------------------------------------------------------
set {
	reference rhf
	basis 6-31G*
}


set_num_threads( 1 )
memory 2 gb

molecule MOL {
0 1

H	 -1.584915	 -2.916831	 -0.016304
C	 -1.502795	 -2.379798	 -0.969012
C	 -0.414791	 -1.338711	 -1.026665
O	 -2.241743	 -2.635535	 -1.863821
C	 -0.558097	 -0.297372	 0.091132
H	 -0.440522	 -0.874133	 -2.005433
H	 0.540888	 -1.851078	 -0.921836
C	 -1.850991	 0.512573	 -0.019058
H	 -0.527822	 -0.799848	 1.055173
H	 0.293577	 0.380148	 0.069309
C	 -3.096943	 -0.368295	 -0.099594
H	 -1.800724	 1.150330	 -0.898172
H	 -1.931651	 1.177355	 0.838044
H	 -3.060452	 -1.020287	 -0.967456
H	 -3.996858	 0.233488	 -0.175704
H	 -3.191959	 -0.995686	 0.782074

	symmetry c1
}
set optking {
	frozen_dihedral = ("
		9 5 8 12,
		4 2 3 6
	")
}

ee = energy('scf')
oeprop('DIPOLE', 'QUADRUPOLE', 'MULLIKEN_CHARGES')
f=open( 'psi4out.xyz', 'w' )
f.write( "16  " )
f.write( str(ee) + "\n" )
f.write( MOL.save_string_xyz() )
f.close()
--------------------------------------------------------------------------

  Memory set to   2.000 GiB by Python script.

*** tstart() called on cx1-1-3-3.cx1.hpc.ic.ac.uk
*** at Tue Jul  5 16:34:58 2016


         ---------------------------------------------------------
                                   SCF
            by Justin Turney, Rob Parrish, and Andy Simmonett
                              RHF Reference
                        1 Threads,   2000 MiB Core
         ---------------------------------------------------------

  ==> Geometry <==

    Molecular point group: c1
    Full point group: C1

    Geometry (in Angstrom), charge = 0, multiplicity = 1:

       Center              X                  Y                   Z               Mass       
    ------------   -----------------  -----------------  -----------------  -----------------
           H          0.050474919873    -1.822714122977     0.638346694659     1.007825032070
           C          0.132594919873    -1.285681122977    -0.314361305341    12.000000000000
           C          1.220598919873    -0.244594122977    -0.372014305341    12.000000000000
           O         -0.606353080127    -1.541418122977    -1.209170305341    15.994914619560
           C          1.077292919873     0.796744877023     0.745782694659    12.000000000000
           H          1.194867919873     0.219983877023    -1.350782305341     1.007825032070
           H          2.176277919873    -0.756961122977    -0.267185305341     1.007825032070
           C         -0.215601080127     1.606689877023     0.635592694659    12.000000000000
           H          1.107567919873     0.294268877023     1.709823694659     1.007825032070
           H          1.928966919873     1.474264877023     0.723959694659     1.007825032070
           C         -1.461553080127     0.725821877023     0.555056694659    12.000000000000
           H         -0.165334080127     2.244446877023    -0.243521305341     1.007825032070
           H         -0.296261080127     2.271471877023     1.492694694659     1.007825032070
           H         -1.425062080127     0.073829877023    -0.312805305341     1.007825032070
           H         -2.361468080127     1.327604877023     0.478946694659     1.007825032070
           H         -1.556569080127     0.098430877023     1.436724694659     1.007825032070

  Running in c1 symmetry.

  Rotational constants: A =      0.16933  B =      0.09703  C =      0.06873 [cm^-1]
  Rotational constants: A =   5076.49423  B =   2908.92658  C =   2060.60597 [MHz]
  Nuclear repulsion =  246.143297686541899

  Charge       = 0
  Multiplicity = 1
  Electrons    = 48
  Nalpha       = 24
  Nbeta        = 24

  ==> Algorithm <==

  SCF Algorithm Type is DF.
  DIIS enabled.
  MOM disabled.
  Fractional occupation disabled.
  Guess Type is CORE.
  Energy threshold   = 1.00e-06
  Density threshold  = 1.00e-06
  Integral threshold = 0.00e+00

  ==> Primary Basis <==

  Basis Set: 6-31G*
    Number of shells: 56
    Number of basis function: 110
    Number of Cartesian functions: 110
    Spherical Harmonics?: false
    Max angular momentum: 2

  ==> Pre-Iterations <==

   -------------------------------------------------------
    Irrep   Nso     Nmo     Nalpha   Nbeta   Ndocc  Nsocc
   -------------------------------------------------------
     A        110     110       0       0       0       0
   -------------------------------------------------------
    Total     110     110      24      24      24       0
   -------------------------------------------------------

 OEINTS: Overlap, kinetic, potential, dipole, and quadrupole integrals
         stored in file 35.

  ==> Integral Setup <==

  ==> DFJK: Density-Fitted J/K Matrices <==

    J tasked:                  Yes
    K tasked:                  Yes
    wK tasked:                  No
    OpenMP threads:              1
    Integrals threads:           1
    Memory (MB):              1430
    Algorithm:                Core
    Integral Cache:           NONE
    Schwarz Cutoff:          1E-12
    Fitting Condition:       1E-12

   => Auxiliary Basis Set <=

  Basis Set: 
    Number of shells: 234
    Number of basis function: 736
    Number of Cartesian functions: 736
    Spherical Harmonics?: false
    Max angular momentum: 3

  Minimum eigenvalue in the overlap matrix is 3.5170815441E-03.
  Using Symmetric Orthogonalization.
  SCF Guess: Core (One-Electron) Hamiltonian.

  ==> Iterations <==

                           Total Energy        Delta E     RMS |[F,P]|

   @DF-RHF iter   1:  -214.13410377360108   -2.14134e+02   7.11864e-02 
   @DF-RHF iter   2:  -176.42538797098919    3.77087e+01   6.19208e-02 DIIS
   @DF-RHF iter   3:  -226.00070469791771   -4.95753e+01   5.11516e-02 DIIS
   @DF-RHF iter   4:  -265.32592974661441   -3.93252e+01   2.62347e-02 DIIS
   @DF-RHF iter   5:  -269.65245561082475   -4.32653e+00   7.17803e-03 DIIS
   @DF-RHF iter   6:  -269.98283158260574   -3.30376e-01   1.46673e-03 DIIS
   @DF-RHF iter   7:  -269.99908421315297   -1.62526e-02   5.08813e-04 DIIS
   @DF-RHF iter   8:  -270.00105344324857   -1.96923e-03   1.85955e-04 DIIS
   @DF-RHF iter   9:  -270.00136246381135   -3.09021e-04   8.86093e-05 DIIS
   @DF-RHF iter  10:  -270.00143400822174   -7.15444e-05   2.58995e-05 DIIS
   @DF-RHF iter  11:  -270.00144530125931   -1.12930e-05   1.02687e-05 DIIS
   @DF-RHF iter  12:  -270.00144671587088   -1.41461e-06   3.05387e-06 DIIS
   @DF-RHF iter  13:  -270.00144686728959   -1.51419e-07   8.72535e-07 DIIS

  ==> Post-Iterations <==

    Orbital Energies (a.u.)
    -----------------------

    Doubly Occupied:                                                      

       1A    -20.557971     2A    -11.330633     3A    -11.236858  
       4A    -11.235636     5A    -11.223456     6A    -11.203723  
       7A     -1.405638     8A     -1.099480     9A     -1.008096  
      10A     -0.915593    11A     -0.809113    12A     -0.789821  
      13A     -0.671640    14A     -0.648649    15A     -0.646917  
      16A     -0.594582    17A     -0.576050    18A     -0.552966  
      19A     -0.538948    20A     -0.518712    21A     -0.482947  
      22A     -0.475038    23A     -0.446869    24A     -0.410566  

    Virtual:                                                              

      25A      0.153512    26A      0.226656    27A      0.254116  
      28A      0.281128    29A      0.293214    30A      0.299523  
      31A      0.313076    32A      0.327877    33A      0.331088  
      34A      0.342133    35A      0.381927    36A      0.392222  
      37A      0.411206    38A      0.440413    39A      0.468587  
      40A      0.508245    41A      0.703555    42A      0.720877  
      43A      0.731037    44A      0.750527    45A      0.765537  
      46A      0.809551    47A      0.845464    48A      0.905972  
      49A      0.928092    50A      0.943472    51A      0.974133  
      52A      0.998789    53A      1.036105    54A      1.062201  
      55A      1.081976    56A      1.120294    57A      1.126658  
      58A      1.142546    59A      1.162104    60A      1.171658  
      61A      1.203282    62A      1.207633    63A      1.223735  
      64A      1.245171    65A      1.252858    66A      1.259122  
      67A      1.327884    68A      1.362246    69A      1.462839  
      70A      1.500339    71A      1.582781    72A      1.651634  
      73A      1.753655    74A      1.766830    75A      1.858612  
      76A      1.867881    77A      1.919302    78A      1.944427  
      79A      2.013175    80A      2.064729    81A      2.113458  
      82A      2.150044    83A      2.204151    84A      2.240734  
      85A      2.259592    86A      2.298705    87A      2.325145  
      88A      2.411396    89A      2.434374    90A      2.450377  
      91A      2.575747    92A      2.626152    93A      2.670687  
      94A      2.685709    95A      2.688598    96A      2.757114  
      97A      2.803342    98A      2.919982    99A      2.955257  
     100A      2.970656   101A      3.019269   102A      3.078000  
     103A      3.258487   104A      3.373116   105A      4.378117  
     106A      4.541448   107A      4.665329   108A      4.738117  
     109A      4.938825   110A      4.963069  

    Final Occupation by Irrep:
              A 
    DOCC [    24 ]

  Energy converged.

  @DF-RHF Final Energy:  -270.00144686728959

   => Energetics <=

    Nuclear Repulsion Energy =            246.1432976865418993
    One-Electron Energy =                -853.5295405185930804
    Two-Electron Energy =                 337.3847959647616790
    DFT Exchange-Correlation Energy =       0.0000000000000000
    Empirical Dispersion Energy =           0.0000000000000000
    PCM Polarization Energy =               0.0000000000000000
    EFP Energy =                            0.0000000000000000
    Total Energy =                       -270.0014468672894736

    Alert: EFP and PCM quantities not currently incorporated into SCF psivars.

Properties will be evaluated at   0.000000,   0.000000,   0.000000 Bohr
  ==> Properties <==


Properties computed using the SCF density matrix

  Nuclear Dipole Moment: (a.u.)
     X:     0.6097      Y:     5.0780      Z:     4.0311

  Electronic Dipole Moment: (a.u.)
     X:     0.1733      Y:    -4.6549      Z:    -3.2695

  Dipole Moment: (a.u.)
     X:     0.7829      Y:     0.4231      Z:     0.7616     Total:     1.1713

  Dipole Moment: (Debye)
     X:     1.9900      Y:     1.0754      Z:     1.9358     Total:     2.9772


  Saving occupied orbitals to File 180.

*** tstop() called on cx1-1-3-3.cx1.hpc.ic.ac.uk at Tue Jul  5 16:35:07 2016
Module time:
	user time   =       7.78 seconds =       0.13 minutes
	system time =       0.06 seconds =       0.00 minutes
	total time  =          9 seconds =       0.15 minutes
Total time:
	user time   =       7.78 seconds =       0.13 minutes
	system time =       0.06 seconds =       0.00 minutes
	total time  =          9 seconds =       0.15 minutes


Properties will be evaluated at   0.000000,   0.000000,   0.000000 Bohr

Properties computed using the  density matrix

  Nuclear Dipole Moment: (a.u.)
     X:     0.6097      Y:     5.0780      Z:     4.0311

  Electronic Dipole Moment: (a.u.)
     X:     0.1733      Y:    -4.6549      Z:    -3.2695

  Dipole Moment: (a.u.)
     X:     0.7829      Y:     0.4231      Z:     0.7616     Total:     1.1713

  Dipole Moment: (Debye)
     X:     1.9900      Y:     1.0754      Z:     1.9358     Total:     2.9772

  Quadrupole Moment: (Debye Ang)
    XX:   -38.5157     YY:   -40.1357     ZZ:   -41.1879
    XY:    -2.6799     XZ:    -1.8248     YZ:    -3.7697

  Traceless Quadrupole Moment: (Debye Ang)
    XX:     1.4307     YY:    -0.1893     ZZ:    -1.2414
    XY:    -2.6799     XZ:    -1.8248     YZ:    -3.7697

  Mulliken Charges: (a.u.)
   Center  Symbol    Alpha    Beta     Spin     Total
       1     H     0.42814  0.42814  0.00000  0.14371
       2     C     2.83443  2.83443  0.00000  0.33114
       3     C     3.20422  3.20422  0.00000 -0.40844
       4     O     4.24409  4.24409  0.00000 -0.48818
       5     C     3.16715  3.16715  0.00000 -0.33430
       6     H     0.39947  0.39947  0.00000  0.20106
       7     H     0.40563  0.40563  0.00000  0.18874
       8     C     3.14979  3.14979  0.00000 -0.29957
       9     H     0.41949  0.41949  0.00000  0.16102
      10     H     0.41122  0.41122  0.00000  0.17757
      11     C     3.27420  3.27420  0.00000 -0.54840
      12     H     0.41895  0.41895  0.00000  0.16210
      13     H     0.41821  0.41821  0.00000  0.16357
      14     H     0.38614  0.38614  0.00000  0.22772
      15     H     0.41416  0.41416  0.00000  0.17167
      16     H     0.42471  0.42471  0.00000  0.15057

   Total alpha = 24.00000, Total beta = 24.00000, Total charge =  0.00000


*** PSI4 exiting successfully. Buy a developer a beer!
