    -----------------------------------------------------------------------
          Psi4: An Open-Source Ab Initio Electronic Structure Package
                              Psi4 (no tag) Driver

                          Git: Rev {detached?}  

    J. M. Turney, A. C. Simmonett, R. M. Parrish, E. G. Hohenstein,
    F. A. Evangelista, J. T. Fermann, B. J. Mintz, L. A. Burns, J. J. Wilke,
    M. L. Abrams, N. J. Russ, M. L. Leininger, C. L. Janssen, E. T. Seidl,
    W. D. Allen, H. F. Schaefer, R. A. King, E. F. Valeev, C. D. Sherrill,
    and T. D. Crawford, WIREs Comput. Mol. Sci. 2, 556-565 (2012)
    (doi: 10.1002/wcms.93)

                         Additional Contributions by
    A. E. DePrince, M. Saitow, U. Bozkaya, A. Yu. Sokolov
    -----------------------------------------------------------------------


    Psi4 started on: Tue Jul  5 17:20:05 2016

    Process ID:  30038
    PSI4DATADIR: /export131/home/mjharvey/miniconda3/share
    Memory level set to 256.000 MB

  ==> Input File <==

--------------------------------------------------------------------------
set {
	reference rhf
	basis 6-31G*
}


set_num_threads( 1 )
memory 2 gb

molecule MOL {
0 1

H	 -3.457960	 0.166880	 1.449720
O	 -3.367910	 -0.300316	 2.267454
C	 -3.043259	 -1.643282	 2.012310
C	 -1.609705	 -1.833855	 1.529264
H	 -3.184960	 -2.163733	 2.950780
H	 -3.740919	 -2.074362	 1.295219
C	 -1.314720	 -1.174099	 0.179978
H	 -0.935821	 -1.437562	 2.284379
H	 -1.414703	 -2.902721	 1.459510
C	 -0.777060	 0.252411	 0.324236
H	 -2.222258	 -1.161129	 -0.417159
H	 -0.588333	 -1.776013	 -0.366285
C	 0.338354	 0.418187	 1.362845
H	 -0.421894	 0.600733	 -0.643946
H	 -1.601897	 0.907154	 0.597469
C	 -0.094225	 0.194152	 2.814451
H	 1.133530	 -0.285527	 1.125573
H	 0.775219	 1.410938	 1.265723
C	 1.072389	 0.266195	 3.802003
H	 -0.575941	 -0.778907	 2.899400
H	 -0.841862	 0.930206	 3.100049
C	 0.642352	 0.049276	 5.252410
H	 1.818809	 -0.477804	 3.532166
H	 1.560974	 1.234190	 3.711696
H	 0.179015	 -0.924698	 5.382469
H	 1.491069	 0.104232	 5.927166
H	 -0.077394	 0.800707	 5.564951

	symmetry c1
}
set optking {
	frozen_dihedral = ("
		14 10 7 4,
		14 10 13 16,
		8 4 3 2,
		10 13 16 20,
		20 16 19 22,
		4 3 2 1
	")
}

ee = energy('scf')
oeprop('DIPOLE', 'QUADRUPOLE', 'MULLIKEN_CHARGES')
f=open( 'psi4out.xyz', 'w' )
f.write( "27  " )
f.write( str(ee) + "\n" )
f.write( MOL.save_string_xyz() )
f.close()
--------------------------------------------------------------------------

  Memory set to   2.000 GiB by Python script.

*** tstart() called on cx1-3-4-2.cx1.hpc.ic.ac.uk
*** at Tue Jul  5 17:20:06 2016


         ---------------------------------------------------------
                                   SCF
            by Justin Turney, Rob Parrish, and Andy Simmonett
                              RHF Reference
                        1 Threads,   2000 MiB Core
         ---------------------------------------------------------

  ==> Geometry <==

    Molecular point group: c1
    Full point group: C1

    Geometry (in Angstrom), charge = 0, multiplicity = 1:

       Center              X                  Y                   Z               Mass       
    ------------   -----------------  -----------------  -----------------  -----------------
           H         -2.508951314542     0.584477533452    -0.740595116351     1.007825032070
           O         -2.418901314542     0.117281533452     0.077138883649    15.994914619560
           C         -2.094250314542    -1.225684466548    -0.178005116351    12.000000000000
           C         -0.660696314542    -1.416257466548    -0.661051116351    12.000000000000
           H         -2.235951314542    -1.746135466548     0.760464883649     1.007825032070
           H         -2.791910314542    -1.656764466548    -0.895096116351     1.007825032070
           C         -0.365711314542    -0.756501466548    -2.010337116351    12.000000000000
           H          0.013187685458    -1.019964466548     0.094063883649     1.007825032070
           H         -0.465694314542    -2.485123466548    -0.730805116351     1.007825032070
           C          0.171948685458     0.670008533452    -1.866079116351    12.000000000000
           H         -1.273249314542    -0.743531466548    -2.607474116351     1.007825032070
           H          0.360675685458    -1.358415466548    -2.556600116351     1.007825032070
           C          1.287362685458     0.835784533452    -0.827470116351    12.000000000000
           H          0.527114685458     1.018330533452    -2.834261116351     1.007825032070
           H         -0.652888314542     1.324751533452    -1.592846116351     1.007825032070
           C          0.854783685458     0.611749533452     0.624135883649    12.000000000000
           H          2.082538685458     0.132070533452    -1.064742116351     1.007825032070
           H          1.724227685458     1.828535533452    -0.924592116351     1.007825032070
           C          2.021397685458     0.683792533452     1.611687883649    12.000000000000
           H          0.373067685458    -0.361309466548     0.709084883649     1.007825032070
           H          0.107146685458     1.347803533452     0.909733883649     1.007825032070
           C          1.591360685458     0.466873533452     3.062094883649    12.000000000000
           H          2.767817685458    -0.060206466548     1.341850883649     1.007825032070
           H          2.509982685458     1.651787533452     1.521380883649     1.007825032070
           H          1.128023685458    -0.507100466548     3.192153883649     1.007825032070
           H          2.440077685458     0.521829533452     3.736850883649     1.007825032070
           H          0.871614685458     1.218304533452     3.374635883649     1.007825032070

  Running in c1 symmetry.

  Rotational constants: A =      0.06443  B =      0.03125  C =      0.02483 [cm^-1]
  Rotational constants: A =   1931.50719  B =    936.77019  C =    744.38572 [MHz]
  Nuclear repulsion =  497.768515379669793

  Charge       = 0
  Multiplicity = 1
  Electrons    = 74
  Nalpha       = 37
  Nbeta        = 37

  ==> Algorithm <==

  SCF Algorithm Type is DF.
  DIIS enabled.
  MOM disabled.
  Fractional occupation disabled.
  Guess Type is CORE.
  Energy threshold   = 1.00e-06
  Density threshold  = 1.00e-06
  Integral threshold = 0.00e+00

  ==> Primary Basis <==

  Basis Set: 6-31G*
    Number of shells: 90
    Number of basis function: 171
    Number of Cartesian functions: 171
    Spherical Harmonics?: false
    Max angular momentum: 2

  ==> Pre-Iterations <==

   -------------------------------------------------------
    Irrep   Nso     Nmo     Nalpha   Nbeta   Ndocc  Nsocc
   -------------------------------------------------------
     A        171     171       0       0       0       0
   -------------------------------------------------------
    Total     171     171      37      37      37       0
   -------------------------------------------------------

 OEINTS: Overlap, kinetic, potential, dipole, and quadrupole integrals
         stored in file 35.

  ==> Integral Setup <==

  ==> DFJK: Density-Fitted J/K Matrices <==

    J tasked:                  Yes
    K tasked:                  Yes
    wK tasked:                  No
    OpenMP threads:              1
    Integrals threads:           1
    Memory (MB):              1430
    Algorithm:                Core
    Integral Cache:           NONE
    Schwarz Cutoff:          1E-12
    Fitting Condition:       1E-12

   => Auxiliary Basis Set <=

  Basis Set: 
    Number of shells: 378
    Number of basis function: 1179
    Number of Cartesian functions: 1179
    Spherical Harmonics?: false
    Max angular momentum: 3

  Minimum eigenvalue in the overlap matrix is 2.8111156652E-03.
  Using Symmetric Orthogonalization.
  SCF Guess: Core (One-Electron) Hamiltonian.

  ==> Iterations <==

                           Total Energy        Delta E     RMS |[F,P]|

   @DF-RHF iter   1:  -283.05803749217034   -2.83058e+02   6.21421e-02 
   @DF-RHF iter   2:    -1.93082204394074    2.81127e+02   6.57307e-02 DIIS
   @DF-RHF iter   3:  -287.12102905745269   -2.85190e+02   4.50068e-02 DIIS
   @DF-RHF iter   4:  -268.74503978976441    1.83760e+01   6.67695e-02 DIIS
   @DF-RHF iter   5:  -387.19612698332548   -1.18451e+02   7.80529e-03 DIIS
   @DF-RHF iter   6:  -388.06043857501720   -8.64312e-01   3.32416e-03 DIIS
   @DF-RHF iter   7:  -388.19484165789947   -1.34403e-01   7.63129e-04 DIIS
   @DF-RHF iter   8:  -388.20587512165491   -1.10335e-02   2.51942e-04 DIIS
   @DF-RHF iter   9:  -388.20691431480964   -1.03919e-03   7.63650e-05 DIIS
   @DF-RHF iter  10:  -388.20705608635183   -1.41772e-04   2.33887e-05 DIIS
   @DF-RHF iter  11:  -388.20707200497770   -1.59186e-05   7.08434e-06 DIIS
   @DF-RHF iter  12:  -388.20707335372481   -1.34875e-06   2.50449e-06 DIIS
   @DF-RHF iter  13:  -388.20707355047500   -1.96750e-07   5.34644e-07 DIIS

  ==> Post-Iterations <==

    Orbital Energies (a.u.)
    -----------------------

    Doubly Occupied:                                                      

       1A    -20.553948     2A    -11.266200     3A    -11.218320  
       4A    -11.216757     5A    -11.214083     6A    -11.209523  
       7A    -11.204280     8A    -11.199331     9A    -11.198676  
      10A     -1.361208    11A     -1.103347    12A     -1.052296  
      13A     -1.006734    14A     -0.956278    15A     -0.890788  
      16A     -0.835068    17A     -0.792956    18A     -0.775478  
      19A     -0.707493    20A     -0.658051    21A     -0.642208  
      22A     -0.605324    23A     -0.596626    24A     -0.589420  
      25A     -0.569889    26A     -0.558789    27A     -0.550870  
      28A     -0.531259    29A     -0.513346    30A     -0.496042  
      31A     -0.485776    32A     -0.469778    33A     -0.462612  
      34A     -0.457725    35A     -0.437755    36A     -0.423007  
      37A     -0.388885  

    Virtual:                                                              

      38A      0.209735    39A      0.235247    40A      0.249391  
      41A      0.254553    42A      0.284871    43A      0.288765  
      44A      0.294422    45A      0.310551    46A      0.316633  
      47A      0.326341    48A      0.338580    49A      0.343397  
      50A      0.345967    51A      0.350823    52A      0.359411  
      53A      0.364225    54A      0.377537    55A      0.383982  
      56A      0.392955    57A      0.424581    58A      0.440797  
      59A      0.453672    60A      0.467198    61A      0.471792  
      62A      0.506351    63A      0.568946    64A      0.700182  
      65A      0.710394    66A      0.724396    67A      0.742083  
      68A      0.750664    69A      0.768698    70A      0.774540  
      71A      0.812188    72A      0.830545    73A      0.856607  
      74A      0.867451    75A      0.902918    76A      0.919634  
      77A      0.934616    78A      0.944894    79A      0.981381  
      80A      1.002692    81A      1.009186    82A      1.031855  
      83A      1.072907    84A      1.094000    85A      1.101092  
      86A      1.112043    87A      1.135669    88A      1.139248  
      89A      1.155521    90A      1.171997    91A      1.176588  
      92A      1.184017    93A      1.187171    94A      1.197042  
      95A      1.207846    96A      1.220024    97A      1.225888  
      98A      1.229541    99A      1.246302   100A      1.261529  
     101A      1.268097   102A      1.277317   103A      1.291295  
     104A      1.311768   105A      1.351044   106A      1.377551  
     107A      1.393601   108A      1.435797   109A      1.457324  
     110A      1.490061   111A      1.560153   112A      1.673449  
     113A      1.689803   114A      1.707845   115A      1.744756  
     116A      1.784691   117A      1.793523   118A      1.846824  
     119A      1.868814   120A      1.958246   121A      1.988664  
     122A      1.999528   123A      2.054332   124A      2.063716  
     125A      2.096349   126A      2.113480   127A      2.154919  
     128A      2.190652   129A      2.208331   130A      2.242735  
     131A      2.254988   132A      2.290806   133A      2.301763  
     134A      2.319855   135A      2.348936   136A      2.363438  
     137A      2.386615   138A      2.413351   139A      2.447051  
     140A      2.476390   141A      2.518860   142A      2.569173  
     143A      2.598035   144A      2.627703   145A      2.662003  
     146A      2.679160   147A      2.689878   148A      2.742252  
     149A      2.751257   150A      2.781653   151A      2.793018  
     152A      2.806449   153A      2.831327   154A      2.901371  
     155A      2.958441   156A      2.973626   157A      2.994963  
     158A      3.060923   159A      3.084119   160A      3.128846  
     161A      3.179679   162A      3.215545   163A      4.211532  
     164A      4.561173   165A      4.629844   166A      4.687170  
     167A      4.770203   168A      4.853582   169A      4.921613  
     170A      5.006368   171A      5.046540  

    Final Occupation by Irrep:
              A 
    DOCC [    37 ]

  Energy converged.

  @DF-RHF Final Energy:  -388.20707355047500

   => Energetics <=

    Nuclear Repulsion Energy =            497.7685153796697932
    One-Electron Energy =               -1513.5511296764912004
    Two-Electron Energy =                 627.5755407463477695
    DFT Exchange-Correlation Energy =       0.0000000000000000
    Empirical Dispersion Energy =           0.0000000000000000
    PCM Polarization Energy =               0.0000000000000000
    EFP Energy =                            0.0000000000000000
    Total Energy =                       -388.2070735504736376

    Alert: EFP and PCM quantities not currently incorporated into SCF psivars.

Properties will be evaluated at   0.000000,   0.000000,   0.000000 Bohr
  ==> Properties <==


Properties computed using the SCF density matrix

  Nuclear Dipole Moment: (a.u.)
     X:     4.6540      Y:    -0.2907      Z:     1.5877

  Electronic Dipole Moment: (a.u.)
     X:    -4.4951      Y:     0.0755      Z:    -2.1784

  Dipole Moment: (a.u.)
     X:     0.1589      Y:    -0.2152      Z:    -0.5907     Total:     0.6484

  Dipole Moment: (Debye)
     X:     0.4038      Y:    -0.5470      Z:    -1.5014     Total:     1.6481


  Saving occupied orbitals to File 180.

*** tstop() called on cx1-3-4-2.cx1.hpc.ic.ac.uk at Tue Jul  5 17:20:40 2016
Module time:
	user time   =      33.98 seconds =       0.57 minutes
	system time =       0.27 seconds =       0.00 minutes
	total time  =         34 seconds =       0.57 minutes
Total time:
	user time   =      33.98 seconds =       0.57 minutes
	system time =       0.27 seconds =       0.00 minutes
	total time  =         34 seconds =       0.57 minutes


Properties will be evaluated at   0.000000,   0.000000,   0.000000 Bohr

Properties computed using the  density matrix

  Nuclear Dipole Moment: (a.u.)
     X:     4.6540      Y:    -0.2907      Z:     1.5877

  Electronic Dipole Moment: (a.u.)
     X:    -4.4951      Y:     0.0755      Z:    -2.1784

  Dipole Moment: (a.u.)
     X:     0.1589      Y:    -0.2152      Z:    -0.5907     Total:     0.6484

  Dipole Moment: (Debye)
     X:     0.4038      Y:    -0.5470      Z:    -1.5014     Total:     1.6481

  Quadrupole Moment: (Debye Ang)
    XX:   -62.4949     YY:   -58.5010     ZZ:   -60.2962
    XY:     0.6468     XZ:     3.6674     YZ:    -1.2074

  Traceless Quadrupole Moment: (Debye Ang)
    XX:    -2.0643     YY:     1.9297     ZZ:     0.1345
    XY:     0.6468     XZ:     3.6674     YZ:    -1.2074

  Mulliken Charges: (a.u.)
   Center  Symbol    Alpha    Beta     Spin     Total
       1     H     0.27791  0.27791  0.00000  0.44418
       2     O     4.37162  4.37162  0.00000 -0.74324
       3     C     2.99829  2.99829  0.00000  0.00341
       4     C     3.15781  3.15781  0.00000 -0.31563
       5     H     0.41643  0.41643  0.00000  0.16714
       6     H     0.43051  0.43051  0.00000  0.13897
       7     C     3.16301  3.16301  0.00000 -0.32602
       8     H     0.43448  0.43448  0.00000  0.13104
       9     H     0.42274  0.42274  0.00000  0.15452
      10     C     3.15271  3.15271  0.00000 -0.30542
      11     H     0.42559  0.42559  0.00000  0.14882
      12     H     0.41754  0.41754  0.00000  0.16493
      13     C     3.16025  3.16025  0.00000 -0.32051
      14     H     0.41934  0.41934  0.00000  0.16132
      15     H     0.43085  0.43085  0.00000  0.13830
      16     C     3.15731  3.15731  0.00000 -0.31461
      17     H     0.42489  0.42489  0.00000  0.15021
      18     H     0.41740  0.41740  0.00000  0.16520
      19     C     3.15071  3.15071  0.00000 -0.30143
      20     H     0.40505  0.40505  0.00000  0.18989
      21     H     0.41316  0.41316  0.00000  0.17369
      22     C     3.23852  3.23852  0.00000 -0.47705
      23     H     0.42618  0.42618  0.00000  0.14765
      24     H     0.42399  0.42399  0.00000  0.15202
      25     H     0.42328  0.42328  0.00000  0.15344
      26     H     0.42049  0.42049  0.00000  0.15901
      27     H     0.41992  0.41992  0.00000  0.16015

   Total alpha = 37.00000, Total beta = 37.00000, Total charge =  0.00000


*** PSI4 exiting successfully. Buy a developer a beer!
