    -----------------------------------------------------------------------
          Psi4: An Open-Source Ab Initio Electronic Structure Package
                              Psi4 (no tag) Driver

                          Git: Rev {detached?}  

    J. M. Turney, A. C. Simmonett, R. M. Parrish, E. G. Hohenstein,
    F. A. Evangelista, J. T. Fermann, B. J. Mintz, L. A. Burns, J. J. Wilke,
    M. L. Abrams, N. J. Russ, M. L. Leininger, C. L. Janssen, E. T. Seidl,
    W. D. Allen, H. F. Schaefer, R. A. King, E. F. Valeev, C. D. Sherrill,
    and T. D. Crawford, WIREs Comput. Mol. Sci. 2, 556-565 (2012)
    (doi: 10.1002/wcms.93)

                         Additional Contributions by
    A. E. DePrince, M. Saitow, U. Bozkaya, A. Yu. Sokolov
    -----------------------------------------------------------------------


    Psi4 started on: Tue Jul  5 16:41:17 2016

    Process ID:  25501
    PSI4DATADIR: /export131/home/mjharvey/miniconda3/share
    Memory level set to 256.000 MB

  ==> Input File <==

--------------------------------------------------------------------------
set {
	reference rhf
	basis 6-31G*
}


set_num_threads( 1 )
memory 2 gb

molecule MOL {
0 1

H	 -1.831579	 2.060262	 -1.083509
C	 -0.815905	 1.683977	 -1.121459
C	 -0.603454	 0.661669	 0.000000
H	 -0.136711	 2.521358	 -1.016909
H	 -0.654141	 1.233244	 -2.093114
C	 0.763625	 0.112519	 0.000000
H	 -0.780661	 1.113028	 0.969248
H	 -1.294813	 -0.166923	 -0.100137
N	 1.813038	 -0.320305	 0.000000

	symmetry c1
}
ee = energy('scf')
oeprop('DIPOLE', 'QUADRUPOLE', 'MULLIKEN_CHARGES')
f=open( 'psi4out.xyz', 'w' )
f.write( "9  " )
f.write( str(ee) + "\n" )
f.write( MOL.save_string_xyz() )
f.close()
--------------------------------------------------------------------------

  Memory set to   2.000 GiB by Python script.

*** tstart() called on cx1-3-16-4.cx1.hpc.ic.ac.uk
*** at Tue Jul  5 16:41:18 2016


         ---------------------------------------------------------
                                   SCF
            by Justin Turney, Rob Parrish, and Andy Simmonett
                              RHF Reference
                        1 Threads,   2000 MiB Core
         ---------------------------------------------------------

  ==> Geometry <==

    Molecular point group: c1
    Full point group: C1

    Geometry (in Angstrom), charge = 0, multiplicity = 1:

       Center              X                  Y                   Z               Mass       
    ------------   -----------------  -----------------  -----------------  -----------------
           H         -2.063848626289     1.482040205397    -0.778144335145     1.007825032070
           C         -1.048174626289     1.105755205397    -0.816094335145    12.000000000000
           C         -0.835723626289     0.083447205397     0.305364664855    12.000000000000
           H         -0.368980626289     1.943136205397    -0.711544335145     1.007825032070
           H         -0.886410626289     0.655022205397    -1.787749335145     1.007825032070
           C          0.531355373711    -0.465702794603     0.305364664855    12.000000000000
           H         -1.012930626289     0.534806205397     1.274612664855     1.007825032070
           H         -1.527082626289    -0.745144794603     0.205227664855     1.007825032070
           N          1.580768373711    -0.898526794603     0.305364664855    14.003074004780

  Running in c1 symmetry.

  Rotational constants: A =      0.94825  B =      0.15699  C =      0.14168 [cm^-1]
  Rotational constants: A =  28427.90433  B =   4706.31000  C =   4247.55671 [MHz]
  Nuclear repulsion =  103.388593390301409

  Charge       = 0
  Multiplicity = 1
  Electrons    = 30
  Nalpha       = 15
  Nbeta        = 15

  ==> Algorithm <==

  SCF Algorithm Type is DF.
  DIIS enabled.
  MOM disabled.
  Fractional occupation disabled.
  Guess Type is CORE.
  Energy threshold   = 1.00e-06
  Density threshold  = 1.00e-06
  Integral threshold = 0.00e+00

  ==> Primary Basis <==

  Basis Set: 6-31G*
    Number of shells: 34
    Number of basis function: 70
    Number of Cartesian functions: 70
    Spherical Harmonics?: false
    Max angular momentum: 2

  ==> Pre-Iterations <==

   -------------------------------------------------------
    Irrep   Nso     Nmo     Nalpha   Nbeta   Ndocc  Nsocc
   -------------------------------------------------------
     A         70      70       0       0       0       0
   -------------------------------------------------------
    Total      70      70      15      15      15       0
   -------------------------------------------------------

 OEINTS: Overlap, kinetic, potential, dipole, and quadrupole integrals
         stored in file 35.

  ==> Integral Setup <==

  ==> DFJK: Density-Fitted J/K Matrices <==

    J tasked:                  Yes
    K tasked:                  Yes
    wK tasked:                  No
    OpenMP threads:              1
    Integrals threads:           1
    Memory (MB):              1430
    Algorithm:                Core
    Integral Cache:           NONE
    Schwarz Cutoff:          1E-12
    Fitting Condition:       1E-12

   => Auxiliary Basis Set <=

  Basis Set: 
    Number of shells: 141
    Number of basis function: 449
    Number of Cartesian functions: 449
    Spherical Harmonics?: false
    Max angular momentum: 3

  Minimum eigenvalue in the overlap matrix is 1.3876363625E-03.
  Using Symmetric Orthogonalization.
  SCF Guess: Core (One-Electron) Hamiltonian.

  ==> Iterations <==

                           Total Energy        Delta E     RMS |[F,P]|

   @DF-RHF iter   1:  -133.95492780093036   -1.33955e+02   8.77824e-02 
   @DF-RHF iter   2:  -109.97508498158813    2.39798e+01   8.01965e-02 DIIS
   @DF-RHF iter   3:  -154.24196669347151   -4.42669e+01   4.92371e-02 DIIS
   @DF-RHF iter   4:  -159.52661473598778   -5.28465e+00   4.62726e-02 DIIS
   @DF-RHF iter   5:  -170.63868432960550   -1.11121e+01   1.15827e-02 DIIS
   @DF-RHF iter   6:  -170.89855867749037   -2.59874e-01   5.65919e-03 DIIS
   @DF-RHF iter   7:  -170.96012604816491   -6.15674e-02   7.26150e-04 DIIS
   @DF-RHF iter   8:  -170.96206565206984   -1.93960e-03   3.24954e-04 DIIS
   @DF-RHF iter   9:  -170.96237115942893   -3.05507e-04   6.89746e-05 DIIS
   @DF-RHF iter  10:  -170.96240422075851   -3.30613e-05   2.91205e-05 DIIS
   @DF-RHF iter  11:  -170.96241444517494   -1.02244e-05   1.38691e-05 DIIS
   @DF-RHF iter  12:  -170.96241752088775   -3.07571e-06   4.14332e-06 DIIS
   @DF-RHF iter  13:  -170.96241775600862   -2.35121e-07   1.17524e-06 DIIS
   @DF-RHF iter  14:  -170.96241776913320   -1.31246e-08   3.46011e-07 DIIS

  ==> Post-Iterations <==

    Orbital Energies (a.u.)
    -----------------------

    Doubly Occupied:                                                      

       1A    -15.567054     2A    -11.283674     3A    -11.269382  
       4A    -11.245859     5A     -1.224542     6A     -1.082299  
       7A     -0.911732     8A     -0.699460     9A     -0.659455  
      10A     -0.587686    11A     -0.560813    12A     -0.543948  
      13A     -0.536603    14A     -0.458556    15A     -0.458485  

    Virtual:                                                              

      16A      0.194768    17A      0.214977    18A      0.244349  
      19A      0.279562    20A      0.286930    21A      0.308389  
      22A      0.350344    23A      0.361482    24A      0.413314  
      25A      0.461633    26A      0.716571    27A      0.717517  
      28A      0.740906    29A      0.788415    30A      0.805297  
      31A      0.864292    32A      0.891900    33A      0.947801  
      34A      0.978530    35A      1.064791    36A      1.100799  
      37A      1.118693    38A      1.123904    39A      1.148107  
      40A      1.176445    41A      1.177329    42A      1.225100  
      43A      1.344784    44A      1.519686    45A      1.657043  
      46A      1.679331    47A      1.707273    48A      1.789594  
      49A      1.811820    50A      1.918854    51A      1.993826  
      52A      2.132327    53A      2.203825    54A      2.272303  
      55A      2.288411    56A      2.314353    57A      2.336696  
      58A      2.544447    59A      2.579728    60A      2.643519  
      61A      2.663504    62A      2.850366    63A      3.128573  
      64A      3.140587    65A      3.205331    66A      3.644062  
      67A      4.465641    68A      4.528170    69A      4.704662  
      70A      5.071005  

    Final Occupation by Irrep:
              A 
    DOCC [    15 ]

  Energy converged.

  @DF-RHF Final Energy:  -170.96241776913320

   => Energetics <=

    Nuclear Repulsion Energy =            103.3885933903014092
    One-Electron Energy =                -434.5229219617242507
    Two-Electron Energy =                 160.1719108022895455
    DFT Exchange-Correlation Energy =       0.0000000000000000
    Empirical Dispersion Energy =           0.0000000000000000
    PCM Polarization Energy =               0.0000000000000000
    EFP Energy =                            0.0000000000000000
    Total Energy =                       -170.9624177691332818

    Alert: EFP and PCM quantities not currently incorporated into SCF psivars.

Properties will be evaluated at   0.000000,   0.000000,   0.000000 Bohr
  ==> Properties <==


Properties computed using the SCF density matrix

  Nuclear Dipole Moment: (a.u.)
     X:    -5.4975      Y:     3.6305      Z:    -1.6861

  Electronic Dipole Moment: (a.u.)
     X:     4.0047      Y:    -2.9679      Z:     1.6199

  Dipole Moment: (a.u.)
     X:    -1.4928      Y:     0.6626      Z:    -0.0662     Total:     1.6345

  Dipole Moment: (Debye)
     X:    -3.7943      Y:     1.6840      Z:    -0.1682     Total:     4.1546


  Saving occupied orbitals to File 180.

*** tstop() called on cx1-3-16-4.cx1.hpc.ic.ac.uk at Tue Jul  5 16:41:20 2016
Module time:
	user time   =       2.05 seconds =       0.03 minutes
	system time =       0.03 seconds =       0.00 minutes
	total time  =          2 seconds =       0.03 minutes
Total time:
	user time   =       2.05 seconds =       0.03 minutes
	system time =       0.03 seconds =       0.00 minutes
	total time  =          2 seconds =       0.03 minutes


Properties will be evaluated at   0.000000,   0.000000,   0.000000 Bohr

Properties computed using the  density matrix

  Nuclear Dipole Moment: (a.u.)
     X:    -5.4975      Y:     3.6305      Z:    -1.6861

  Electronic Dipole Moment: (a.u.)
     X:     4.0047      Y:    -2.9679      Z:     1.6199

  Dipole Moment: (a.u.)
     X:    -1.4928      Y:     0.6626      Z:    -0.0662     Total:     1.6345

  Dipole Moment: (Debye)
     X:    -3.7943      Y:     1.6840      Z:    -0.1682     Total:     4.1546

  Quadrupole Moment: (Debye Ang)
    XX:   -28.8342     YY:   -25.4838     ZZ:   -23.9923
    XY:     2.8628     XZ:    -1.0261     YZ:     0.4824

  Traceless Quadrupole Moment: (Debye Ang)
    XX:    -2.7308     YY:     0.6196     ZZ:     2.1111
    XY:     2.8628     XZ:    -1.0261     YZ:     0.4824

  Mulliken Charges: (a.u.)
   Center  Symbol    Alpha    Beta     Spin     Total
       1     H     0.40904  0.40904  0.00000  0.18192
       2     C     3.24313  3.24313  0.00000 -0.48626
       3     C     3.18200  3.18200  0.00000 -0.36401
       4     H     0.40546  0.40546  0.00000  0.18908
       5     H     0.40540  0.40540  0.00000  0.18919
       6     C     2.84834  2.84834  0.00000  0.30332
       7     H     0.38854  0.38854  0.00000  0.22291
       8     H     0.38836  0.38836  0.00000  0.22329
       9     N     3.72972  3.72972  0.00000 -0.45944

   Total alpha = 15.00000, Total beta = 15.00000, Total charge =  0.00000


*** PSI4 exiting successfully. Buy a developer a beer!
