
    -----------------------------------------------------------------------
          Psi4: An Open-Source Ab Initio Electronic Structure Package
                               Psi4 1.1 release

                         Git: Rev {HEAD} add49b9 


    R. M. Parrish, L. A. Burns, D. G. A. Smith, A. C. Simmonett,
    A. E. DePrince III, E. G. Hohenstein, U. Bozkaya, A. Yu. Sokolov,
    R. Di Remigio, R. M. Richard, J. F. Gonthier, A. M. James,
    H. R. McAlexander, A. Kumar, M. Saitow, X. Wang, B. P. Pritchard,
    P. Verma, H. F. Schaefer III, K. Patkowski, R. A. King, E. F. Valeev,
    F. A. Evangelista, J. M. Turney, T. D. Crawford, and C. D. Sherrill,
    J. Chem. Theory Comput. in press (2017).
    (doi: 10.1021/acs.jctc.7b00174)

    -----------------------------------------------------------------------


    Psi4 started on: Friday, 11 August 2017 06:21PM

    Process ID:  28121
    PSIDATADIR: /home/raimis/opt/miniconda3/envs/htmd/share/psi4
    Memory:     500.0 MiB
    Threads:    1
    
  ==> Input File <==

--------------------------------------------------------------------------
set {
	reference rks
	basis 6-31G*
}


set_num_threads( 8 )
memory 2 gb

molecule MOL {
1 1

C	 -0.000000	 -0.000000	 -0.191639
C	 -1.075252	 0.576240	 0.510391
C	 -1.071842	 0.569054	 1.901670
C	 -0.000000	 0.000000	 2.596333
C	 1.071842	 -0.569054	 1.901670
C	 1.075251	 -0.576241	 0.510391
C	 -0.000000	 -0.000000	 -1.658508
H	 -1.929769	 0.980953	 -0.024627
H	 -1.908398	 0.997382	 2.444112
H	 -0.000000	 0.000000	 3.681982
H	 1.908399	 -0.997381	 2.444112
H	 1.929769	 -0.980953	 -0.024627
N	 -0.712589	 -0.905950	 -2.322235
N	 0.712590	 0.905950	 -2.322235
H	 0.673432	 1.006470	 -3.329771
H	 1.377190	 1.485970	 -1.827091
H	 -1.377189	 -1.485970	 -1.827091
H	 -0.673431	 -1.006470	 -3.329771

	symmetry c1
}
set optking { dynamic_level = 1 }
set optking {
	frozen_dihedral = ("
		2 1 7 13
	")
}

ee,wfn = optimize('b3lyp-d3', return_wfn=True)
oeprop( wfn, 'DIPOLE', 'QUADRUPOLE', 'MULLIKEN_CHARGES')
f=open( 'psi4out.xyz', 'w' )
f.write( "18  " )
f.write( str(ee) + "\n" )
f.write( MOL.save_string_xyz() )
f.close()
--------------------------------------------------------------------------
  Threads set to 8 by Python driver.

  Memory set to   1.863 GiB by Python driver.
gradient() will perform analytic gradient computation.

*** tstart() called on computer03
*** at Fri Aug 11 18:21:21 2017

   => Loading Basis Set <=

    Name: 6-31G*
    Role: ORBITAL
    Keyword: BASIS
    atoms 1-7         entry C          line   102 file /home/raimis/opt/miniconda3/envs/htmd/share/psi4/basis/6-31gs.gbs 
    atoms 8-12, 15-18 entry H          line    35 file /home/raimis/opt/miniconda3/envs/htmd/share/psi4/basis/6-31gs.gbs 
    atoms 13-14       entry N          line   119 file /home/raimis/opt/miniconda3/envs/htmd/share/psi4/basis/6-31gs.gbs 


         ---------------------------------------------------------
                                   SCF
            by Justin Turney, Rob Parrish, and Andy Simmonett
                              RKS Reference
                        8 Threads,   1907 MiB Core
         ---------------------------------------------------------

  ==> Geometry <==

    Molecular point group: c1
    Full point group: C1

    Geometry (in Angstrom), charge = 1, multiplicity = 1:

       Center              X                  Y                   Z               Mass       
    ------------   -----------------  -----------------  -----------------  -----------------
           C         -0.000000041515     0.000000090787    -0.191639316978    12.000000000000
           C         -1.075252041515     0.576240090787     0.510390683022    12.000000000000
           C         -1.071842041515     0.569054090787     1.901669683022    12.000000000000
           C         -0.000000041515     0.000000090787     2.596332683022    12.000000000000
           C          1.071841958485    -0.569053909213     1.901669683022    12.000000000000
           C          1.075250958485    -0.576240909213     0.510390683022    12.000000000000
           C         -0.000000041515     0.000000090787    -1.658508316978    12.000000000000
           H         -1.929769041515     0.980953090787    -0.024627316978     1.007825032070
           H         -1.908398041515     0.997382090787     2.444111683022     1.007825032070
           H         -0.000000041515     0.000000090787     3.681981683022     1.007825032070
           H          1.908398958485    -0.997380909213     2.444111683022     1.007825032070
           H          1.929768958485    -0.980952909213    -0.024627316978     1.007825032070
           N         -0.712589041515    -0.905949909213    -2.322235316978    14.003074004780
           N          0.712589958485     0.905950090787    -2.322235316978    14.003074004780
           H          0.673431958485     1.006470090787    -3.329771316978     1.007825032070
           H          1.377189958485     1.485970090787    -1.827091316978     1.007825032070
           H         -1.377189041515    -1.485969909213    -1.827091316978     1.007825032070
           H         -0.673431041515    -1.006469909213    -3.329771316978     1.007825032070

  Running in c1 symmetry.

  Rotational constants: A =      0.12190  B =      0.03679  C =      0.03328 [cm^-1]
  Rotational constants: A =   3654.48900  B =   1103.01956  C =    997.77368 [MHz]
  Nuclear repulsion =  415.851053931776278

  Charge       = 1
  Multiplicity = 1
  Electrons    = 64
  Nalpha       = 32
  Nbeta        = 32

  ==> Algorithm <==

  SCF Algorithm Type is DF.
  DIIS enabled.
  MOM disabled.
  Fractional occupation disabled.
  Guess Type is SAD.
  Energy threshold   = 1.00e-08
  Density threshold  = 1.00e-08
  Integral threshold = 0.00e+00

  ==> Primary Basis <==

  Basis Set: 6-31G*
    Blend: 6-31G*
    Number of shells: 72
    Number of basis function: 153
    Number of Cartesian functions: 153
    Spherical Harmonics?: false
    Max angular momentum: 2

  ==> DFT Potential <==

   => B3LYP Composite Functional <= 

    B3LYP Hybrid-GGA Exchange-Correlation Functional (VWN1-RPA)

    P.J. Stephens et. al., J. Phys. Chem., 98, 11623-11627, 1994

    Points   =           5000
    Deriv    =              1
    GGA      =           TRUE
    Meta     =          FALSE

    X_LRC        =          FALSE
    X_Hybrid     =           TRUE
    X_Alpha      =   2.000000E-01
    X_Omega      =   0.000000E+00
    C_LRC        =          FALSE
    C_Hybrid     =          FALSE
    C_Alpha      =   0.000000E+00
    C_Omega      =   0.000000E+00

   => Exchange Functionals <=

    0.8000    B3_X
    0.2000      HF 

   => Correlation Functionals <=

    0.1900 VWN3RPA_C
    0.8100   LYP_C

   => Molecular Quadrature <=

    Radial Scheme    =       TREUTLER
    Pruning Scheme   =           FLAT
    Nuclear Scheme   =       TREUTLER

    BS radius alpha  =              1
    Pruning alpha    =              1
    Radial Points    =             75
    Spherical Points =            302
    Total Points     =         397344
    Total Blocks     =            367
    Max Points       =           4926
    Max Functions    =            149

   => -D3ZERO: Empirical Dispersion <=

    Grimme's -D3 (zero-damping) Dispersion Correction
    Grimme S.; Antony J.; Ehrlich S.; Krieg H. (2010), J. Chem. Phys., 132: 154104

        S6 =   1.000000E+00
        S8 =   1.703000E+00
       SR6 =   1.261000E+00
    ALPHA6 =   1.400000E+01

   => Loading Basis Set <=

    Name: (6-31G* AUX)
    Role: JKFIT
    Keyword: DF_BASIS_SCF
    atoms 1-7         entry C          line   120 file /home/raimis/opt/miniconda3/envs/htmd/share/psi4/basis/cc-pvdz-jkfit.gbs 
    atoms 8-12, 15-18 entry H          line    50 file /home/raimis/opt/miniconda3/envs/htmd/share/psi4/basis/cc-pvdz-jkfit.gbs 
    atoms 13-14       entry N          line   170 file /home/raimis/opt/miniconda3/envs/htmd/share/psi4/basis/cc-pvdz-jkfit.gbs 

  ==> Pre-Iterations <==

   -------------------------------------------------------
    Irrep   Nso     Nmo     Nalpha   Nbeta   Ndocc  Nsocc
   -------------------------------------------------------
     A        153     153       0       0       0       0
   -------------------------------------------------------
    Total     153     153      32      32      32       0
   -------------------------------------------------------

  ==> Integral Setup <==

  ==> DFJK: Density-Fitted J/K Matrices <==

    J tasked:                  Yes
    K tasked:                  Yes
    wK tasked:                  No
    OpenMP threads:              8
    Integrals threads:           8
    Memory (MB):              1430
    Algorithm:                Core
    Integral Cache:           NONE
    Schwarz Cutoff:          1E-12
    Fitting Condition:       1E-12

   => Auxiliary Basis Set <=

  Basis Set: (6-31G* AUX)
    Blend: CC-PVDZ-JKFIT
    Number of shells: 297
    Number of basis function: 954
    Number of Cartesian functions: 954
    Spherical Harmonics?: false
    Max angular momentum: 3

  Minimum eigenvalue in the overlap matrix is 4.8851636161E-04.
  Using Symmetric Orthogonalization.

  SCF Guess: Superposition of Atomic Densities via on-the-fly atomic UHF.

  ==> Iterations <==

                           Total Energy        Delta E     RMS |[F,P]|

   @DF-RKS iter   0:  -381.06176149489386   -3.81062e+02   5.85369e-02 
   @DF-RKS iter   1:  -381.14981118163661   -8.80497e-02   9.74554e-03 
   @DF-RKS iter   2:  -381.06134931682658    8.84619e-02   8.93870e-03 DIIS
   @DF-RKS iter   3:  -381.45256907162724   -3.91220e-01   1.55730e-03 DIIS
   @DF-RKS iter   4:  -381.46081622894997   -8.24716e-03   5.63264e-04 DIIS
   @DF-RKS iter   5:  -381.46166592178469   -8.49693e-04   2.21921e-04 DIIS
   @DF-RKS iter   6:  -381.46182934436706   -1.63423e-04   4.52675e-05 DIIS
   @DF-RKS iter   7:  -381.46184017929096   -1.08349e-05   1.69720e-05 DIIS
   @DF-RKS iter   8:  -381.46184111741530   -9.38124e-07   3.73884e-06 DIIS
   @DF-RKS iter   9:  -381.46184119068408   -7.32688e-08   2.22894e-06 DIIS
   @DF-RKS iter  10:  -381.46184120418121   -1.34971e-08   2.59627e-07 DIIS
   @DF-RKS iter  11:  -381.46184120444190   -2.60684e-10   1.33784e-07 DIIS
   @DF-RKS iter  12:  -381.46184120449357   -5.16707e-11   2.55219e-08 DIIS
   @DF-RKS iter  13:  -381.46184120449760   -4.03588e-12   4.56227e-09 DIIS

  ==> Post-Iterations <==

    Orbital Energies (a.u.)
    -----------------------

    Doubly Occupied:                                                      

       1A    -14.576511     2A    -14.576503     3A    -10.505340  
       4A    -10.368165     5A    -10.349315     6A    -10.349308  
       7A    -10.333445     8A    -10.333175     9A    -10.332636  
      10A     -1.190335    11A     -1.097947    12A     -1.008707  
      13A     -0.924065    14A     -0.895096    15A     -0.846047  
      16A     -0.788748    17A     -0.764837    18A     -0.753417  
      19A     -0.729080    20A     -0.693557    21A     -0.667947  
      22A     -0.621867    23A     -0.618371    24A     -0.575726  
      25A     -0.573938    26A     -0.567258    27A     -0.514225  
      28A     -0.498589    29A     -0.490584    30A     -0.478742  
      31A     -0.403542    32A     -0.398424  

    Virtual:                                                              

      33A     -0.202734    34A     -0.163747    35A     -0.147587  
      36A     -0.114265    37A     -0.067663    38A     -0.064756  
      39A     -0.035686    40A     -0.029469    41A      0.009941  
      42A      0.014648    43A      0.025076    44A      0.055702  
      45A      0.060347    46A      0.073309    47A      0.142007  
      48A      0.146421    49A      0.165453    50A      0.188732  
      51A      0.202624    52A      0.208588    53A      0.292878  
      54A      0.344269    55A      0.356645    56A      0.376226  
      57A      0.392653    58A      0.396540    59A      0.402952  
      60A      0.425111    61A      0.443639    62A      0.453085  
      63A      0.455898    64A      0.467757    65A      0.475527  
      66A      0.481345    67A      0.482882    68A      0.498328  
      69A      0.515790    70A      0.534001    71A      0.558062  
      72A      0.569346    73A      0.594315    74A      0.639058  
      75A      0.665743    76A      0.676820    77A      0.680725  
      78A      0.685300    79A      0.700822    80A      0.711506  
      81A      0.732262    82A      0.750915    83A      0.779367  
      84A      0.786043    85A      0.813285    86A      0.831875  
      87A      0.854066    88A      0.940122    89A      0.968813  
      90A      1.013591    91A      1.016587    92A      1.024986  
      93A      1.032931    94A      1.078996    95A      1.130233  
      96A      1.184418    97A      1.208129    98A      1.289296  
      99A      1.290942   100A      1.331323   101A      1.331508  
     102A      1.362420   103A      1.365023   104A      1.391034  
     105A      1.439542   106A      1.454180   107A      1.502312  
     108A      1.593008   109A      1.604828   110A      1.659552  
     111A      1.677661   112A      1.740782   113A      1.763646  
     114A      1.800822   115A      1.821714   116A      1.844067  
     117A      1.892200   118A      1.909803   119A      1.966092  
     120A      1.993069   121A      1.999414   122A      2.001307  
     123A      2.038469   124A      2.073646   125A      2.118171  
     126A      2.140130   127A      2.161125   128A      2.193716  
     129A      2.212502   130A      2.278396   131A      2.384215  
     132A      2.392324   133A      2.401295   134A      2.435562  
     135A      2.507636   136A      2.573445   137A      2.581503  
     138A      2.591053   139A      2.630162   140A      2.631952  
     141A      2.708237   142A      2.885884   143A      2.913048  
     144A      3.258073   145A      3.627782   146A      3.633181  
     147A      3.944771   148A      3.968960   149A      3.985970  
     150A      4.126896   151A      4.179483   152A      4.262623  
     153A      4.554294  

    Final Occupation by Irrep:
              A 
    DOCC [    32 ]

  Energy converged.

  @DF-RKS Final Energy:  -381.46184120449760

   => Energetics <=

    Nuclear Repulsion Energy =            415.8510539317762778
    One-Electron Energy =               -1327.0302550114865880
    Two-Electron Energy =                 574.1309154318265655
    DFT Exchange-Correlation Energy =     -44.4019350566139224
    Empirical Dispersion Energy =          -0.0116205000000000
    PCM Polarization Energy =               0.0000000000000000
    EFP Energy =                            0.0000000000000000
    Total Energy =                       -381.4618412044976594



Properties will be evaluated at   0.000000,   0.000000,   0.000000 Bohr

Properties computed using the SCF density matrix

  Nuclear Dipole Moment: (a.u.)
     X:     0.0000      Y:     0.0000      Z:    -1.6672

  Electronic Dipole Moment: (a.u.)
     X:    -0.0000      Y:    -0.0000      Z:    -0.9311

  Dipole Moment: (a.u.)
     X:    -0.0000      Y:     0.0000      Z:    -2.5983     Total:     2.5983

  Dipole Moment: (Debye)
     X:    -0.0000      Y:     0.0000      Z:    -6.6042     Total:     6.6042


*** tstop() called on computer03 at Fri Aug 11 18:22:23 2017
Module time:
	user time   =      96.74 seconds =       1.61 minutes
	system time =       1.60 seconds =       0.03 minutes
	total time  =         62 seconds =       1.03 minutes
Total time:
	user time   =      96.74 seconds =       1.61 minutes
	system time =       1.60 seconds =       0.03 minutes
	total time  =         62 seconds =       1.03 minutes

*** tstart() called on computer03
*** at Fri Aug 11 18:22:23 2017


         ------------------------------------------------------------
                                   SCF GRAD                          
                          Rob Parrish, Justin Turney,                
                       Andy Simmonett, and Alex Sokolov              
         ------------------------------------------------------------

  ==> Geometry <==

    Molecular point group: c1
    Full point group: C1

    Geometry (in Angstrom), charge = 1, multiplicity = 1:

       Center              X                  Y                   Z               Mass       
    ------------   -----------------  -----------------  -----------------  -----------------
           C         -0.000000041515     0.000000090787    -0.191639316978    12.000000000000
           C         -1.075252041515     0.576240090787     0.510390683022    12.000000000000
           C         -1.071842041515     0.569054090787     1.901669683022    12.000000000000
           C         -0.000000041515     0.000000090787     2.596332683022    12.000000000000
           C          1.071841958485    -0.569053909213     1.901669683022    12.000000000000
           C          1.075250958485    -0.576240909213     0.510390683022    12.000000000000
           C         -0.000000041515     0.000000090787    -1.658508316978    12.000000000000
           H         -1.929769041515     0.980953090787    -0.024627316978     1.007825032070
           H         -1.908398041515     0.997382090787     2.444111683022     1.007825032070
           H         -0.000000041515     0.000000090787     3.681981683022     1.007825032070
           H          1.908398958485    -0.997380909213     2.444111683022     1.007825032070
           H          1.929768958485    -0.980952909213    -0.024627316978     1.007825032070
           N         -0.712589041515    -0.905949909213    -2.322235316978    14.003074004780
           N          0.712589958485     0.905950090787    -2.322235316978    14.003074004780
           H          0.673431958485     1.006470090787    -3.329771316978     1.007825032070
           H          1.377189958485     1.485970090787    -1.827091316978     1.007825032070
           H         -1.377189041515    -1.485969909213    -1.827091316978     1.007825032070
           H         -0.673431041515    -1.006469909213    -3.329771316978     1.007825032070

  Nuclear repulsion =  415.851053931776278

  ==> Basis Set <==

  Basis Set: 6-31G*
    Blend: 6-31G*
    Number of shells: 72
    Number of basis function: 153
    Number of Cartesian functions: 153
    Spherical Harmonics?: false
    Max angular momentum: 2

  ==> DFJKGrad: Density-Fitted SCF Gradients <==

    Gradient:                    1
    J tasked:                  Yes
    K tasked:                  Yes
    wK tasked:                  No
    OpenMP threads:              8
    Integrals threads:           8
    Memory (MB):              1430
    Schwarz Cutoff:          0E+00
    Fitting Condition:       1E-12

   => Auxiliary Basis Set <=

  Basis Set: (6-31G* AUX)
    Blend: CC-PVDZ-JKFIT
    Number of shells: 297
    Number of basis function: 954
    Number of Cartesian functions: 954
    Spherical Harmonics?: false
    Max angular momentum: 3

  ==> DFT Potential <==

   => B3LYP Composite Functional <= 

    B3LYP Hybrid-GGA Exchange-Correlation Functional (VWN1-RPA)

    P.J. Stephens et. al., J. Phys. Chem., 98, 11623-11627, 1994

    Points   =           5000
    Deriv    =              1
    GGA      =           TRUE
    Meta     =          FALSE

    X_LRC        =          FALSE
    X_Hybrid     =           TRUE
    X_Alpha      =   2.000000E-01
    X_Omega      =   0.000000E+00
    C_LRC        =          FALSE
    C_Hybrid     =          FALSE
    C_Alpha      =   0.000000E+00
    C_Omega      =   0.000000E+00

   => Exchange Functionals <=

    0.8000    B3_X
    0.2000      HF 

   => Correlation Functionals <=

    0.1900 VWN3RPA_C
    0.8100   LYP_C

   => Molecular Quadrature <=

    Radial Scheme    =       TREUTLER
    Pruning Scheme   =           FLAT
    Nuclear Scheme   =       TREUTLER

    BS radius alpha  =              1
    Pruning alpha    =              1
    Radial Points    =             75
    Spherical Points =            302
    Total Points     =         397344
    Total Blocks     =            367
    Max Points       =           4926
    Max Functions    =            149


  -Total Gradient:
     Atom            X                  Y                   Z
    ------   -----------------  -----------------  -----------------
       1        0.000000373102    -0.000000010586    -0.016176428121
       2        0.002017189419     0.005013394716     0.005221351122
       3       -0.002092347467     0.001741381145    -0.002290497112
       4        0.000000063174    -0.000000041310     0.000169759528
       5        0.002092278758    -0.001741246209    -0.002290791100
       6       -0.002017868958    -0.005013429546     0.005221577915
       7       -0.000000371632    -0.000000298455     0.016148142960
       8       -0.001221429266    -0.002145125231     0.000867353318
       9       -0.000133679916    -0.000605613212     0.000185490283
      10       -0.000000023616    -0.000000020485     0.000015964831
      11        0.000133844682     0.000605597566     0.000185593847
      12        0.001221630217     0.002145097472     0.000867254966
      13       -0.000118887345    -0.005783204228    -0.003638634123
      14        0.000119231146     0.005783500867    -0.003638824426
      15       -0.002142933248     0.001504191320     0.001574171085
      16        0.002035096971    -0.002588573003    -0.002005620822
      17       -0.002035086280     0.002588588984    -0.002005586275
      18        0.002142920296    -0.001504189751     0.001574172962


*** tstop() called on computer03 at Fri Aug 11 18:22:35 2017
Module time:
	user time   =      24.60 seconds =       0.41 minutes
	system time =       0.38 seconds =       0.01 minutes
	total time  =         12 seconds =       0.20 minutes
Total time:
	user time   =     121.45 seconds =       2.02 minutes
	system time =       1.99 seconds =       0.03 minutes
	total time  =         74 seconds =       1.23 minutes

			-----------------------------------------
			 OPTKING 2.0: for geometry optimizations 
			  - R.A. King,  Bethel University        
			-----------------------------------------
	At level 1: Red. Int., RFO, no backsteps, dynamic trust

	Internal coordinates to be generated automatically.
	Detected frag 1 with atoms:  1 2 3 4 5 6 7 8 9 10 11 12 13 14 15 16 17 18
	---Fragment 1 Bond Connectivity---
	 1 : 2 6 7
	 2 : 1 3 8
	 3 : 2 4 9
	 4 : 3 5 10
	 5 : 4 6 11
	 6 : 1 5 12
	 7 : 1 13 14
	 8 : 2
	 9 : 3
	 10 : 4
	 11 : 5
	 12 : 6
	 13 : 7 17 18
	 14 : 7 15 16
	 15 : 14
	 16 : 14
	 17 : 13
	 18 : 13

	Assuming in current code that numbering for constraints corresponds to unified fragment.
	Frozen dihedral atom list: 
	     2     1     7    13
	---Fragment 1 Geometry and Gradient---
	 C          -0.0000000785        0.0000001716       -0.3621458254
	 C          -2.0319318823        1.0889359584        0.9644986117
	 C          -2.0254879162        1.0753563864        3.5936348961
	 C          -0.0000000785        0.0000001716        4.9063577208
	 C           2.0254877593       -1.0753560433        3.5936348961
	 C           2.0319298357       -1.0889375050        0.9644986117
	 C          -0.0000000785        0.0000001716       -3.1341265082
	 H          -3.6467349882        1.8537326908       -0.0465388845
	 H          -3.6063496510        1.8847790014        4.6187017191
	 H          -0.0000000785        0.0000001716        6.9579370072
	 H           3.6063513838       -1.8847767686        4.6187017191
	 H           3.6467348313       -1.8537323477       -0.0465388845
	 N          -1.3465981338       -1.7119972185       -4.3883887652
	 N           1.3465998666        1.7119975617       -4.3883887652
	 H           1.2726019707        1.9019528325       -6.2923558742
	 H           2.6025118545        2.8080765132       -3.4527022089
	 H          -2.6025101217       -2.8080761701       -3.4527022089
	 H          -1.2726002378       -1.9019524894       -6.2923558742
	             0.0000003731       -0.0000000106       -0.0161764281
	             0.0020171894        0.0050133947        0.0052213511
	            -0.0020923475        0.0017413811       -0.0022904971
	             0.0000000632       -0.0000000413        0.0001697595
	             0.0020922788       -0.0017412462       -0.0022907911
	            -0.0020178690       -0.0050134295        0.0052215779
	            -0.0000003716       -0.0000002985        0.0161481430
	            -0.0012214293       -0.0021451252        0.0008673533
	            -0.0001336799       -0.0006056132        0.0001854903
	            -0.0000000236       -0.0000000205        0.0000159648
	             0.0001338447        0.0006055976        0.0001855938
	             0.0012216302        0.0021450975        0.0008672550
	            -0.0001188873       -0.0057832042       -0.0036386341
	             0.0001192311        0.0057835009       -0.0036388244
	            -0.0021429332        0.0015041913        0.0015741711
	             0.0020350970       -0.0025885730       -0.0020056208
	            -0.0020350863        0.0025885890       -0.0020055863
	             0.0021429203       -0.0015041898        0.0015741730

	Previous optimization step data not found.  Starting new optimization.

	---Fragment 1 Intrafragment Coordinates---
	 - Coordinate -           - BOHR/RAD -       - ANG/DEG -
	 R(1,2)           =         2.659796	       1.407503
	 R(1,6)           =         2.659795	       1.407503
	 R(1,7)           =         2.771981	       1.466869
	 R(2,3)           =         2.629179	       1.391302
	 R(2,8)           =         2.052973	       1.086387
	 R(3,4)           =         2.642392	       1.398293
	 R(3,9)           =         2.050622	       1.085142
	 R(4,5)           =         2.642392	       1.398293
	 R(4,10)          =         2.051579	       1.085649
	 R(5,6)           =         2.629179	       1.391302
	 R(5,11)          =         2.050623	       1.085143
	 R(6,12)          =         2.052974	       1.086387
	 R(7,13)          =         2.513451	       1.330061
	 R(7,14)          =         2.513452	       1.330061
	 R(13,17)         =         1.911600	       1.011575
	 R(13,18)         =         1.914850	       1.013295
	 R(14,15)         =         1.914850	       1.013295
	 R(14,16)         =         1.911600	       1.011575
	 B(1,2,3)         =         2.088380	     119.655358
	 B(1,2,8)         =         2.103396	     120.515697
	 B(1,6,5)         =         2.088380	     119.655382
	 B(1,6,12)        =         2.103396	     120.515695
	 B(1,7,13)        =         2.093264	     119.935185
	 B(1,7,14)        =         2.093264	     119.935172
	 B(2,1,6)         =         2.097219	     120.161777
	 B(2,1,7)         =         2.092983	     119.919107
	 B(2,3,4)         =         2.095280	     120.050692
	 B(2,3,9)         =         2.089719	     119.732055
	 B(3,2,8)         =         2.090149	     119.756738
	 B(3,4,5)         =         2.101792	     120.423836
	 B(3,4,10)        =         2.090696	     119.788082
	 B(4,3,9)         =         2.098135	     120.214295
	 B(4,5,6)         =         2.095280	     120.050675
	 B(4,5,11)        =         2.098135	     120.214305
	 B(5,4,10)        =         2.090696	     119.788082
	 B(5,6,12)        =         2.090149	     119.756705
	 B(6,1,7)         =         2.092983	     119.919116
	 B(6,5,11)        =         2.089719	     119.732061
	 B(7,13,17)       =         2.092411	     119.886337
	 B(7,13,18)       =         2.144861	     122.891462
	 B(7,14,15)       =         2.144860	     122.891445
	 B(7,14,16)       =         2.092412	     119.886356
	 B(13,7,14)       =         2.096658	     120.129643
	 B(15,14,16)      =         2.043399	     117.078143
	 B(17,13,18)      =         2.043399	     117.078143
	 D(1,2,3,4)       =         0.007799	       0.446855
	 D(1,2,3,9)       =        -3.122897	    -178.928841
	 D(1,6,5,4)       =         0.007801	       0.446982
	 D(1,6,5,11)      =        -3.122895	    -178.928696
	 D(1,7,13,17)     =         0.187845	      10.762714
	 D(1,7,13,18)     =        -3.032164	    -173.730222
	 D(1,7,14,15)     =        -3.032164	    -173.730221
	 D(1,7,14,16)     =         0.187844	      10.762677
	 D(2,1,6,5)       =        -0.003909	      -0.223947
	 D(2,1,6,12)      =        -3.091438	    -177.126332
	*D(2,1,7,13)      =        -1.396263	     -80.000004
	 D(2,1,7,14)      =         1.745330	     100.000035
	 D(2,3,4,5)       =        -0.003943	      -0.225891
	 D(2,3,4,10)      =         3.137650	     179.774109
	 D(3,2,1,6)       =        -0.003905	      -0.223755
	 D(3,2,1,7)       =         3.137686	     179.776181
	 D(3,4,5,6)       =        -0.003944	      -0.225955
	 D(3,4,5,11)      =         3.126699	     179.146685
	 D(4,3,2,8)       =         3.095746	     177.373201
	 D(4,5,6,12)      =         3.095745	     177.373121
	 D(5,4,3,9)       =         3.126701	     179.146767
	 D(5,6,1,7)       =         3.137685	     179.776117
	 D(6,1,2,8)       =        -3.091438	    -177.126351
	 D(6,1,7,13)      =         1.745328	      99.999932
	 D(6,1,7,14)      =        -1.396264	     -80.000029
	 D(6,5,4,10)      =         3.137649	     179.774045
	 D(7,1,2,8)       =         0.050154	       2.873585
	 D(7,1,6,12)      =         0.050156	       2.873731
	 D(8,2,3,9)       =        -0.034950	      -2.002495
	 D(9,3,4,10)      =        -0.014892	      -0.853233
	 D(10,4,5,11)     =        -0.014893	      -0.853315
	 D(11,5,6,12)     =        -0.034951	      -2.002557
	 D(13,7,14,15)    =         0.109429	       6.269819
	 D(13,7,14,16)    =        -2.953748	    -169.237284
	 D(14,7,13,17)    =        -2.953749	    -169.237325
	 D(14,7,13,18)    =         0.109428	       6.269739

	Current energy   :      -381.4618412045

	Generating empirical Hessian (Schlegel '84) for each fragment.
	Taking RFO optimization step.
	Going to follow RFO solution 1.
	Using RFO vector 1.
	Norm of target step-size    0.34940
	Projected energy change by RFO approximation:        -0.0043983146

	Back-transformation to cartesian coordinates...
	Could not converge backtransformation.
	Using first guess instead.

	Back-transformation to cartesian coordinates to adjust frozen coordinates...
	Successfully converged to displaced geometry.

	--- Internal Coordinate Step in ANG or DEG, aJ/ANG or AJ/DEG ---
	 ---------------------------------------------------------------------------
	   Coordinate                Previous        Force       Change         New 
	   ----------                --------       ------       ------       ------
	    1 R(1,2)          =      1.407503    -0.032150    -0.004714     1.402789
	    2 R(1,6)          =      1.407503    -0.032149    -0.004591     1.402912
	    3 R(1,7)          =      1.466869     0.066024     0.011641     1.478510
	    4 R(2,3)          =      1.391302     0.016591     0.002318     1.393620
	    5 R(2,8)          =      1.086387     0.002191     0.001409     1.087796
	    6 R(3,4)          =      1.398293    -0.007497    -0.000908     1.397385
	    7 R(3,9)          =      1.085142     0.000353     0.000329     1.085472
	    8 R(4,5)          =      1.398293    -0.007498    -0.000908     1.397386
	    9 R(4,10)         =      1.085649    -0.000139    -0.000020     1.085629
	   10 R(5,6)          =      1.391302     0.016590     0.002265     1.393567
	   11 R(5,11)         =      1.085143     0.000351     0.000229     1.085372
	   12 R(6,12)         =      1.086387     0.002189     0.001363     1.087750
	   13 R(7,13)         =      1.330061    -0.043140    -0.004607     1.325454
	   14 R(7,14)         =      1.330061    -0.043144    -0.004495     1.325567
	   15 R(13,17)        =      1.011575     0.009298     0.006750     1.018325
	   16 R(13,18)        =      1.013295     0.010991     0.004300     1.017595
	   17 R(14,15)        =      1.013295     0.010991     0.004957     1.018251
	   18 R(14,16)        =      1.011575     0.009298     0.006766     1.018341
	   19 B(1,2,3)        =    119.655358    -0.000124    -0.412658   119.242699
	   20 B(1,2,8)        =    120.515697     0.000004    -0.034118   120.481579
	   21 B(1,6,5)        =    119.655382    -0.000124    -0.414469   119.240914
	   22 B(1,6,12)       =    120.515695     0.000004    -0.050964   120.464731
	   23 B(1,7,13)       =    119.935185    -0.000175    -0.518665   119.416520
	   24 B(1,7,14)       =    119.935172    -0.000175    -0.524489   119.410683
	   25 B(2,1,6)        =    120.161777     0.000250     0.698716   120.860493
	   26 B(2,1,7)        =    119.919107    -0.000125    -0.347243   119.571864
	   27 B(2,3,4)        =    120.050692     0.000022     0.108960   120.159652
	   28 B(2,3,9)        =    119.732055    -0.000030    -0.134770   119.597285
	   29 B(3,2,8)        =    119.756738     0.000126     0.514911   120.271649
	   30 B(3,4,5)        =    120.423836    -0.000046    -0.091704   120.332131
	   31 B(3,4,10)       =    119.788082     0.000023     0.046032   119.834114
	   32 B(4,3,9)        =    120.214295     0.000008     0.027877   120.242172
	   33 B(4,5,6)        =    120.050675     0.000022     0.109281   120.159955
	   34 B(4,5,11)       =    120.214305     0.000008     0.032540   120.246846
	   35 B(5,4,10)       =    119.788082     0.000023     0.045603   119.833685
	   36 B(5,6,12)       =    119.756705     0.000125     0.532445   120.289150
	   37 B(6,1,7)        =    119.919116    -0.000125    -0.355852   119.563264
	   38 B(6,5,11)       =    119.732061    -0.000030    -0.139330   119.592732
	   39 B(7,13,17)      =    119.886337    -0.000109    -0.619579   119.266758
	   40 B(7,13,18)      =    122.891462     0.000072     0.246755   123.138217
	   41 B(7,14,15)      =    122.891445     0.000072     0.268300   123.159745
	   42 B(7,14,16)      =    119.886356    -0.000109    -0.664104   119.222252
	   43 B(13,7,14)      =    120.129643     0.000349     1.038976   121.168619
	   44 B(15,14,16)     =    117.078143     0.000040     0.477946   117.556089
	   45 B(17,13,18)     =    117.078143     0.000040     0.454985   117.533128
	   46 D(1,2,3,4)      =      0.446855    -0.000006    -0.828863    -0.382009
	   47 D(1,2,3,9)      =   -178.928841    -0.000012    -1.795912  -180.724753
	   48 D(1,6,5,4)      =      0.446982    -0.000007    -1.112307    -0.665325
	   49 D(1,6,5,11)     =   -178.928696    -0.000013    -1.984578  -180.913274
	   50 D(1,7,13,17)    =     10.762714    -0.000049    -6.434207     4.328507
	   51 D(1,7,13,18)    =   -173.730222    -0.000037    -4.875502  -178.605724
	   52 D(1,7,14,15)    =   -173.730221    -0.000041    -5.601934  -179.332155
	   53 D(1,7,14,16)    =     10.762677    -0.000053    -7.160772     3.601905
	   54 D(2,1,6,5)      =     -0.223947     0.000005     0.845542     0.621595
	   55 D(2,1,6,12)     =   -177.126332    -0.000021    -3.079612  -180.205945
	   56 *D(2,1,7,13)    =    -80.000004    -0.000000     0.000000   -80.000004
	   57 D(2,1,7,14)     =    100.000035     0.000004     0.734716   100.734751
	   58 D(2,3,4,5)      =     -0.225891     0.000004     0.563974     0.338083
	   59 D(2,3,4,10)     =    179.774109     0.000003     0.467626   180.241735
	   60 D(3,2,1,6)      =     -0.223755     0.000002     0.125312    -0.098443
	   61 D(3,2,1,7)      =    179.776181     0.000005     0.889993   180.666173
	   62 D(3,4,5,6)      =     -0.225955     0.000003     0.419292     0.193337
	   63 D(3,4,5,11)     =    179.146685     0.000009     1.296235   180.442920
	   64 D(4,3,2,8)      =    177.373201     0.000019     2.975350   180.348551
	   65 D(4,5,6,12)     =    177.373121     0.000018     2.787609   180.160730
	   66 D(5,4,3,9)      =    179.146767     0.000010     1.536288   180.683055
	   67 D(5,6,1,7)      =    179.776117     0.000001     0.080927   179.857044
	   68 D(6,1,2,8)      =   -177.126351    -0.000024    -3.704223  -180.830574
	   69 D(6,1,7,13)     =     99.999932     0.000004     0.754665   100.754597
	   70 D(6,1,7,14)     =    -80.000029     0.000008     1.489381   -78.510648
	   71 D(6,5,4,10)     =    179.774045     0.000003     0.515639   180.289684
	   72 D(7,1,2,8)      =      2.873585    -0.000020    -2.939542    -0.065957
	   73 D(7,1,6,12)     =      2.873731    -0.000025    -3.844228    -0.970496
	   74 D(8,2,3,9)      =     -2.002495     0.000013     2.008301     0.005806
	   75 D(9,3,4,10)     =     -0.853233     0.000009     1.439940     0.586707
	   76 D(10,4,5,11)    =     -0.853315     0.000009     1.392583     0.539267
	   77 D(11,5,6,12)    =     -2.002557     0.000012     1.915338    -0.087219
	   78 D(13,7,14,15)   =      6.269819    -0.000037    -4.853973     1.415846
	   79 D(13,7,14,16)   =   -169.237284    -0.000049    -6.412811  -175.650094
	   80 D(14,7,13,17)   =   -169.237325    -0.000053    -7.182212  -176.419537
	   81 D(14,7,13,18)   =      6.269739    -0.000041    -5.623506     0.646233
	 ---------------------------------------------------------------------------
	Successfully symmetrized geometry.

  ==> Convergence Check <==

  Measures of convergence in internal coordinates in au.
  Criteria marked as inactive (o), active & met (*), and active & unmet ( ).
  --------------------------------------------------------------------------------------------- ~
   Step     Total Energy     Delta E     MAX Force     RMS Force      MAX Disp      RMS Disp    ~
  --------------------------------------------------------------------------------------------- ~
    Convergence Criteria    1.00e-06 *    3.00e-04 *             o    1.20e-03 *             o  ~
  --------------------------------------------------------------------------------------------- ~
      1    -381.46184120   -3.81e+02      8.01e-03      1.92e-03 o    1.25e-01      3.87e-02 o  ~
  ---------------------------------------------------------------------------------------------

	Writing optimization data to binary file.
	Structure for next step:
	Cartesian Geometry (in Angstrom)
	    C    -0.0063849140  -0.0049897072  -0.1884595170
	    C    -1.0842822009   0.5644671076   0.5055679481
	    C    -1.0713353590   0.5676356291   1.8991237926
	    C     0.0016971555   0.0015382030   2.5925360174
	    C     1.0721248798  -0.5651469338   1.8955863556
	    C     1.0784273907  -0.5658478162   0.5020341628
	    C    -0.0056215411   0.0009326585  -1.6669578060
	    H    -1.9159573997   1.0096759602  -0.0361009566
	    H    -1.8968242465   1.0173017131   2.4419102740
	    H     0.0044747482   0.0033952461   3.6781600274
	    H     1.9014589412  -1.0108691701   2.4355578217
	    H     1.9093480263  -1.0087136999  -0.0426128056
	    N    -0.7156424933  -0.9066247825  -2.3219685273
	    N     0.7167875609   0.9046492864  -2.3139111592
	    H     0.7512100940   0.9669109701  -3.3296741388
	    H     1.3032664952   1.5454794710  -1.7825008201
	    H    -1.3032556287  -1.5523102275  -1.7977681464
	    H    -0.7394892559  -0.9674822739  -3.3374622282
			--------------------------
			 OPTKING Finished Execution 
			--------------------------

    Structure for next step:
    Molecular point group: c1
    Full point group: C1

    Geometry (in Angstrom), charge = 1, multiplicity = 1:

    C           -0.005112021446    -0.004649601534    -0.186578558559
    C           -1.083009308348     0.564807213198     0.507448906578
    C           -1.070062466479     0.567975734723     1.901004751130
    C            0.002970047961     0.001878308650     2.594416975867
    C            1.073397772321    -0.564806828214     1.897467314059
    C            1.079700283179    -0.565507710525     0.503915121235
    C           -0.004348648570     0.001272764168    -1.665076847485
    H           -1.914684507226     1.010016065790    -0.034219998106
    H           -1.895551354012     1.017641818702     2.443791232496
    H            0.005747640748     0.003735351719     3.680040985863
    H            1.902731833683    -1.010529064470     2.437438780185
    H            1.910620918817    -1.008373594298    -0.040731847121
    N           -0.714369600825    -0.906284676842    -2.320087568817
    N            0.718060453424     0.904989392069    -2.312030200749
    H            0.752482986511     0.967251075763    -3.327793180337
    H            1.304539387667     1.545819576658    -1.780619861583
    H           -1.301982736201    -1.551970121851    -1.795887187915
    H           -0.738216363396    -0.967142168235    -3.335581269707

gradient() will perform analytic gradient computation.

*** tstart() called on computer03
*** at Fri Aug 11 18:22:35 2017

   => Loading Basis Set <=

    Name: 6-31G*
    Role: ORBITAL
    Keyword: BASIS
    atoms 1-7         entry C          line   102 file /home/raimis/opt/miniconda3/envs/htmd/share/psi4/basis/6-31gs.gbs 
    atoms 8-12, 15-18 entry H          line    35 file /home/raimis/opt/miniconda3/envs/htmd/share/psi4/basis/6-31gs.gbs 
    atoms 13-14       entry N          line   119 file /home/raimis/opt/miniconda3/envs/htmd/share/psi4/basis/6-31gs.gbs 


         ---------------------------------------------------------
                                   SCF
            by Justin Turney, Rob Parrish, and Andy Simmonett
                              RKS Reference
                        8 Threads,   1907 MiB Core
         ---------------------------------------------------------

  ==> Geometry <==

    Molecular point group: c1
    Full point group: C1

    Geometry (in Angstrom), charge = 1, multiplicity = 1:

       Center              X                  Y                   Z               Mass       
    ------------   -----------------  -----------------  -----------------  -----------------
           C         -0.005112021446    -0.004649601534    -0.186578558559    12.000000000000
           C         -1.083009308348     0.564807213198     0.507448906578    12.000000000000
           C         -1.070062466479     0.567975734723     1.901004751130    12.000000000000
           C          0.002970047961     0.001878308650     2.594416975867    12.000000000000
           C          1.073397772321    -0.564806828214     1.897467314059    12.000000000000
           C          1.079700283179    -0.565507710525     0.503915121235    12.000000000000
           C         -0.004348648570     0.001272764168    -1.665076847485    12.000000000000
           H         -1.914684507226     1.010016065790    -0.034219998106     1.007825032070
           H         -1.895551354012     1.017641818702     2.443791232496     1.007825032070
           H          0.005747640748     0.003735351719     3.680040985863     1.007825032070
           H          1.902731833683    -1.010529064470     2.437438780185     1.007825032070
           H          1.910620918817    -1.008373594298    -0.040731847121     1.007825032070
           N         -0.714369600825    -0.906284676842    -2.320087568817    14.003074004780
           N          0.718060453424     0.904989392069    -2.312030200749    14.003074004780
           H          0.752482986511     0.967251075763    -3.327793180337     1.007825032070
           H          1.304539387667     1.545819576658    -1.780619861583     1.007825032070
           H         -1.301982736201    -1.551970121851    -1.795887187915     1.007825032070
           H         -0.738216363396    -0.967142168235    -3.335581269707     1.007825032070

  Running in c1 symmetry.

  Rotational constants: A =      0.12183  B =      0.03689  C =      0.03338 [cm^-1]
  Rotational constants: A =   3652.46658  B =   1105.79747  C =   1000.57470 [MHz]
  Nuclear repulsion =  416.040610057753383

  Charge       = 1
  Multiplicity = 1
  Electrons    = 64
  Nalpha       = 32
  Nbeta        = 32

  ==> Algorithm <==

  SCF Algorithm Type is DF.
  DIIS enabled.
  MOM disabled.
  Fractional occupation disabled.
  Guess Type is READ.
  Energy threshold   = 1.00e-08
  Density threshold  = 1.00e-08
  Integral threshold = 0.00e+00

  ==> Primary Basis <==

  Basis Set: 6-31G*
    Blend: 6-31G*
    Number of shells: 72
    Number of basis function: 153
    Number of Cartesian functions: 153
    Spherical Harmonics?: false
    Max angular momentum: 2

  ==> DFT Potential <==

   => B3LYP Composite Functional <= 

    B3LYP Hybrid-GGA Exchange-Correlation Functional (VWN1-RPA)

    P.J. Stephens et. al., J. Phys. Chem., 98, 11623-11627, 1994

    Points   =           5000
    Deriv    =              1
    GGA      =           TRUE
    Meta     =          FALSE

    X_LRC        =          FALSE
    X_Hybrid     =           TRUE
    X_Alpha      =   2.000000E-01
    X_Omega      =   0.000000E+00
    C_LRC        =          FALSE
    C_Hybrid     =          FALSE
    C_Alpha      =   0.000000E+00
    C_Omega      =   0.000000E+00

   => Exchange Functionals <=

    0.8000    B3_X
    0.2000      HF 

   => Correlation Functionals <=

    0.1900 VWN3RPA_C
    0.8100   LYP_C

   => Molecular Quadrature <=

    Radial Scheme    =       TREUTLER
    Pruning Scheme   =           FLAT
    Nuclear Scheme   =       TREUTLER

    BS radius alpha  =              1
    Pruning alpha    =              1
    Radial Points    =             75
    Spherical Points =            302
    Total Points     =         397354
    Total Blocks     =            358
    Max Points       =           4991
    Max Functions    =            152

   => -D3ZERO: Empirical Dispersion <=

    Grimme's -D3 (zero-damping) Dispersion Correction
    Grimme S.; Antony J.; Ehrlich S.; Krieg H. (2010), J. Chem. Phys., 132: 154104

        S6 =   1.000000E+00
        S8 =   1.703000E+00
       SR6 =   1.261000E+00
    ALPHA6 =   1.400000E+01

   => Loading Basis Set <=

    Name: (6-31G* AUX)
    Role: JKFIT
    Keyword: DF_BASIS_SCF
    atoms 1-7         entry C          line   120 file /home/raimis/opt/miniconda3/envs/htmd/share/psi4/basis/cc-pvdz-jkfit.gbs 
    atoms 8-12, 15-18 entry H          line    50 file /home/raimis/opt/miniconda3/envs/htmd/share/psi4/basis/cc-pvdz-jkfit.gbs 
    atoms 13-14       entry N          line   170 file /home/raimis/opt/miniconda3/envs/htmd/share/psi4/basis/cc-pvdz-jkfit.gbs 

  Reading orbitals from file 180, no projection.

  ==> Pre-Iterations <==

   -------------------------------------------------------
    Irrep   Nso     Nmo     Nalpha   Nbeta   Ndocc  Nsocc
   -------------------------------------------------------
     A        153     153       0       0       0       0
   -------------------------------------------------------
    Total     153     153      32      32      32       0
   -------------------------------------------------------

  ==> Integral Setup <==

  ==> DFJK: Density-Fitted J/K Matrices <==

    J tasked:                  Yes
    K tasked:                  Yes
    wK tasked:                  No
    OpenMP threads:              8
    Integrals threads:           8
    Memory (MB):              1430
    Algorithm:                Core
    Integral Cache:           NONE
    Schwarz Cutoff:          1E-12
    Fitting Condition:       1E-12

   => Auxiliary Basis Set <=

  Basis Set: (6-31G* AUX)
    Blend: CC-PVDZ-JKFIT
    Number of shells: 297
    Number of basis function: 954
    Number of Cartesian functions: 954
    Spherical Harmonics?: false
    Max angular momentum: 3

  Minimum eigenvalue in the overlap matrix is 4.8483573100E-04.
  Using Symmetric Orthogonalization.

  SCF Guess: Orbitals guess was supplied from a previous computation.

  ==> Iterations <==

                           Total Energy        Delta E     RMS |[F,P]|

   @DF-RKS iter   0:  -381.45339020451115   -3.81453e+02   6.98208e-04 
   @DF-RKS iter   1:  -381.46399133792249   -1.06011e-02   1.03415e-04 
   @DF-RKS iter   2:  -381.46400889580923   -1.75579e-05   1.12345e-04 DIIS
   @DF-RKS iter   3:  -381.46406484634844   -5.59505e-05   3.67919e-05 DIIS
   @DF-RKS iter   4:  -381.46407432971574   -9.48337e-06   1.23274e-05 DIIS
   @DF-RKS iter   5:  -381.46407491734578   -5.87630e-07   6.22614e-06 DIIS
   @DF-RKS iter   6:  -381.46407504280268   -1.25457e-07   5.79218e-07 DIIS
   @DF-RKS iter   7:  -381.46407504447330   -1.67063e-09   2.49121e-07 DIIS
   @DF-RKS iter   8:  -381.46407504478060   -3.07296e-10   7.20296e-08 DIIS
   @DF-RKS iter   9:  -381.46407504479572   -1.51203e-11   3.86961e-08 DIIS
   @DF-RKS iter  10:  -381.46407504480305   -7.33280e-12   8.90982e-09 DIIS

  ==> Post-Iterations <==

    Orbital Energies (a.u.)
    -----------------------

    Doubly Occupied:                                                      

       1A    -14.576929     2A    -14.576918     3A    -10.503421  
       4A    -10.367932     5A    -10.348907     6A    -10.348852  
       7A    -10.333503     8A    -10.333299     9A    -10.332565  
      10A     -1.190021    11A     -1.097823    12A     -1.008769  
      13A     -0.922336    14A     -0.894746    15A     -0.844595  
      16A     -0.787678    17A     -0.764317    18A     -0.754287  
      19A     -0.727962    20A     -0.690356    21A     -0.666901  
      22A     -0.623437    23A     -0.616235    24A     -0.577267  
      25A     -0.573237    26A     -0.566902    27A     -0.515139  
      28A     -0.497111    29A     -0.490996    30A     -0.479257  
      31A     -0.404243    32A     -0.398073  

    Virtual:                                                              

      33A     -0.198463    34A     -0.161335    35A     -0.147844  
      36A     -0.116459    37A     -0.070910    38A     -0.065545  
      39A     -0.035620    40A     -0.031334    41A      0.009278  
      42A      0.014789    43A      0.024552    44A      0.055960  
      45A      0.059691    46A      0.073803    47A      0.139281  
      48A      0.148136    49A      0.164986    50A      0.188523  
      51A      0.200272    52A      0.214533    53A      0.292119  
      54A      0.341546    55A      0.357520    56A      0.381851  
      57A      0.391213    58A      0.399357    59A      0.403326  
      60A      0.426990    61A      0.442208    62A      0.452711  
      63A      0.454286    64A      0.464574    65A      0.477610  
      66A      0.480853    67A      0.481529    68A      0.495505  
      69A      0.515612    70A      0.529425    71A      0.561395  
      72A      0.576046    73A      0.592926    74A      0.635895  
      75A      0.664026    76A      0.676023    77A      0.677458  
      78A      0.679611    79A      0.699360    80A      0.711900  
      81A      0.732203    82A      0.749864    83A      0.779995  
      84A      0.790066    85A      0.813228    86A      0.834118  
      87A      0.852897    88A      0.941618    89A      0.967879  
      90A      1.008354    91A      1.022277    92A      1.027351  
      93A      1.032234    94A      1.087706    95A      1.140671  
      96A      1.187347    97A      1.207799    98A      1.292604  
      99A      1.302302   100A      1.326182   101A      1.332524  
     102A      1.361789   103A      1.362250   104A      1.387741  
     105A      1.440234   106A      1.460405   107A      1.504965  
     108A      1.586954   109A      1.590829   110A      1.664037  
     111A      1.675569   112A      1.742098   113A      1.769265  
     114A      1.796070   115A      1.822804   116A      1.850234  
     117A      1.898604   118A      1.914166   119A      1.970703  
     120A      1.993572   121A      1.998259   122A      2.001889  
     123A      2.041409   124A      2.082574   125A      2.123857  
     126A      2.143435   127A      2.151438   128A      2.176895  
     129A      2.221023   130A      2.283177   131A      2.379883  
     132A      2.398816   133A      2.405125   134A      2.435721  
     135A      2.509009   136A      2.572083   137A      2.575985  
     138A      2.593742   139A      2.629891   140A      2.633469  
     141A      2.706777   142A      2.889071   143A      2.912393  
     144A      3.261037   145A      3.632664   146A      3.634583  
     147A      3.945608   148A      3.968245   149A      3.987553  
     150A      4.123731   151A      4.180147   152A      4.263109  
     153A      4.555031  

    Final Occupation by Irrep:
              A 
    DOCC [    32 ]

  Energy converged.

  @DF-RKS Final Energy:  -381.46407504480305

   => Energetics <=

    Nuclear Repulsion Energy =            416.0406100577533834
    One-Electron Energy =               -1327.4399352141772397
    Two-Electron Energy =                 574.3442350777141883
    DFT Exchange-Correlation Energy =     -44.3973331060933560
    Empirical Dispersion Energy =          -0.0116518600000000
    PCM Polarization Energy =               0.0000000000000000
    EFP Energy =                            0.0000000000000000
    Total Energy =                       -381.4640750448029962



Properties will be evaluated at   0.000000,   0.000000,   0.000000 Bohr

Properties computed using the SCF density matrix

  Nuclear Dipole Moment: (a.u.)
     X:     0.0241      Y:     0.0060      Z:    -1.6305

  Electronic Dipole Moment: (a.u.)
     X:    -0.0185      Y:    -0.0051      Z:    -0.9581

  Dipole Moment: (a.u.)
     X:     0.0056      Y:     0.0010      Z:    -2.5886     Total:     2.5886

  Dipole Moment: (Debye)
     X:     0.0142      Y:     0.0025      Z:    -6.5795     Total:     6.5796


*** tstop() called on computer03 at Fri Aug 11 18:23:26 2017
Module time:
	user time   =      75.08 seconds =       1.25 minutes
	system time =       1.10 seconds =       0.02 minutes
	total time  =         51 seconds =       0.85 minutes
Total time:
	user time   =     196.94 seconds =       3.28 minutes
	system time =       3.11 seconds =       0.05 minutes
	total time  =        125 seconds =       2.08 minutes

*** tstart() called on computer03
*** at Fri Aug 11 18:23:26 2017


         ------------------------------------------------------------
                                   SCF GRAD                          
                          Rob Parrish, Justin Turney,                
                       Andy Simmonett, and Alex Sokolov              
         ------------------------------------------------------------

  ==> Geometry <==

    Molecular point group: c1
    Full point group: C1

    Geometry (in Angstrom), charge = 1, multiplicity = 1:

       Center              X                  Y                   Z               Mass       
    ------------   -----------------  -----------------  -----------------  -----------------
           C         -0.005112021446    -0.004649601534    -0.186578558559    12.000000000000
           C         -1.083009308348     0.564807213198     0.507448906578    12.000000000000
           C         -1.070062466479     0.567975734723     1.901004751130    12.000000000000
           C          0.002970047961     0.001878308650     2.594416975867    12.000000000000
           C          1.073397772321    -0.564806828214     1.897467314059    12.000000000000
           C          1.079700283179    -0.565507710525     0.503915121235    12.000000000000
           C         -0.004348648570     0.001272764168    -1.665076847485    12.000000000000
           H         -1.914684507226     1.010016065790    -0.034219998106     1.007825032070
           H         -1.895551354012     1.017641818702     2.443791232496     1.007825032070
           H          0.005747640748     0.003735351719     3.680040985863     1.007825032070
           H          1.902731833683    -1.010529064470     2.437438780185     1.007825032070
           H          1.910620918817    -1.008373594298    -0.040731847121     1.007825032070
           N         -0.714369600825    -0.906284676842    -2.320087568817    14.003074004780
           N          0.718060453424     0.904989392069    -2.312030200749    14.003074004780
           H          0.752482986511     0.967251075763    -3.327793180337     1.007825032070
           H          1.304539387667     1.545819576658    -1.780619861583     1.007825032070
           H         -1.301982736201    -1.551970121851    -1.795887187915     1.007825032070
           H         -0.738216363396    -0.967142168235    -3.335581269707     1.007825032070

  Nuclear repulsion =  416.040610057753440

  ==> Basis Set <==

  Basis Set: 6-31G*
    Blend: 6-31G*
    Number of shells: 72
    Number of basis function: 153
    Number of Cartesian functions: 153
    Spherical Harmonics?: false
    Max angular momentum: 2

  ==> DFJKGrad: Density-Fitted SCF Gradients <==

    Gradient:                    1
    J tasked:                  Yes
    K tasked:                  Yes
    wK tasked:                  No
    OpenMP threads:              8
    Integrals threads:           8
    Memory (MB):              1430
    Schwarz Cutoff:          0E+00
    Fitting Condition:       1E-12

   => Auxiliary Basis Set <=

  Basis Set: (6-31G* AUX)
    Blend: CC-PVDZ-JKFIT
    Number of shells: 297
    Number of basis function: 954
    Number of Cartesian functions: 954
    Spherical Harmonics?: false
    Max angular momentum: 3

  ==> DFT Potential <==

   => B3LYP Composite Functional <= 

    B3LYP Hybrid-GGA Exchange-Correlation Functional (VWN1-RPA)

    P.J. Stephens et. al., J. Phys. Chem., 98, 11623-11627, 1994

    Points   =           5000
    Deriv    =              1
    GGA      =           TRUE
    Meta     =          FALSE

    X_LRC        =          FALSE
    X_Hybrid     =           TRUE
    X_Alpha      =   2.000000E-01
    X_Omega      =   0.000000E+00
    C_LRC        =          FALSE
    C_Hybrid     =          FALSE
    C_Alpha      =   0.000000E+00
    C_Omega      =   0.000000E+00

   => Exchange Functionals <=

    0.8000    B3_X
    0.2000      HF 

   => Correlation Functionals <=

    0.1900 VWN3RPA_C
    0.8100   LYP_C

   => Molecular Quadrature <=

    Radial Scheme    =       TREUTLER
    Pruning Scheme   =           FLAT
    Nuclear Scheme   =       TREUTLER

    BS radius alpha  =              1
    Pruning alpha    =              1
    Radial Points    =             75
    Spherical Points =            302
    Total Points     =         397354
    Total Blocks     =            358
    Max Points       =           4991
    Max Functions    =            152


  -Total Gradient:
     Atom            X                  Y                   Z
    ------   -----------------  -----------------  -----------------
       1       -0.000036607899    -0.001168129595    -0.004427130682
       2        0.001583451134     0.000347783947     0.001617973641
       3       -0.000180938826    -0.000162603215    -0.000661494332
       4        0.000015973512    -0.000068192075     0.000433509239
       5        0.000236517947     0.000168843825    -0.000575818069
       6       -0.001281187840     0.000153990982     0.001758484213
       7       -0.001221923951     0.001197489104     0.005150521852
       8       -0.000671953636     0.000455383378    -0.000384327280
       9        0.000058280713     0.000265079924     0.000096346172
      10        0.000005592684     0.000012618422     0.000050631705
      11       -0.000109827130    -0.000233959176     0.000063000173
      12        0.000675497865    -0.000351937101    -0.000388343568
      13        0.004171014817     0.000122415598    -0.001435326907
      14       -0.003487179313    -0.000573790197    -0.001121319829
      15       -0.001267160559     0.000257511597    -0.003001604616
      16        0.004042427634     0.002008832865     0.002665536032
      17       -0.003919159093    -0.002184507147     0.002571175887
      18        0.001386122020    -0.000246785255    -0.002419559434


*** tstop() called on computer03 at Fri Aug 11 18:23:38 2017
Module time:
	user time   =      23.08 seconds =       0.38 minutes
	system time =       0.37 seconds =       0.01 minutes
	total time  =         12 seconds =       0.20 minutes
Total time:
	user time   =     220.18 seconds =       3.67 minutes
	system time =       3.49 seconds =       0.06 minutes
	total time  =        137 seconds =       2.28 minutes

			-----------------------------------------
			 OPTKING 2.0: for geometry optimizations 
			  - R.A. King,  Bethel University        
			-----------------------------------------
	At level 1: Red. Int., RFO, no backsteps, dynamic trust

	Previous internal coordinate definitions found.
	---Fragment 1 Geometry and Gradient---
	 C          -0.0096603205       -0.0087864735       -0.3525823779
	 C          -2.0465909921        1.0673309508        0.9589394599
	 C          -2.0221250067        1.0733185888        3.5923783569
	 C           0.0056125772        0.0035494889        4.9027375589
	 C           2.0284278213       -1.0673302233        3.5856935697
	 C           2.0403378408       -1.0686546989        0.9522615734
	 C          -0.0082177548        0.0024051757       -3.1465392320
	 H          -3.6182293495        1.9086537542       -0.0646664247
	 H          -3.5820729299        1.9230643387        4.6180961554
	 H           0.0108614669        0.0070587918        6.9542696211
	 H           3.5956420700       -1.9096231812        4.6060917602
	 H           3.6105502803       -1.9055499329       -0.0769720359
	 N          -1.3499629032       -1.7126298377       -4.3843301094
	 N           1.3569376038        1.7101821042       -4.3691038904
	 H           1.4219867642        1.8278396349       -6.2886177377
	 H           2.4652221723        2.9211756507       -3.3648838852
	 H          -2.4603908012       -2.9327984967       -3.3937349507
	 H          -1.3950267536       -1.8276338295       -6.3033350937
	            -0.0000366079       -0.0011681296       -0.0044271307
	             0.0015834511        0.0003477839        0.0016179736
	            -0.0001809388       -0.0001626032       -0.0006614943
	             0.0000159735       -0.0000681921        0.0004335092
	             0.0002365179        0.0001688438       -0.0005758181
	            -0.0012811878        0.0001539910        0.0017584842
	            -0.0012219240        0.0011974891        0.0051505219
	            -0.0006719536        0.0004553834       -0.0003843273
	             0.0000582807        0.0002650799        0.0000963462
	             0.0000055927        0.0000126184        0.0000506317
	            -0.0001098271       -0.0002339592        0.0000630002
	             0.0006754979       -0.0003519371       -0.0003883436
	             0.0041710148        0.0001224156       -0.0014353269
	            -0.0034871793       -0.0005737902       -0.0011213198
	            -0.0012671606        0.0002575116       -0.0030016046
	             0.0040424276        0.0020088329        0.0026655360
	            -0.0039191591       -0.0021845071        0.0025711759
	             0.0013861220       -0.0002467853       -0.0024195594

	---Fragment 1 Intrafragment Coordinates---
	 - Coordinate -           - BOHR/RAD -       - ANG/DEG -
	 R(1,2)           =         2.650888	       1.402789
	 R(1,6)           =         2.651119	       1.402912
	 R(1,7)           =         2.793980	       1.478510
	 R(2,3)           =         2.633559	       1.393620
	 R(2,8)           =         2.055636	       1.087796
	 R(3,4)           =         2.640675	       1.397385
	 R(3,9)           =         2.051244	       1.085472
	 R(4,5)           =         2.640676	       1.397386
	 R(4,10)          =         2.051542	       1.085629
	 R(5,6)           =         2.633459	       1.393567
	 R(5,11)          =         2.051056	       1.085372
	 R(6,12)          =         2.055549	       1.087750
	 R(7,13)          =         2.504746	       1.325454
	 R(7,14)          =         2.504958	       1.325567
	 R(13,17)         =         1.924355	       1.018325
	 R(13,18)         =         1.922976	       1.017595
	 R(14,15)         =         1.924216	       1.018251
	 R(14,16)         =         1.924385	       1.018341
	 B(1,2,3)         =         2.081178	     119.242699
	 B(1,2,8)         =         2.102800	     120.481579
	 B(1,6,5)         =         2.081147	     119.240914
	 B(1,6,12)        =         2.102506	     120.464731
	 B(1,7,13)        =         2.084211	     119.416520
	 B(1,7,14)        =         2.084110	     119.410683
	 B(2,1,6)         =         2.109414	     120.860493
	 B(2,1,7)         =         2.086923	     119.571864
	 B(2,3,4)         =         2.097182	     120.159652
	 B(2,3,9)         =         2.087366	     119.597285
	 B(3,2,8)         =         2.099136	     120.271649
	 B(3,4,5)         =         2.100192	     120.332131
	 B(3,4,10)        =         2.091500	     119.834114
	 B(4,3,9)         =         2.098622	     120.242172
	 B(4,5,6)         =         2.097187	     120.159955
	 B(4,5,11)        =         2.098703	     120.246846
	 B(5,4,10)        =         2.091492	     119.833685
	 B(5,6,12)        =         2.099442	     120.289150
	 B(6,1,7)         =         2.086773	     119.563264
	 B(6,5,11)        =         2.087287	     119.592732
	 B(7,13,17)       =         2.081598	     119.266758
	 B(7,13,18)       =         2.149167	     123.138217
	 B(7,14,15)       =         2.149543	     123.159745
	 B(7,14,16)       =         2.080821	     119.222252
	 B(13,7,14)       =         2.114791	     121.168619
	 B(15,14,16)      =         2.051741	     117.556089
	 B(17,13,18)      =         2.051340	     117.533128
	 D(1,2,3,4)       =        -0.006667	      -0.382009
	 D(1,2,3,9)       =         3.128943	     179.275247
	 D(1,6,5,4)       =        -0.011612	      -0.665325
	 D(1,6,5,11)      =         3.125653	     179.086726
	 D(1,7,13,17)     =         0.075547	       4.328507
	 D(1,7,13,18)     =        -3.117258	    -178.605724
	 D(1,7,14,15)     =        -3.129937	    -179.332155
	 D(1,7,14,16)     =         0.062865	       3.601905
	 D(2,1,6,5)       =         0.010849	       0.621595
	 D(2,1,6,12)      =         3.137998	     179.794055
	*D(2,1,7,13)      =        -1.396263	     -80.000004
	 D(2,1,7,14)      =         1.758153	     100.734751
	 D(2,3,4,5)       =         0.005901	       0.338083
	 D(2,3,4,10)      =        -3.137374	    -179.758265
	 D(3,2,1,6)       =        -0.001718	      -0.098443
	 D(3,2,1,7)       =        -3.129966	    -179.333827
	 D(3,4,5,6)       =         0.003374	       0.193337
	 D(3,4,5,11)      =        -3.133862	    -179.557080
	 D(4,3,2,8)       =        -3.135509	    -179.651449
	 D(4,5,6,12)      =        -3.138787	    -179.839270
	 D(5,4,3,9)       =        -3.129671	    -179.316945
	 D(5,6,1,7)       =         3.139098	     179.857044
	 D(6,1,2,8)       =         3.127096	     179.169426
	 D(6,1,7,13)      =         1.758499	     100.754597
	 D(6,1,7,14)      =        -1.370269	     -78.510648
	 D(6,5,4,10)      =        -3.136537	    -179.710316
	 D(7,1,2,8)       =        -0.001151	      -0.065957
	 D(7,1,6,12)      =        -0.016938	      -0.970496
	 D(8,2,3,9)       =         0.000101	       0.005806
	 D(9,3,4,10)      =         0.010240	       0.586707
	 D(10,4,5,11)     =         0.009412	       0.539267
	 D(11,5,6,12)     =        -0.001522	      -0.087219
	 D(13,7,14,15)    =         0.024711	       1.415846
	 D(13,7,14,16)    =        -3.065672	    -175.650094
	 D(14,7,13,17)    =        -3.079102	    -176.419537
	 D(14,7,13,18)    =         0.011279	       0.646233

	Current energy   :      -381.4640750448

	Energy change for the previous step:
		Projected    :        -0.0043983146
		Actual       :        -0.0022338403

	Performing BFGS update.
	Previous computed or guess Hessian on step 1.
	Steps to be used in Hessian update: 1
	Taking RFO optimization step.
	Going to follow RFO solution 1.
	Using RFO vector 1.
	Norm of target step-size    0.23242
	Projected energy change by RFO approximation:         0.0002391497

	Back-transformation to cartesian coordinates...
	Could not converge backtransformation.
	Using first guess instead.

	Back-transformation to cartesian coordinates to adjust frozen coordinates...
	Successfully converged to displaced geometry.

	--- Internal Coordinate Step in ANG or DEG, aJ/ANG or AJ/DEG ---
	 ---------------------------------------------------------------------------
	   Coordinate                Previous        Force       Change         New 
	   ----------                --------       ------       ------       ------
	    1 R(1,2)          =      1.402789    -0.002853    -0.001088     1.401702
	    2 R(1,6)          =      1.402912    -0.003499    -0.001062     1.401849
	    3 R(1,7)          =      1.478510     0.019857     0.006197     1.484707
	    4 R(2,3)          =      1.393620     0.002464     0.000776     1.394395
	    5 R(2,8)          =      1.087796    -0.007343    -0.001269     1.086527
	    6 R(3,4)          =      1.397385    -0.000094    -0.000067     1.397318
	    7 R(3,9)          =      1.085472    -0.000938    -0.000083     1.085389
	    8 R(4,5)          =      1.397386     0.000420    -0.000011     1.397374
	    9 R(4,10)         =      1.085629    -0.000421    -0.000070     1.085559
	   10 R(5,6)          =      1.393567     0.002430     0.000784     1.394350
	   11 R(5,11)         =      1.085372    -0.000360     0.000147     1.085519
	   12 R(6,12)         =      1.087750    -0.007032    -0.001202     1.086547
	   13 R(7,13)         =      1.325454    -0.011014    -0.002027     1.323427
	   14 R(7,14)         =      1.325567    -0.012169    -0.001632     1.323935
	   15 R(13,17)        =      1.018325    -0.040948    -0.003583     1.014741
	   16 R(13,18)        =      1.017595    -0.019744    -0.000988     1.016608
	   17 R(14,15)        =      1.018251    -0.024442    -0.000897     1.017355
	   18 R(14,16)        =      1.018341    -0.041059    -0.002966     1.015374
	   19 B(1,2,3)        =    119.242699    -0.000044    -0.233581   119.009118
	   20 B(1,2,8)        =    120.481579     0.000017     0.054465   120.536044
	   21 B(1,6,5)        =    119.240914    -0.000047    -0.246002   118.994912
	   22 B(1,6,12)       =    120.464731     0.000020     0.065176   120.529907
	   23 B(1,7,13)       =    119.416520    -0.000077    -0.373738   119.042781
	   24 B(1,7,14)       =    119.410683    -0.000090    -0.449196   118.961487
	   25 B(2,1,6)        =    120.860493     0.000083     0.404652   121.265145
	   26 B(2,1,7)        =    119.571864    -0.000032    -0.181043   119.390821
	   27 B(2,3,4)        =    120.159652    -0.000011    -0.030293   120.129358
	   28 B(2,3,9)        =    119.597285     0.000002    -0.016386   119.580898
	   29 B(3,2,8)        =    120.271649     0.000027     0.182093   120.453742
	   30 B(3,4,5)        =    120.332131     0.000027     0.118666   120.450797
	   31 B(3,4,10)       =    119.834114    -0.000013    -0.056969   119.777145
	   32 B(4,3,9)        =    120.242172     0.000009     0.047208   120.289380
	   33 B(4,5,6)        =    120.159955    -0.000008    -0.020723   120.139233
	   34 B(4,5,11)       =    120.246846     0.000008     0.040240   120.287086
	   35 B(5,4,10)       =    119.833685    -0.000013    -0.062053   119.771632
	   36 B(5,6,12)       =    120.289150     0.000027     0.180908   120.470059
	   37 B(6,1,7)        =    119.563264    -0.000052    -0.272031   119.291233
	   38 B(6,5,11)       =    119.592732     0.000000    -0.019130   119.573602
	   39 B(7,13,17)      =    119.266758    -0.000028    -0.381640   118.885118
	   40 B(7,13,18)      =    123.138217     0.000075     0.463948   123.602165
	   41 B(7,14,15)      =    123.159745     0.000070     0.488138   123.647883
	   42 B(7,14,16)      =    119.222252    -0.000021    -0.420028   118.802224
	   43 B(13,7,14)      =    121.168619     0.000167     0.801940   121.970559
	   44 B(15,14,16)     =    117.556089    -0.000048    -0.016030   117.540059
	   45 B(17,13,18)     =    117.533128    -0.000046    -0.048291   117.484837
	   46 D(1,2,3,4)      =     -0.382009     0.000003     0.634503     0.252494
	   47 D(1,2,3,9)      =    179.275247     0.000004     0.758519   180.033765
	   48 D(1,6,5,4)      =     -0.665325     0.000000    -0.065837    -0.731162
	   49 D(1,6,5,11)     =    179.086726     0.000002     0.284341   179.371067
	   50 D(1,7,13,17)    =      4.328507    -0.000019    -4.102039     0.226468
	   51 D(1,7,13,18)    =   -178.605724    -0.000015    -3.139166  -181.744889
	   52 D(1,7,14,15)    =   -179.332155    -0.000017    -3.975289  -183.307444
	   53 D(1,7,14,16)    =      3.601905    -0.000026    -5.739001    -2.137096
	   54 D(2,1,6,5)      =      0.621595     0.000002     0.684036     1.305631
	   55 D(2,1,6,12)     =    179.794055     0.000003     0.692125   180.486180
	   56 *D(2,1,7,13)    =    -80.000004    -0.000000     0.000000   -80.000004
	   57 D(2,1,7,14)     =    100.734751     0.000003     1.053786   101.788536
	   58 D(2,3,4,5)      =      0.338083    -0.000000    -0.035388     0.302695
	   59 D(2,3,4,10)     =   -179.758265    -0.000001    -0.176906  -179.935171
	   60 D(3,2,1,6)      =     -0.098443    -0.000003    -0.968134    -1.066577
	   61 D(3,2,1,7)      =   -179.333827     0.000003     0.928978  -178.404849
	   62 D(3,4,5,6)      =      0.193337    -0.000001    -0.252399    -0.059062
	   63 D(3,4,5,11)     =   -179.557080    -0.000003    -0.604947  -180.162027
	   64 D(4,3,2,8)      =   -179.651449     0.000000     0.282731  -179.368718
	   65 D(4,5,6,12)     =   -179.839270    -0.000001    -0.072946  -179.912216
	   66 D(5,4,3,9)      =   -179.316945    -0.000001    -0.160068  -179.477013
	   67 D(5,6,1,7)      =    179.857044    -0.000004    -1.210540   178.646504
	   68 D(6,1,2,8)      =    179.169426    -0.000001    -0.615112   178.554315
	   69 D(6,1,7,13)     =    100.754597     0.000006     1.854080   102.608676
	   70 D(6,1,7,14)     =    -78.510648     0.000009     2.907865   -75.602783
	   71 D(6,5,4,10)     =   -179.710316    -0.000001    -0.110894  -179.821209
	   72 D(7,1,2,8)      =     -0.065957     0.000005     1.282000     1.216043
	   73 D(7,1,6,12)     =     -0.970496    -0.000003    -1.202450    -2.172946
	   74 D(8,2,3,9)      =      0.005806     0.000001     0.406747     0.412553
	   75 D(9,3,4,10)     =      0.586707    -0.000002    -0.301586     0.285121
	   76 D(10,4,5,11)    =      0.539267    -0.000002    -0.463442     0.075826
	   77 D(11,5,6,12)    =     -0.087219     0.000001     0.277232     0.190013
	   78 D(13,7,14,15)   =      1.415846    -0.000014    -2.880047    -1.464201
	   79 D(13,7,14,16)   =   -175.650094    -0.000022    -4.643758  -180.293853
	   80 D(14,7,13,17)   =   -176.419537    -0.000023    -5.198690  -181.618226
	   81 D(14,7,13,18)   =      0.646233    -0.000018    -4.235816    -3.589583
	 ---------------------------------------------------------------------------
	Successfully symmetrized geometry.

  ==> Convergence Check <==

  Measures of convergence in internal coordinates in au.
  Criteria marked as inactive (o), active & met (*), and active & unmet ( ).
  ---------------------------------------------------------------------------------------------
   Step     Total Energy     Delta E     MAX Force     RMS Force      MAX Disp      RMS Disp   
  ---------------------------------------------------------------------------------------------
    Convergence Criteria    1.00e-06 *    3.00e-04 *             o    1.20e-03 *             o
  ---------------------------------------------------------------------------------------------
      2    -381.46407504   -2.23e-03      4.98e-03      1.11e-03 o    1.00e-01      2.57e-02 o  ~
  ---------------------------------------------------------------------------------------------

	Writing optimization data to binary file.
	Structure for next step:
	Cartesian Geometry (in Angstrom)
	    C    -0.0182401851  -0.0197815961  -0.1860174451
	    C    -1.0915784453   0.5583381219   0.5057124456
	    C    -1.0721574557   0.5656939514   1.8999529036
	    C     0.0076077851   0.0076855080   2.5893236283
	    C     1.0786449462  -0.5560215743   1.8909192128
	    C     1.0771259542  -0.5669299387   0.4966122125
	    C    -0.0130871763  -0.0005512439  -1.6705909239
	    H    -1.9236638651   0.9998748957  -0.0357858437
	    H    -1.8987299717   1.0104275780   2.4449840258
	    H     0.0163236843   0.0155695522   3.6748189061
	    H     1.9173421745  -0.9864392649   2.4291380692
	    H     1.9064481241  -1.0051001234  -0.0518556328
	    N    -0.7347218802  -0.8947289327  -2.3272105706
	    N     0.7417009475   0.8882496430  -2.2975936904
	    H     0.8368048247   0.9333236479  -3.3094900036
	    H     1.2723834868   1.5554031684  -1.7459896370
	    H    -1.2772915604  -1.5702278887  -1.7989881356
	    H    -0.8019970698  -0.9286619685  -3.3410219743
			--------------------------
			 OPTKING Finished Execution 
			--------------------------

    Structure for next step:
    Molecular point group: c1
    Full point group: C1

    Geometry (in Angstrom), charge = 1, multiplicity = 1:

    C           -0.016303443227    -0.018087027914    -0.184379702676
    C           -1.089641703400     0.560032690078     0.507350188001
    C           -1.070220713846     0.567388519560     1.901590645954
    C            0.009544526968     0.009380076191     2.590961370723
    C            1.080581688098    -0.554327006102     1.892556955165
    C            1.079062696121    -0.565235370497     0.498249954904
    C           -0.011150434383     0.001143324308    -1.668953181459
    H           -1.921727123169     1.001569463827    -0.034148101260
    H           -1.896793229830     1.012122146123     2.446621768167
    H            0.018260426230     0.017264120331     3.676456648506
    H            1.919278916375    -0.984744696727     2.430775811607
    H            1.908384866046    -1.003405555199    -0.050217890447
    N           -0.732785138271    -0.893034364517    -2.325572828167
    N            0.743637689445     0.889944211173    -2.295955947965
    H            0.838741566607     0.935018216064    -3.307852261195
    H            1.274320228666     1.557097736553    -1.744351894558
    H           -1.275354818542    -1.568533320509    -1.797350393179
    H           -0.800060327875    -0.926967400312    -3.339384231952

gradient() will perform analytic gradient computation.

*** tstart() called on computer03
*** at Fri Aug 11 18:23:38 2017

   => Loading Basis Set <=

    Name: 6-31G*
    Role: ORBITAL
    Keyword: BASIS
    atoms 1-7         entry C          line   102 file /home/raimis/opt/miniconda3/envs/htmd/share/psi4/basis/6-31gs.gbs 
    atoms 8-12, 15-18 entry H          line    35 file /home/raimis/opt/miniconda3/envs/htmd/share/psi4/basis/6-31gs.gbs 
    atoms 13-14       entry N          line   119 file /home/raimis/opt/miniconda3/envs/htmd/share/psi4/basis/6-31gs.gbs 


         ---------------------------------------------------------
                                   SCF
            by Justin Turney, Rob Parrish, and Andy Simmonett
                              RKS Reference
                        8 Threads,   1907 MiB Core
         ---------------------------------------------------------

  ==> Geometry <==

    Molecular point group: c1
    Full point group: C1

    Geometry (in Angstrom), charge = 1, multiplicity = 1:

       Center              X                  Y                   Z               Mass       
    ------------   -----------------  -----------------  -----------------  -----------------
           C         -0.016303443227    -0.018087027914    -0.184379702676    12.000000000000
           C         -1.089641703400     0.560032690078     0.507350188001    12.000000000000
           C         -1.070220713846     0.567388519560     1.901590645954    12.000000000000
           C          0.009544526968     0.009380076191     2.590961370723    12.000000000000
           C          1.080581688098    -0.554327006102     1.892556955165    12.000000000000
           C          1.079062696121    -0.565235370497     0.498249954904    12.000000000000
           C         -0.011150434383     0.001143324308    -1.668953181459    12.000000000000
[...]
	            -0.0000018735        0.0000195997       -0.0000096403
	             0.0000068316       -0.0000045180       -0.0000063779
	            -0.0000097813       -0.0000167939        0.0000090178
	            -0.0000068871        0.0000157414       -0.0000341889
	            -0.0029057149        0.0042456144        0.0000491318
	            -0.0000010797       -0.0000072382        0.0000015930
	            -0.0000002659       -0.0000061904        0.0000027445
	             0.0000007404        0.0000020303       -0.0000002171
	             0.0000034312        0.0000052249       -0.0000009494
	             0.0000062124        0.0000057796        0.0000028296
	             0.0025534070       -0.0020666972       -0.0000104546
	            -0.0000450176        0.0000047047        0.0000264971
	             0.0000082790       -0.0000017165       -0.0000104107
	             0.0000061187        0.0000161511       -0.0000067131
	            -0.0000095737       -0.0000059254       -0.0000051502
	            -0.0000009775       -0.0000048657       -0.0000056537

	---Fragment 1 Intrafragment Coordinates---
	 - Coordinate -           - BOHR/RAD -       - ANG/DEG -
	 R(1,2)           =         2.649914	       1.402274
	 R(1,6)           =         2.650554	       1.402613
	 R(1,7)           =         2.802652	       1.483099
	 R(2,3)           =         2.634664	       1.394204
	 R(2,8)           =         2.052943	       1.086371
	 R(3,4)           =         2.640441	       1.397261
	 R(3,9)           =         2.050899	       1.085289
	 R(4,5)           =         2.641014	       1.397565
	 R(4,10)          =         2.051508	       1.085611
	 R(5,6)           =         2.634183	       1.393950
	 R(5,11)          =         2.050941	       1.085311
	 R(6,12)          =         2.052891	       1.086343
	 R(7,13)          =         2.501768	       1.323878
	 R(7,14)          =         2.501724	       1.323856
	 R(13,17)         =         1.913576	       1.012621
	 R(13,18)         =         1.917869	       1.014893
	 R(14,15)         =         1.917866	       1.014891
	 R(14,16)         =         1.913529	       1.012596
	 B(1,2,3)         =         2.078197	     119.071925
	 B(1,2,8)         =         2.103395	     120.515665
	 B(1,6,5)         =         2.077615	     119.038561
	 B(1,6,12)        =         2.103203	     120.504635
	 B(1,7,13)        =         2.080953	     119.229798
	 B(1,7,14)        =         2.077073	     119.007545
	 B(2,1,6)         =         2.114751	     121.166324
	 B(2,1,7)         =         2.085447	     119.487333
	 B(2,3,4)         =         2.096141	     120.100054
	 B(2,3,9)         =         2.088101	     119.639352
	 B(3,2,8)         =         2.101590	     120.412218
	 B(3,4,5)         =         2.102695	     120.475555
	 B(3,4,10)        =         2.090343	     119.767848
	 B(4,3,9)         =         2.098936	     120.260193
	 B(4,5,6)         =         2.096567	     120.124444
	 B(4,5,11)        =         2.098769	     120.250585
	 B(5,4,10)        =         2.090139	     119.756167
	 B(5,6,12)        =         2.102230	     120.448920
	 B(6,1,7)         =         2.081022	     119.233789
	 B(6,5,11)        =         2.087842	     119.624509
	 B(7,13,17)       =         2.078770	     119.104749
	 B(7,13,18)       =         2.156982	     123.585986
	 B(7,14,15)       =         2.156596	     123.563861
	 B(7,14,16)       =         2.078627	     119.096555
	 B(13,7,14)       =         2.124430	     121.720873
	 B(15,14,16)      =         2.047896	     117.335814
	 B(17,13,18)      =         2.046958	     117.282039
	 D(1,2,3,4)       =         0.002576	       0.147620
	 D(1,2,3,9)       =         3.140157	     179.917768
	 D(1,6,5,4)       =        -0.022446	      -1.286039
	 D(1,6,5,11)      =         3.123454	     178.960726
	 D(1,7,13,17)     =        -0.001588	      -0.090999
	 D(1,7,13,18)     =         3.105940	     177.957276
	 D(1,7,14,15)     =         3.085706	     176.797915
	 D(1,7,14,16)     =        -0.068557	      -3.928046
	 D(2,1,6,5)       =         0.032944	       1.887574
	 D(2,1,6,12)      =        -3.126395	    -179.129245
	*D(2,1,7,13)      =        -1.396263	     -80.000004
	 D(2,1,7,14)      =         1.785646	     102.309984
	 D(2,3,4,5)       =         0.007534	       0.431678
	 D(2,3,4,10)      =        -3.138231	    -179.807363
	 D(3,2,1,6)       =        -0.023018	      -1.318844
	 D(3,2,1,7)       =        -3.096771	    -177.431907
	 D(3,4,5,6)       =         0.002575	       0.147531
	 D(3,4,5,11)      =         3.139833	     179.899207
	 D(4,3,2,8)       =        -3.136250	    -179.693899
	 D(4,5,6,12)      =         3.136884	     179.730198
	 D(5,4,3,9)       =        -3.130022	    -179.337030
	 D(5,6,1,7)       =         3.106866	     178.010317
	 D(6,1,2,8)       =         3.115806	     178.522507
	 D(6,1,7,13)      =         1.811848	     103.811250
	 D(6,1,7,14)      =        -1.289428	     -73.878761
	 D(6,5,4,10)      =        -3.134846	    -179.613456
	 D(7,1,2,8)       =         0.042053	       2.409444
	 D(7,1,6,12)      =        -0.052473	      -3.006503
	 D(8,2,3,9)       =         0.001331	       0.076249
	 D(9,3,4,10)      =         0.007399	       0.423928
	 D(10,4,5,11)     =         0.002412	       0.138221
	 D(11,5,6,12)     =        -0.000402	      -0.023036
	 D(13,7,14,15)    =        -0.014524	      -0.832186
	 D(13,7,14,16)    =         3.114398	     178.441853
	 D(14,7,13,17)    =         3.098552	     177.533974
	 D(14,7,13,18)    =        -0.077104	      -4.417752

	Current energy   :      -381.4646557535

	Energy change for the previous step:
		Projected    :        -0.0000022168
		Actual       :        -0.0000003906
	Energy ratio indicates iffy step: Trust radius decreased to 1.250e-01.


	Performing BFGS update.
	Previous computed or guess Hessian on step 1.
	Steps to be used in Hessian update: 5 4
	Taking RFO optimization step.
	Going to follow RFO solution 1.
	Rejecting RFO root 1 because normalization gives large value.
	Using RFO vector 2.
	Norm of target step-size    0.00280
	Projected energy change by RFO approximation:        -0.0000000600

	Back-transformation to cartesian coordinates...
	Could not converge backtransformation.
	Using first guess instead.

	Back-transformation to cartesian coordinates to adjust frozen coordinates...
	Successfully converged to displaced geometry.

	--- Internal Coordinate Step in ANG or DEG, aJ/ANG or AJ/DEG ---
	 ---------------------------------------------------------------------------
	   Coordinate                Previous        Force       Change         New 
	   ----------                --------       ------       ------       ------
	    1 R(1,2)          =      1.402274    -0.000004     0.000003     1.402277
	    2 R(1,6)          =      1.402613     0.000167     0.000028     1.402641
	    3 R(1,7)          =      1.483099     0.000029    -0.000019     1.483080
	    4 R(2,3)          =      1.394204     0.000060     0.000005     1.394209
	    5 R(2,8)          =      1.086371     0.000026     0.000005     1.086376
	    6 R(3,4)          =      1.397261    -0.000040    -0.000005     1.397257
	    7 R(3,9)          =      1.085289     0.000005     0.000001     1.085290
	    8 R(4,5)          =      1.397565     0.000022     0.000007     1.397571
	    9 R(4,10)         =      1.085611    -0.000004    -0.000002     1.085610
	   10 R(5,6)          =      1.393950    -0.000049    -0.000012     1.393938
	   11 R(5,11)         =      1.085311    -0.000003     0.000000     1.085312
	   12 R(6,12)         =      1.086343    -0.000005     0.000000     1.086343
	   13 R(7,13)         =      1.323878    -0.000067    -0.000002     1.323876
	   14 R(7,14)         =      1.323856     0.000090     0.000016     1.323872
	   15 R(13,17)        =      1.012621    -0.000057     0.000001     1.012622
	   16 R(13,18)        =      1.014893    -0.000043     0.000003     1.014895
	   17 R(14,15)        =      1.014891    -0.000085     0.000004     1.014895
	   18 R(14,16)        =      1.012596    -0.000087     0.000002     1.012598
	   19 B(1,2,3)        =    119.071925     0.000000     0.001377   119.073302
	   20 B(1,2,8)        =    120.515665    -0.000000    -0.000771   120.514894
	   21 B(1,6,5)        =    119.038561     0.000000     0.001843   119.040404
	   22 B(1,6,12)       =    120.504635    -0.000001    -0.003134   120.501501
	   23 B(1,7,13)       =    119.229798     0.000000     0.001520   119.231318
	   24 B(1,7,14)       =    119.007545    -0.000000    -0.001433   119.006112
	   25 B(2,1,6)        =    121.166324    -0.000001    -0.002667   121.163657
	   26 B(2,1,7)        =    119.487333     0.000000     0.002567   119.489901
	   27 B(2,3,4)        =    120.100054     0.000000     0.000997   120.101050
	   28 B(2,3,9)        =    119.639352    -0.000000    -0.001772   119.637580
	   29 B(3,2,8)        =    120.412218    -0.000000    -0.000653   120.411566
	   30 B(3,4,5)        =    120.475555    -0.000000    -0.001224   120.474331
	   31 B(3,4,10)       =    119.767848     0.000000     0.000975   119.768823
	   32 B(4,3,9)        =    120.260193     0.000000     0.000779   120.260972
	   33 B(4,5,6)        =    120.124444     0.000000     0.000576   120.125020
	   34 B(4,5,11)       =    120.250585    -0.000000    -0.000204   120.250381
	   35 B(5,4,10)       =    119.756167     0.000000     0.000292   119.756459
	   36 B(5,6,12)       =    120.448920     0.000000     0.001182   120.450103
	   37 B(6,1,7)        =    119.233789     0.000001     0.003536   119.237325
	   38 B(6,5,11)       =    119.624509    -0.000000    -0.000335   119.624173
	   39 B(7,13,17)      =    119.104749    -0.000001    -0.003198   119.101551
	   40 B(7,13,18)      =    123.585986     0.000000     0.000173   123.586160
	   41 B(7,14,15)      =    123.563861     0.000000     0.001492   123.565353
	   42 B(7,14,16)      =    119.096555    -0.000001    -0.005142   119.091413
	   43 B(13,7,14)      =    121.720873    -0.000000    -0.002241   121.718632
	   44 B(15,14,16)     =    117.335814     0.000001     0.003430   117.339244
	   45 B(17,13,18)     =    117.282039     0.000001     0.002839   117.284878
	   46 D(1,2,3,4)      =      0.147620     0.000000    -0.017834     0.129787
	   47 D(1,2,3,9)      =    179.917768    -0.000000    -0.016606   179.901163
	   48 D(1,6,5,4)      =     -1.286039     0.000000     0.012653    -1.273387
	   49 D(1,6,5,11)     =    178.960726     0.000000     0.002817   178.963543
	   50 D(1,7,13,17)    =     -0.090999     0.000000     0.029206    -0.061793
	   51 D(1,7,13,18)    =    177.957276     0.000000     0.022580   177.979856
	   52 D(1,7,14,15)    =    176.797915    -0.000000    -0.004710   176.793206
	   53 D(1,7,14,16)    =     -3.928046    -0.000000    -0.025599    -3.953645
	   54 D(2,1,6,5)      =      1.887574    -0.000000    -0.037468     1.850106
	   55 D(2,1,6,12)     =   -179.129245    -0.000000    -0.044419  -179.173664
	   56 *D(2,1,7,13)    =    -80.000004    -0.000000     0.000000   -80.000004
	   57 D(2,1,7,14)     =    102.309984     0.000000     0.058830   102.368814
	   58 D(2,3,4,5)      =      0.431678    -0.000000    -0.006266     0.425412
	   59 D(2,3,4,10)     =   -179.807363    -0.000000     0.006038  -179.801325
	   60 D(3,2,1,6)      =     -1.318844     0.000000     0.040069    -1.278775
	   61 D(3,2,1,7)      =   -177.431907    -0.000000    -0.019790  -177.451697
	   62 D(3,4,5,6)      =      0.147531    -0.000000     0.008895     0.156425
	   63 D(3,4,5,11)     =    179.899207     0.000000     0.018792   179.918000
	   64 D(4,3,2,8)      =   -179.693899     0.000000     0.000532  -179.693367
	   65 D(4,5,6,12)     =    179.730198     0.000000     0.019645   179.749843
	   66 D(5,4,3,9)      =   -179.337030     0.000000    -0.007496  -179.344526
	   67 D(5,6,1,7)      =    178.010317     0.000000     0.022206   178.032523
	   68 D(6,1,2,8)      =    178.522507     0.000000     0.021684   178.544191
	   69 D(6,1,7,13)     =    103.811250    -0.000000    -0.058455   103.752796
	   70 D(6,1,7,14)     =    -73.878761     0.000000     0.000375   -73.878386
	   71 D(6,5,4,10)     =   -179.613456    -0.000000    -0.003409  -179.616865
	   72 D(7,1,2,8)      =      2.409444    -0.000000    -0.038175     2.371269
	   73 D(7,1,6,12)     =     -3.006503     0.000000     0.015255    -2.991248
	   74 D(8,2,3,9)      =      0.076249    -0.000000     0.001760     0.078009
	   75 D(9,3,4,10)     =      0.423928     0.000000     0.004808     0.428736
	   76 D(10,4,5,11)    =      0.138221     0.000000     0.006488     0.144709
	   77 D(11,5,6,12)    =     -0.023036    -0.000000     0.009809    -0.013227
	   78 D(13,7,14,15)   =     -0.832186     0.000000     0.055553    -0.776633
	   79 D(13,7,14,16)   =    178.441853     0.000000     0.034664   178.476516
	   80 D(14,7,13,17)   =    177.533974    -0.000000    -0.031258   177.502716
	   81 D(14,7,13,18)   =     -4.417752    -0.000000    -0.037883    -4.455635
	 ---------------------------------------------------------------------------
	Successfully symmetrized geometry.

  ==> Convergence Check <==

  Measures of convergence in internal coordinates in au.
  Criteria marked as inactive (o), active & met (*), and active & unmet ( ).
  ---------------------------------------------------------------------------------------------
   Step     Total Energy     Delta E     MAX Force     RMS Force      MAX Disp      RMS Disp   
  ---------------------------------------------------------------------------------------------
    Convergence Criteria    1.00e-06 *    3.00e-04 *             o    1.20e-03 *             o
  ---------------------------------------------------------------------------------------------
      6    -381.46465575   -3.91e-07 *    2.03e-05 *    6.77e-06 o    1.03e-03 *    3.11e-04 o  ~
  ---------------------------------------------------------------------------------------------


  **** Optimization is complete! (in 6 steps) ****

  ==> Optimization Summary <==

  Measures of convergence in internal coordinates in au.
  --------------------------------------------------------------------------------------------------------------- ~
   Step         Total Energy             Delta E       MAX Force       RMS Force        MAX Disp        RMS Disp  ~
  --------------------------------------------------------------------------------------------------------------- ~
      1    -381.461841204498   -381.461841204498      0.00801387      0.00191992      0.12535324      0.03872282  ~
      2    -381.464075044803     -0.002233840305      0.00498362      0.00111102      0.10016447      0.02574602  ~
      3    -381.464605793129     -0.000530748326      0.00244045      0.00049598      0.01987389      0.00552779  ~
      4    -381.464651301723     -0.000045508594      0.00049871      0.00008681      0.00976162      0.00235948  ~
      5    -381.464655362921     -0.000004061198      0.00015186      0.00003782      0.00298863      0.00072747  ~
      6    -381.464655753476     -0.000000390554      0.00002026      0.00000677      0.00102678      0.00031073  ~
  --------------------------------------------------------------------------------------------------------------- ~

	Writing optimization data to binary file.
	Final energy is   -381.4646557534755
	Final (previous) structure:
	Cartesian Geometry (in Angstrom)
	    C    -0.0237859263  -0.0277734602  -0.1847436935
	    C    -1.0952989392   0.5523165596   0.5093223278
	    C    -1.0698777013   0.5691705870   1.9031927540
	    C     0.0134623650   0.0163648531   2.5910296888
	    C     1.0831806933  -0.5490872997   1.8916347463
	    C     1.0785127462  -0.5629794475   0.4977621501
	    C    -0.0137636559   0.0001583872  -1.6675461140
	    H    -1.9327133156   0.9851029626  -0.0307098540
	    H    -1.8937113631   1.0169824318   2.4496490693
	    H     0.0262140723   0.0296036082   3.6764854355
	    H     1.9235687369  -0.9759990092   2.4295891758
	    H     1.9092756674  -0.9972157181  -0.0512485937
	    N    -0.7375177740  -0.8843798179  -2.3356974599
	    N     0.7558965014   0.8807454350  -2.2878551174
	    H     0.8518855613   0.9295099028  -3.2970191743
	    H     1.2744302911   1.5549074301  -1.7383290294
	    H    -1.2832052166  -1.5642332894  -1.8205028584
	    H    -0.8028286611  -0.9063735691  -3.3482476642
	Saving final (previous) structure.
			--------------------------
			 OPTKING Finished Execution 
			--------------------------

    Final optimized geometry and variables:
    Molecular point group: c1
    Full point group: C1

    Geometry (in Angstrom), charge = 1, multiplicity = 1:

    C           -0.023785926325    -0.027773460239    -0.184743693490
    C           -1.095298939230     0.552316559619     0.509322327821
    C           -1.069877701334     0.569170586959     1.903192753991
    C            0.013462364999     0.016364853066     2.591029688787
    C            1.083180693253    -0.549087299716     1.891634746326
    C            1.078512746174    -0.562979447525     0.497762150083
    C           -0.013763655864     0.000158387194    -1.667546114034
    H           -1.932713315599     0.985102962623    -0.030709854021
    H           -1.893711363088     1.016982431845     2.449649069268
    H            0.026214072255     0.029603608221     3.676485435523
    H            1.923568736920    -0.975999009218     2.429589175758
    H            1.909275667407    -0.997215718128    -0.051248593687
    N           -0.737517774042    -0.884379817906    -2.335697459931
    N            0.755896501377     0.880745435021    -2.287855117384
    H            0.851885561324     0.929509902774    -3.297019174349
    H            1.274430291128     1.554907430137    -1.738329029448
    H           -1.283205216594    -1.564233289450    -1.820502858428
    H           -0.802828661093    -0.906373569080    -3.348247664195

	Cleaning optimization helper files.


Properties will be evaluated at   0.000000,   0.000000,   0.000000 Bohr

Properties computed using the  density matrix

  Nuclear Dipole Moment: (a.u.)
     X:     0.0683      Y:     0.0678      Z:    -1.6087

  Electronic Dipole Moment: (a.u.)
     X:    -0.0624      Y:    -0.0411      Z:    -0.9641

  Dipole Moment: (a.u.)
     X:     0.0059      Y:     0.0267      Z:    -2.5728     Total:     2.5729

  Dipole Moment: (Debye)
     X:     0.0151      Y:     0.0678      Z:    -6.5394     Total:     6.5397

  Quadrupole Moment: (Debye Ang)
    XX:   -41.8288     YY:   -45.1954     ZZ:   -13.4040
    XY:     2.4543     XZ:     0.1169     YZ:     0.1996

  Traceless Quadrupole Moment: (Debye Ang)
    XX:    -8.3527     YY:   -11.7194     ZZ:    20.0720
    XY:     2.4543     XZ:     0.1169     YZ:     0.1996

  Mulliken Charges: (a.u.)
   Center  Symbol    Alpha    Beta     Spin     Total
       1     C     2.99250  2.99250  0.00000  0.01499
       2     C     3.07105  3.07105  0.00000 -0.14209
       3     C     3.06248  3.06248  0.00000 -0.12495
       4     C     3.05360  3.05360  0.00000 -0.10721
       5     C     3.06304  3.06304  0.00000 -0.12609
       6     C     3.07129  3.07129  0.00000 -0.14257
       7     C     2.74676  2.74676  0.00000  0.50648
       8     H     0.41356  0.41356  0.00000  0.17289
       9     H     0.40732  0.40732  0.00000  0.18537
      10     H     0.40668  0.40668  0.00000  0.18663
      11     H     0.40730  0.40730  0.00000  0.18541
      12     H     0.41363  0.41363  0.00000  0.17273
      13     N     3.84482  3.84482  0.00000 -0.68964
      14     N     3.84497  3.84497  0.00000 -0.68995
      15     H     0.30500  0.30500  0.00000  0.39000
      16     H     0.29556  0.29556  0.00000  0.40889
      17     H     0.29536  0.29536  0.00000  0.40928
      18     H     0.30508  0.30508  0.00000  0.38984

   Total alpha = 32.00000, Total beta = 32.00000, Total charge =  1.00000


*** Psi4 exiting successfully. Buy a developer a beer!
