    -----------------------------------------------------------------------
          Psi4: An Open-Source Ab Initio Electronic Structure Package
                              Psi4 (no tag) Driver

                          Git: Rev {detached?}  

    J. M. Turney, A. C. Simmonett, R. M. Parrish, E. G. Hohenstein,
    F. A. Evangelista, J. T. Fermann, B. J. Mintz, L. A. Burns, J. J. Wilke,
    M. L. Abrams, N. J. Russ, M. L. Leininger, C. L. Janssen, E. T. Seidl,
    W. D. Allen, H. F. Schaefer, R. A. King, E. F. Valeev, C. D. Sherrill,
    and T. D. Crawford, WIREs Comput. Mol. Sci. 2, 556-565 (2012)
    (doi: 10.1002/wcms.93)

                         Additional Contributions by
    A. E. DePrince, M. Saitow, U. Bozkaya, A. Yu. Sokolov
    -----------------------------------------------------------------------


    Psi4 started on: Tue Jul  5 16:34:48 2016

    Process ID:  17721
    PSI4DATADIR: /export131/home/mjharvey/miniconda3/share
    Memory level set to 256.000 MB

  ==> Input File <==

--------------------------------------------------------------------------
set {
	reference rhf
	basis 6-31G*
}


set_num_threads( 1 )
memory 2 gb

molecule MOL {
0 1

H	 -2.657337	 -0.498583	 -0.790384
O	 -2.347518	 -0.290803	 0.079804
C	 -1.184022	 0.487508	 -0.006784
C	 0.062599	 -0.378592	 0.031606
H	 -1.176523	 1.099369	 -0.904519
H	 -1.187323	 1.153111	 0.844927
O	 -0.043959	 -1.331029	 -0.978982
H	 0.152937	 -0.862108	 1.006301
H	 0.944499	 0.244194	 -0.106143
C	 1.051901	 -2.183439	 -1.086827
H	 1.203606	 -2.754072	 -0.172501
H	 0.853769	 -2.869137	 -1.898901
H	 1.964096	 -1.631937	 -1.304857

	symmetry c1
}
set optking {
	frozen_dihedral = ("
		8 4 3 5,
		10 7 4 8,
		4 7 10 13
	")
}

ee = energy('scf')
oeprop('DIPOLE', 'QUADRUPOLE', 'MULLIKEN_CHARGES')
f=open( 'psi4out.xyz', 'w' )
f.write( "13  " )
f.write( str(ee) + "\n" )
f.write( MOL.save_string_xyz() )
f.close()
--------------------------------------------------------------------------

  Memory set to   2.000 GiB by Python script.

*** tstart() called on cx1-49-4-2.cx1.hpc.ic.ac.uk
*** at Tue Jul  5 16:34:49 2016


         ---------------------------------------------------------
                                   SCF
            by Justin Turney, Rob Parrish, and Andy Simmonett
                              RHF Reference
                        1 Threads,   2000 MiB Core
         ---------------------------------------------------------

  ==> Geometry <==

    Molecular point group: c1
    Full point group: C1

    Geometry (in Angstrom), charge = 0, multiplicity = 1:

       Center              X                  Y                   Z               Mass       
    ------------   -----------------  -----------------  -----------------  -----------------
           H         -2.144700572804     0.250931333625    -0.389628373926     1.007825032070
           O         -1.834881572804     0.458711333625     0.480559626074    15.994914619560
           C         -0.671385572804     1.237022333625     0.393971626074    12.000000000000
           C          0.575235427196     0.370922333625     0.432361626074    12.000000000000
           H         -0.663886572804     1.848883333625    -0.503763373926     1.007825032070
           H         -0.674686572804     1.902625333625     1.245682626074     1.007825032070
           O          0.468677427196    -0.581514666375    -0.578226373926    15.994914619560
           H          0.665573427196    -0.112593666375     1.407056626074     1.007825032070
           H          1.457135427196     0.993708333625     0.294612626074     1.007825032070
           C          1.564537427196    -1.433924666375    -0.686071373926    12.000000000000
           H          1.716242427196    -2.004557666375     0.228254626074     1.007825032070
           H          1.366405427196    -2.119622666375    -1.498145373926     1.007825032070
           H          2.476732427196    -0.882422666375    -0.904101373926     1.007825032070

  Running in c1 symmetry.

  Rotational constants: A =      0.44343  B =      0.09244  C =      0.08258 [cm^-1]
  Rotational constants: A =  13293.77174  B =   2771.34063  C =   2475.73494 [MHz]
  Nuclear repulsion =  194.121463956195527

  Charge       = 0
  Multiplicity = 1
  Electrons    = 42
  Nalpha       = 21
  Nbeta        = 21

  ==> Algorithm <==

  SCF Algorithm Type is DF.
  DIIS enabled.
  MOM disabled.
  Fractional occupation disabled.
  Guess Type is CORE.
  Energy threshold   = 1.00e-06
  Density threshold  = 1.00e-06
  Integral threshold = 0.00e+00

  ==> Primary Basis <==

  Basis Set: 6-31G*
    Number of shells: 46
    Number of basis function: 91
    Number of Cartesian functions: 91
    Spherical Harmonics?: false
    Max angular momentum: 2

  ==> Pre-Iterations <==

   -------------------------------------------------------
    Irrep   Nso     Nmo     Nalpha   Nbeta   Ndocc  Nsocc
   -------------------------------------------------------
     A         91      91       0       0       0       0
   -------------------------------------------------------
    Total      91      91      21      21      21       0
   -------------------------------------------------------

 OEINTS: Overlap, kinetic, potential, dipole, and quadrupole integrals
         stored in file 35.

  ==> Integral Setup <==

  ==> DFJK: Density-Fitted J/K Matrices <==

    J tasked:                  Yes
    K tasked:                  Yes
    wK tasked:                  No
    OpenMP threads:              1
    Integrals threads:           1
    Memory (MB):              1430
    Algorithm:                Core
    Integral Cache:           NONE
    Schwarz Cutoff:          1E-12
    Fitting Condition:       1E-12

   => Auxiliary Basis Set <=

  Basis Set: 
    Number of shells: 192
    Number of basis function: 605
    Number of Cartesian functions: 605
    Spherical Harmonics?: false
    Max angular momentum: 3

  Minimum eigenvalue in the overlap matrix is 4.5280838870E-03.
  Using Symmetric Orthogonalization.
  SCF Guess: Core (One-Electron) Hamiltonian.

  ==> Iterations <==

                           Total Energy        Delta E     RMS |[F,P]|

   @DF-RHF iter   1:  -223.59830284319847   -2.23598e+02   7.94467e-02 
   @DF-RHF iter   2:  -168.67967494261265    5.49186e+01   6.72284e-02 DIIS
   @DF-RHF iter   3:  -229.39649260371269   -6.07168e+01   6.86532e-02 DIIS
   @DF-RHF iter   4:  -256.01679419136724   -2.66203e+01   3.97810e-02 DIIS
   @DF-RHF iter   5:  -267.51929829511050   -1.15025e+01   1.00329e-02 DIIS
   @DF-RHF iter   6:  -267.87581030391709   -3.56512e-01   4.21389e-03 DIIS
   @DF-RHF iter   7:  -267.93970278257007   -6.38925e-02   1.46263e-03 DIIS
   @DF-RHF iter   8:  -267.94814263884280   -8.43986e-03   5.89297e-04 DIIS
   @DF-RHF iter   9:  -267.94978979931511   -1.64716e-03   2.15872e-04 DIIS
   @DF-RHF iter  10:  -267.95004073603116   -2.50937e-04   5.85670e-05 DIIS
   @DF-RHF iter  11:  -267.95006257852799   -2.18425e-05   2.03442e-05 DIIS
   @DF-RHF iter  12:  -267.95006490251171   -2.32398e-06   4.56763e-06 DIIS
   @DF-RHF iter  13:  -267.95006506101095   -1.58499e-07   8.99577e-07 DIIS

  ==> Post-Iterations <==

    Orbital Energies (a.u.)
    -----------------------

    Doubly Occupied:                                                      

       1A    -20.559339     2A    -20.549060     3A    -11.269716  
       4A    -11.268593     5A    -11.268190     6A     -1.388055  
       7A     -1.352068     8A     -1.017416     9A     -0.917545  
      10A     -0.830595    11A     -0.708186    12A     -0.671443  
      13A     -0.656895    14A     -0.642549    15A     -0.580514  
      16A     -0.560935    17A     -0.547621    18A     -0.490336  
      19A     -0.478910    20A     -0.433052    21A     -0.418398  

    Virtual:                                                              

      22A      0.231497    23A      0.247225    24A      0.276567  
      25A      0.300937    26A      0.316231    27A      0.321580  
      28A      0.333727    29A      0.343886    30A      0.359939  
      31A      0.415424    32A      0.438211    33A      0.457016  
      34A      0.726694    35A      0.756897    36A      0.770129  
      37A      0.809516    38A      0.815233    39A      0.846704  
      40A      0.886198    41A      0.939447    42A      0.986992  
      43A      1.063982    44A      1.098079    45A      1.113731  
      46A      1.144020    47A      1.157577    48A      1.168751  
      49A      1.180838    50A      1.207730    51A      1.224201  
      52A      1.237355    53A      1.296318    54A      1.344040  
      55A      1.386285    56A      1.403488    57A      1.490933  
      58A      1.582243    59A      1.657208    60A      1.706825  
      61A      1.717396    62A      1.754897    63A      1.848522  
      64A      1.944952    65A      2.023293    66A      2.038177  
      67A      2.056278    68A      2.229589    69A      2.260742  
      70A      2.389645    71A      2.415375    72A      2.442926  
      73A      2.464507    74A      2.484908    75A      2.521680  
      76A      2.622982    77A      2.647352    78A      2.678172  
      79A      2.773572    80A      2.814311    81A      2.894967  
      82A      2.910041    83A      3.054395    84A      3.166902  
      85A      3.225625    86A      3.340913    87A      4.173746  
      88A      4.365128    89A      4.640343    90A      4.680899  
      91A      4.873468  

    Final Occupation by Irrep:
              A 
    DOCC [    21 ]

  Energy converged.

  @DF-RHF Final Energy:  -267.95006506101095

   => Energetics <=

    Nuclear Repulsion Energy =            194.1214639561955266
    One-Electron Energy =                -750.9241323099307692
    Two-Electron Energy =                 288.8526032927247229
    DFT Exchange-Correlation Energy =       0.0000000000000000
    Empirical Dispersion Energy =           0.0000000000000000
    PCM Polarization Energy =               0.0000000000000000
    EFP Energy =                            0.0000000000000000
    Total Energy =                       -267.9500650610105481

    Alert: EFP and PCM quantities not currently incorporated into SCF psivars.

Properties will be evaluated at   0.000000,   0.000000,   0.000000 Bohr
  ==> Properties <==


Properties computed using the SCF density matrix

  Nuclear Dipole Moment: (a.u.)
     X:     3.9297      Y:    -0.1159      Z:    -0.1130

  Electronic Dipole Moment: (a.u.)
     X:    -3.1999      Y:     0.3059      Z:    -0.2059

  Dipole Moment: (a.u.)
     X:     0.7297      Y:     0.1900      Z:    -0.3189     Total:     0.8187

  Dipole Moment: (Debye)
     X:     1.8548      Y:     0.4828      Z:    -0.8106     Total:     2.0810


  Saving occupied orbitals to File 180.

*** tstop() called on cx1-49-4-2.cx1.hpc.ic.ac.uk at Tue Jul  5 16:34:55 2016
Module time:
	user time   =       5.29 seconds =       0.09 minutes
	system time =       0.04 seconds =       0.00 minutes
	total time  =          6 seconds =       0.10 minutes
Total time:
	user time   =       5.29 seconds =       0.09 minutes
	system time =       0.04 seconds =       0.00 minutes
	total time  =          6 seconds =       0.10 minutes


Properties will be evaluated at   0.000000,   0.000000,   0.000000 Bohr

Properties computed using the  density matrix

  Nuclear Dipole Moment: (a.u.)
     X:     3.9297      Y:    -0.1159      Z:    -0.1130

  Electronic Dipole Moment: (a.u.)
     X:    -3.1999      Y:     0.3059      Z:    -0.2059

  Dipole Moment: (a.u.)
     X:     0.7297      Y:     0.1900      Z:    -0.3189     Total:     0.8187

  Dipole Moment: (Debye)
     X:     1.8548      Y:     0.4828      Z:    -0.8106     Total:     2.0810

  Quadrupole Moment: (Debye Ang)
    XX:   -31.1642     YY:   -28.9562     ZZ:   -31.5054
    XY:    -1.1989     XZ:     3.6775     YZ:     0.5455

  Traceless Quadrupole Moment: (Debye Ang)
    XX:    -0.6222     YY:     1.5857     ZZ:    -0.9635
    XY:    -1.1989     XZ:     3.6775     YZ:     0.5455

  Mulliken Charges: (a.u.)
   Center  Symbol    Alpha    Beta     Spin     Total
       1     H     0.27580  0.27580  0.00000  0.44841
       2     O     4.36773  4.36773  0.00000 -0.73546
       3     C     3.00555  3.00555  0.00000 -0.01111
       4     C     2.99340  2.99340  0.00000  0.01321
       5     H     0.42534  0.42534  0.00000  0.14932
       6     H     0.41780  0.41780  0.00000  0.16441
       7     O     4.30626  4.30626  0.00000 -0.61252
       8     H     0.42580  0.42580  0.00000  0.14840
       9     H     0.43399  0.43399  0.00000  0.13203
      10     C     3.07911  3.07911  0.00000 -0.15821
      11     H     0.42732  0.42732  0.00000  0.14535
      12     H     0.41188  0.41188  0.00000  0.17625
      13     H     0.43004  0.43004  0.00000  0.13993

   Total alpha = 21.00000, Total beta = 21.00000, Total charge = -0.00000


*** PSI4 exiting successfully. Buy a developer a beer!
