    -----------------------------------------------------------------------
          Psi4: An Open-Source Ab Initio Electronic Structure Package
                              Psi4 (no tag) Driver

                          Git: Rev {detached?}  

    J. M. Turney, A. C. Simmonett, R. M. Parrish, E. G. Hohenstein,
    F. A. Evangelista, J. T. Fermann, B. J. Mintz, L. A. Burns, J. J. Wilke,
    M. L. Abrams, N. J. Russ, M. L. Leininger, C. L. Janssen, E. T. Seidl,
    W. D. Allen, H. F. Schaefer, R. A. King, E. F. Valeev, C. D. Sherrill,
    and T. D. Crawford, WIREs Comput. Mol. Sci. 2, 556-565 (2012)
    (doi: 10.1002/wcms.93)

                         Additional Contributions by
    A. E. DePrince, M. Saitow, U. Bozkaya, A. Yu. Sokolov
    -----------------------------------------------------------------------


    Psi4 started on: Tue Jul  5 16:38:41 2016

    Process ID:  20227
    PSI4DATADIR: /export131/home/mjharvey/miniconda3/share
    Memory level set to 256.000 MB

  ==> Input File <==

--------------------------------------------------------------------------
set {
	reference rhf
	basis 6-31G*
}


set_num_threads( 1 )
memory 2 gb

molecule MOL {
0 1

O	 -0.806752	 -1.114546	 1.082146
C	 -0.561929	 -0.074560	 0.531515
C	 -1.597472	 1.034011	 0.503089
N	 0.623947	 0.147590	 -0.102813
H	 -1.868528	 1.298769	 -0.513038
H	 -2.472791	 0.671041	 1.019920
H	 -1.237628	 1.928840	 0.999450
C	 1.819944	 0.315308	 0.699271
C	 0.738400	 0.570729	 -1.481254
H	 2.691680	 0.305454	 0.054293
H	 1.891539	 -0.490393	 1.408961
H	 1.804165	 1.259409	 1.239499
H	 1.653431	 0.169281	 -1.900297
H	 -0.081671	 0.204772	 -2.078324
H	 0.775487	 1.654818	 -1.571742

	symmetry c1
}
set optking {
	frozen_dihedral = ("
		2 4 8 10
	")
}

ee = energy('scf')
oeprop('DIPOLE', 'QUADRUPOLE', 'MULLIKEN_CHARGES')
f=open( 'psi4out.xyz', 'w' )
f.write( "15  " )
f.write( str(ee) + "\n" )
f.write( MOL.save_string_xyz() )
f.close()
--------------------------------------------------------------------------

  Memory set to   2.000 GiB by Python script.

*** tstart() called on cx1-3-2-1.cx1.hpc.ic.ac.uk
*** at Tue Jul  5 16:38:42 2016


         ---------------------------------------------------------
                                   SCF
            by Justin Turney, Rob Parrish, and Andy Simmonett
                              RHF Reference
                        1 Threads,   2000 MiB Core
         ---------------------------------------------------------

  ==> Geometry <==

    Molecular point group: c1
    Full point group: C1

    Geometry (in Angstrom), charge = 0, multiplicity = 1:

       Center              X                  Y                   Z               Mass       
    ------------   -----------------  -----------------  -----------------  -----------------
           O         -0.850406636792    -1.268933599163     0.880593996280    15.994914619560
           C         -0.605583636792    -0.228947599163     0.329962996280    12.000000000000
           C         -1.641126636792     0.879623400837     0.301536996280    12.000000000000
           N          0.580292363208    -0.006797599163    -0.304365003720    14.003074004780
           H         -1.912182636792     1.144381400837    -0.714590003720     1.007825032070
           H         -2.516445636792     0.516653400837     0.818367996280     1.007825032070
           H         -1.281282636792     1.774452400837     0.797897996280     1.007825032070
           C          1.776289363208     0.160920400837     0.497718996280    12.000000000000
           C          0.694745363208     0.416341400837    -1.682806003720    12.000000000000
           H          2.648025363208     0.151066400837    -0.147259003720     1.007825032070
           H          1.847884363208    -0.644780599163     1.207408996280     1.007825032070
           H          1.760510363208     1.105021400837     1.037946996280     1.007825032070
           H          1.609776363208     0.014893400837    -2.101849003720     1.007825032070
           H         -0.125325636792     0.050384400837    -2.279876003720     1.007825032070
           H          0.731832363208     1.500430400837    -1.773294003720     1.007825032070

  Running in c1 symmetry.

  Rotational constants: A =      0.16437  B =      0.09939  C =      0.07938 [cm^-1]
  Rotational constants: A =   4927.62993  B =   2979.73753  C =   2379.74832 [MHz]
  Nuclear repulsion =  251.314498384724658

  Charge       = 0
  Multiplicity = 1
  Electrons    = 48
  Nalpha       = 24
  Nbeta        = 24

  ==> Algorithm <==

  SCF Algorithm Type is DF.
  DIIS enabled.
  MOM disabled.
  Fractional occupation disabled.
  Guess Type is CORE.
  Energy threshold   = 1.00e-06
  Density threshold  = 1.00e-06
  Integral threshold = 0.00e+00

  ==> Primary Basis <==

  Basis Set: 6-31G*
    Number of shells: 54
    Number of basis function: 108
    Number of Cartesian functions: 108
    Spherical Harmonics?: false
    Max angular momentum: 2

  ==> Pre-Iterations <==

   -------------------------------------------------------
    Irrep   Nso     Nmo     Nalpha   Nbeta   Ndocc  Nsocc
   -------------------------------------------------------
     A        108     108       0       0       0       0
   -------------------------------------------------------
    Total     108     108      24      24      24       0
   -------------------------------------------------------

 OEINTS: Overlap, kinetic, potential, dipole, and quadrupole integrals
         stored in file 35.

  ==> Integral Setup <==

  ==> DFJK: Density-Fitted J/K Matrices <==

    J tasked:                  Yes
    K tasked:                  Yes
    wK tasked:                  No
    OpenMP threads:              1
    Integrals threads:           1
    Memory (MB):              1430
    Algorithm:                Core
    Integral Cache:           NONE
    Schwarz Cutoff:          1E-12
    Fitting Condition:       1E-12

   => Auxiliary Basis Set <=

  Basis Set: 
    Number of shells: 225
    Number of basis function: 711
    Number of Cartesian functions: 711
    Spherical Harmonics?: false
    Max angular momentum: 3

  Minimum eigenvalue in the overlap matrix is 3.9778009393E-03.
  Using Symmetric Orthogonalization.
  SCF Guess: Core (One-Electron) Hamiltonian.

  ==> Iterations <==

                           Total Energy        Delta E     RMS |[F,P]|

   @DF-RHF iter   1:  -203.61407791777069   -2.03614e+02   8.89038e-02 
   @DF-RHF iter   2:  -227.50672637597435   -2.38926e+01   4.67946e-02 DIIS
   @DF-RHF iter   3:  -223.63670516351519    3.87002e+00   7.30632e-02 DIIS
   @DF-RHF iter   4:  -268.37341984549255   -4.47367e+01   4.89184e-02 DIIS
   @DF-RHF iter   5:  -276.98761208400742   -8.61419e+00   3.76409e-02 DIIS
   @DF-RHF iter   6:  -281.42113826216837   -4.43353e+00   2.45920e-02 DIIS
   @DF-RHF iter   7:  -284.98063971783563   -3.55950e+00   1.14331e-02 DIIS
   @DF-RHF iter   8:  -285.82617470798903   -8.45535e-01   4.36668e-03 DIIS
   @DF-RHF iter   9:  -285.96670318919769   -1.40528e-01   1.79413e-03 DIIS
   @DF-RHF iter  10:  -285.99344788983660   -2.67447e-02   7.30568e-04 DIIS
   @DF-RHF iter  11:  -285.99777486162111   -4.32697e-03   2.34321e-04 DIIS
   @DF-RHF iter  12:  -285.99925161547753   -1.47675e-03   9.69960e-05 DIIS
   @DF-RHF iter  13:  -285.99944322982958   -1.91614e-04   3.06998e-05 DIIS
   @DF-RHF iter  14:  -285.99945997963687   -1.67498e-05   1.02235e-05 DIIS
   @DF-RHF iter  15:  -285.99946148715526   -1.50752e-06   2.74895e-06 DIIS
   @DF-RHF iter  16:  -285.99946161466198   -1.27507e-07   9.66181e-07 DIIS

  ==> Post-Iterations <==

    Orbital Energies (a.u.)
    -----------------------

    Doubly Occupied:                                                      

       1A    -20.538734     2A    -15.556022     3A    -11.346107  
       4A    -11.262299     5A    -11.256181     6A    -11.225607  
       7A     -1.393477     8A     -1.238350     9A     -1.007692  
      10A     -0.973736    11A     -0.918606    12A     -0.738718  
      13A     -0.676180    14A     -0.658001    15A     -0.645518  
      16A     -0.595790    17A     -0.584952    18A     -0.577126  
      19A     -0.562293    20A     -0.548226    21A     -0.534105  
      22A     -0.486436    23A     -0.420534    24A     -0.352717  

    Virtual:                                                              

      25A      0.172354    26A      0.214335    27A      0.273159  
      28A      0.279947    29A      0.287885    30A      0.296397  
      31A      0.319758    32A      0.320512    33A      0.343367  
      34A      0.348829    35A      0.380795    36A      0.399812  
      37A      0.435512    38A      0.522709    39A      0.591229  
      40A      0.700293    41A      0.713254    42A      0.744191  
      43A      0.757059    44A      0.783949    45A      0.802999  
      46A      0.842068    47A      0.879052    48A      0.910592  
      49A      0.953702    50A      0.980416    51A      1.007371  
      52A      1.044506    53A      1.100332    54A      1.104180  
      55A      1.123330    56A      1.135918    57A      1.154346  
      58A      1.162591    59A      1.179182    60A      1.206580  
      61A      1.230178    62A      1.240856    63A      1.260391  
      64A      1.280622    65A      1.332664    66A      1.342860  
      67A      1.372870    68A      1.389698    69A      1.511758  
      70A      1.602583    71A      1.679563    72A      1.738974  
      73A      1.757041    74A      1.876314    75A      1.947856  
      76A      2.018015    77A      2.068421    78A      2.127327  
      79A      2.155454    80A      2.198727    81A      2.249243  
      82A      2.278885    83A      2.309053    84A      2.343286  
      85A      2.381073    86A      2.413038    87A      2.467497  
      88A      2.493906    89A      2.568326    90A      2.604856  
      91A      2.617392    92A      2.676970    93A      2.698002  
      94A      2.750684    95A      2.789841    96A      2.863823  
      97A      3.008644    98A      3.090270    99A      3.169254  
     100A      3.302170   101A      3.372081   102A      3.490187  
     103A      4.388443   104A      4.492362   105A      4.619706  
     106A      4.670086   107A      4.777078   108A      4.916435  

    Final Occupation by Irrep:
              A 
    DOCC [    24 ]

  Energy converged.

  @DF-RHF Final Energy:  -285.99946161466198

   => Energetics <=

    Nuclear Repulsion Energy =            251.3144983847246579
    One-Electron Energy =                -886.4328274135725678
    Two-Electron Energy =                 349.1188674141857291
    DFT Exchange-Correlation Energy =       0.0000000000000000
    Empirical Dispersion Energy =           0.0000000000000000
    PCM Polarization Energy =               0.0000000000000000
    EFP Energy =                            0.0000000000000000
    Total Energy =                       -285.9994616146622093

    Alert: EFP and PCM quantities not currently incorporated into SCF psivars.

Properties will be evaluated at   0.000000,   0.000000,   0.000000 Bohr
  ==> Properties <==


Properties computed using the SCF density matrix

  Nuclear Dipole Moment: (a.u.)
     X:     2.5843      Y:     5.2555      Z:    -2.9528

  Electronic Dipole Moment: (a.u.)
     X:    -2.1042      Y:    -4.0718      Z:     2.2898

  Dipole Moment: (a.u.)
     X:     0.4801      Y:     1.1837      Z:    -0.6631     Total:     1.4391

  Dipole Moment: (Debye)
     X:     1.2202      Y:     3.0085      Z:    -1.6853     Total:     3.6579


  Saving occupied orbitals to File 180.

*** tstop() called on cx1-3-2-1.cx1.hpc.ic.ac.uk at Tue Jul  5 16:38:50 2016
Module time:
	user time   =       7.46 seconds =       0.12 minutes
	system time =       0.05 seconds =       0.00 minutes
	total time  =          8 seconds =       0.13 minutes
Total time:
	user time   =       7.46 seconds =       0.12 minutes
	system time =       0.05 seconds =       0.00 minutes
	total time  =          8 seconds =       0.13 minutes


Properties will be evaluated at   0.000000,   0.000000,   0.000000 Bohr

Properties computed using the  density matrix

  Nuclear Dipole Moment: (a.u.)
     X:     2.5843      Y:     5.2555      Z:    -2.9528

  Electronic Dipole Moment: (a.u.)
     X:    -2.1042      Y:    -4.0718      Z:     2.2898

  Dipole Moment: (a.u.)
     X:     0.4801      Y:     1.1837      Z:    -0.6631     Total:     1.4391

  Dipole Moment: (Debye)
     X:     1.2202      Y:     3.0085      Z:    -1.6853     Total:     3.6579

  Quadrupole Moment: (Debye Ang)
    XX:   -35.1222     YY:   -41.7924     ZZ:   -36.5467
    XY:    -2.3463     XZ:     1.3821     YZ:     2.4439

  Traceless Quadrupole Moment: (Debye Ang)
    XX:     2.6983     YY:    -3.9720     ZZ:     1.2737
    XY:    -2.3463     XZ:     1.3821     YZ:     2.4439

  Mulliken Charges: (a.u.)
   Center  Symbol    Alpha    Beta     Spin     Total
       1     O     4.26355  4.26355  0.00000 -0.52711
       2     C     2.65043  2.65043  0.00000  0.69914
       3     C     3.28712  3.28712  0.00000 -0.57424
       4     N     3.82399  3.82399  0.00000 -0.64798
       5     H     0.40917  0.40917  0.00000  0.18166
       6     H     0.39686  0.39686  0.00000  0.20627
       7     H     0.40782  0.40782  0.00000  0.18436
       8     C     3.14040  3.14040  0.00000 -0.28081
       9     C     3.13829  3.13829  0.00000 -0.27658
      10     H     0.41412  0.41412  0.00000  0.17177
      11     H     0.39912  0.39912  0.00000  0.20175
      12     H     0.42445  0.42445  0.00000  0.15109
      13     H     0.40915  0.40915  0.00000  0.18169
      14     H     0.41029  0.41029  0.00000  0.17943
      15     H     0.42521  0.42521  0.00000  0.14957

   Total alpha = 24.00000, Total beta = 24.00000, Total charge =  0.00000


*** PSI4 exiting successfully. Buy a developer a beer!
