    -----------------------------------------------------------------------
          Psi4: An Open-Source Ab Initio Electronic Structure Package
                              Psi4 (no tag) Driver

                          Git: Rev {detached?}  

    J. M. Turney, A. C. Simmonett, R. M. Parrish, E. G. Hohenstein,
    F. A. Evangelista, J. T. Fermann, B. J. Mintz, L. A. Burns, J. J. Wilke,
    M. L. Abrams, N. J. Russ, M. L. Leininger, C. L. Janssen, E. T. Seidl,
    W. D. Allen, H. F. Schaefer, R. A. King, E. F. Valeev, C. D. Sherrill,
    and T. D. Crawford, WIREs Comput. Mol. Sci. 2, 556-565 (2012)
    (doi: 10.1002/wcms.93)

                         Additional Contributions by
    A. E. DePrince, M. Saitow, U. Bozkaya, A. Yu. Sokolov
    -----------------------------------------------------------------------


    Psi4 started on: Tue Jul  5 16:47:43 2016

    Process ID:  21620
    PSI4DATADIR: /export131/home/mjharvey/miniconda3/share
    Memory level set to 256.000 MB

  ==> Input File <==

--------------------------------------------------------------------------
set {
	reference rhf
	basis 6-31G*
}


set_num_threads( 1 )
memory 2 gb

molecule MOL {
0 1

H	 1.720920	 0.251717	 -3.081193
O	 2.221219	 0.540421	 -2.330159
C	 1.473261	 0.522005	 -1.208823
C	 2.085744	 0.923954	 -0.025926
C	 0.150149	 0.125165	 -1.203565
H	 3.115100	 1.227885	 -0.056100
C	 1.372775	 0.927041	 1.155061
H	 -0.346777	 -0.189306	 -2.100057
C	 -0.536158	 0.140425	 0.000000
H	 1.853478	 1.238864	 2.063657
C	 0.041863	 0.532662	 1.186419
N	 -1.935604	 -0.280333	 0.000000
H	 -0.524231	 0.529693	 2.094678
O	 -2.161694	 -1.452901	 0.000000
O	 -2.770341	 0.571417	 0.000000

	symmetry c1
}
set optking {
	frozen_dihedral = ("
		4 3 2 1
	")
}

ee = energy('scf')
oeprop('DIPOLE', 'QUADRUPOLE', 'MULLIKEN_CHARGES')
f=open( 'psi4out.xyz', 'w' )
f.write( "15  " )
f.write( str(ee) + "\n" )
f.write( MOL.save_string_xyz() )
f.close()
--------------------------------------------------------------------------

  Memory set to   2.000 GiB by Python script.

*** tstart() called on cx1-1-4-3.cx1.hpc.ic.ac.uk
*** at Tue Jul  5 16:47:44 2016


         ---------------------------------------------------------
                                   SCF
            by Justin Turney, Rob Parrish, and Andy Simmonett
                              RHF Reference
                        1 Threads,   2000 MiB Core
         ---------------------------------------------------------

  ==> Geometry <==

    Molecular point group: c1
    Full point group: C1

    Geometry (in Angstrom), charge = 0, multiplicity = 1:

       Center              X                  Y                   Z               Mass       
    ------------   -----------------  -----------------  -----------------  -----------------
           H          1.789597685395     0.023293540329    -2.796930397929     1.007825032070
           O          2.289896685395     0.311997540329    -2.045896397929    15.994914619560
           C          1.541938685395     0.293581540329    -0.924560397929    12.000000000000
           C          2.154421685395     0.695530540329     0.258336602071    12.000000000000
           C          0.218826685395    -0.103258459671    -0.919302397929    12.000000000000
           H          3.183777685395     0.999461540329     0.228162602071     1.007825032070
           C          1.441452685395     0.698617540329     1.439323602071    12.000000000000
           H         -0.278099314605    -0.417729459671    -1.815794397929     1.007825032070
           C         -0.467480314605    -0.087998459671     0.284262602071    12.000000000000
           H          1.922155685395     1.010440540329     2.347919602071     1.007825032070
           C          0.110540685395     0.304238540329     1.470681602071    12.000000000000
           N         -1.866926314605    -0.508756459671     0.284262602071    14.003074004780
           H         -0.455553314605     0.301269540329     2.378940602071     1.007825032070
           O         -2.093016314605    -1.681324459671     0.284262602071    15.994914619560
           O         -2.701663314605     0.342993540329     0.284262602071    15.994914619560

  Running in c1 symmetry.

  Rotational constants: A =      0.09206  B =      0.03148  C =      0.02594 [cm^-1]
  Rotational constants: A =   2759.75609  B =    943.82967  C =    777.64123 [MHz]
  Nuclear repulsion =  501.832865964022744

  Charge       = 0
  Multiplicity = 1
  Electrons    = 72
  Nalpha       = 36
  Nbeta        = 36

  ==> Algorithm <==

  SCF Algorithm Type is DF.
  DIIS enabled.
  MOM disabled.
  Fractional occupation disabled.
  Guess Type is CORE.
  Energy threshold   = 1.00e-06
  Density threshold  = 1.00e-06
  Integral threshold = 0.00e+00

  ==> Primary Basis <==

  Basis Set: 6-31G*
    Number of shells: 70
    Number of basis function: 160
    Number of Cartesian functions: 160
    Spherical Harmonics?: false
    Max angular momentum: 2

  ==> Pre-Iterations <==

   -------------------------------------------------------
    Irrep   Nso     Nmo     Nalpha   Nbeta   Ndocc  Nsocc
   -------------------------------------------------------
     A        160     160       0       0       0       0
   -------------------------------------------------------
    Total     160     160      36      36      36       0
   -------------------------------------------------------

 OEINTS: Overlap, kinetic, potential, dipole, and quadrupole integrals
         stored in file 35.

  ==> Integral Setup <==

  ==> DFJK: Density-Fitted J/K Matrices <==

    J tasked:                  Yes
    K tasked:                  Yes
    wK tasked:                  No
    OpenMP threads:              1
    Integrals threads:           1
    Memory (MB):              1430
    Algorithm:                Core
    Integral Cache:           NONE
    Schwarz Cutoff:          1E-12
    Fitting Condition:       1E-12

   => Auxiliary Basis Set <=

  Basis Set: 
    Number of shells: 285
    Number of basis function: 935
    Number of Cartesian functions: 935
    Spherical Harmonics?: false
    Max angular momentum: 3

  Minimum eigenvalue in the overlap matrix is 4.1841908387E-04.
  Using Symmetric Orthogonalization.
  SCF Guess: Core (One-Electron) Hamiltonian.

  ==> Iterations <==

                           Total Energy        Delta E     RMS |[F,P]|

   @DF-RHF iter   1:  -421.50435677852022   -4.21504e+02   6.04100e-02 
   @DF-RHF iter   2:  -312.75076556495776    1.08754e+02   5.65326e-02 DIIS
   @DF-RHF iter   3:  -321.58867685991106   -8.83791e+00   7.22502e-02 DIIS
   @DF-RHF iter   4:  -494.62718842109382   -1.73039e+02   2.45208e-02 DIIS
   @DF-RHF iter   5:  -501.36811163999425   -6.74092e+00   2.15556e-02 DIIS
   @DF-RHF iter   6:  -508.28281588736809   -6.91470e+00   7.31796e-03 DIIS
   @DF-RHF iter   7:  -508.85009145979450   -5.67276e-01   3.06494e-03 DIIS
   @DF-RHF iter   8:  -508.97113407036443   -1.21043e-01   1.51689e-03 DIIS
   @DF-RHF iter   9:  -509.01357271417203   -4.24386e-02   3.65928e-04 DIIS
   @DF-RHF iter  10:  -509.01577766577645   -2.20495e-03   1.45239e-04 DIIS
   @DF-RHF iter  11:  -509.01635613735436   -5.78472e-04   7.90569e-05 DIIS
   @DF-RHF iter  12:  -509.01649863043951   -1.42493e-04   3.71616e-05 DIIS
   @DF-RHF iter  13:  -509.01655001809479   -5.13877e-05   1.61078e-05 DIIS
   @DF-RHF iter  14:  -509.01655980357248   -9.78548e-06   6.49726e-06 DIIS
   @DF-RHF iter  15:  -509.01656219669383   -2.39312e-06   3.04252e-06 DIIS
   @DF-RHF iter  16:  -509.01656272197602   -5.25282e-07   1.17291e-06 DIIS
   @DF-RHF iter  17:  -509.01656278293024   -6.09542e-08   3.54705e-07 DIIS

  ==> Post-Iterations <==

    Orbital Energies (a.u.)
    -----------------------

    Doubly Occupied:                                                      

       1A    -20.618392     2A    -20.610121     3A    -20.609335  
       4A    -15.859494     5A    -11.334087     6A    -11.319246  
       7A    -11.269680     8A    -11.269490     9A    -11.264109  
      10A    -11.255268    11A     -1.640929    12A     -1.438699  
      13A     -1.422578    14A     -1.202659    15A     -1.096699  
      16A     -1.049538    17A     -0.966979    18A     -0.884515  
      19A     -0.830776    20A     -0.788760    21A     -0.763687  
      22A     -0.733400    23A     -0.721641    24A     -0.710826  
      25A     -0.667920    26A     -0.636314    27A     -0.618217  
      28A     -0.593240    29A     -0.563943    30A     -0.549318  
      31A     -0.532170    32A     -0.489792    33A     -0.487532  
      34A     -0.454031    35A     -0.374059    36A     -0.344076  

    Virtual:                                                              

      37A      0.101054    38A      0.117742    39A      0.131407  
      40A      0.200609    41A      0.221489    42A      0.278718  
      43A      0.292662    44A      0.314495    45A      0.344893  
      46A      0.373444    47A      0.404568    48A      0.438203  
      49A      0.449573    50A      0.510268    51A      0.563777  
      52A      0.571042    53A      0.603698    54A      0.618731  
      55A      0.670653    56A      0.703500    57A      0.714630  
      58A      0.746140    59A      0.792585    60A      0.796493  
      61A      0.798388    62A      0.803645    63A      0.817687  
      64A      0.861168    65A      0.872083    66A      0.880257  
      67A      0.890168    68A      0.914956    69A      0.937400  
      70A      0.978550    71A      0.998450    72A      1.038028  
      73A      1.047236    74A      1.086083    75A      1.090476  
      76A      1.096630    77A      1.108523    78A      1.111294  
      79A      1.142603    80A      1.160554    81A      1.179542  
      82A      1.212112    83A      1.217827    84A      1.234449  
      85A      1.238844    86A      1.284785    87A      1.289098  
      88A      1.316933    89A      1.340917    90A      1.367456  
      91A      1.383041    92A      1.429028    93A      1.446088  
      94A      1.460817    95A      1.552241    96A      1.593406  
      97A      1.599019    98A      1.660268    99A      1.671588  
     100A      1.687511   101A      1.726968   102A      1.732158  
     103A      1.779387   104A      1.820349   105A      1.969887  
     106A      1.976035   107A      2.001102   108A      2.016463  
     109A      2.044220   110A      2.060187   111A      2.076108  
     112A      2.105449   113A      2.115092   114A      2.148921  
     115A      2.173291   116A      2.222034   117A      2.256617  
     118A      2.262888   119A      2.279476   120A      2.331064  
     121A      2.374773   122A      2.376927   123A      2.417744  
     124A      2.425687   125A      2.445828   126A      2.449333  
     127A      2.525481   128A      2.549843   129A      2.604459  
     130A      2.624171   131A      2.725097   132A      2.776359  
     133A      2.787128   134A      2.818568   135A      2.862374  
     136A      2.914852   137A      2.956255   138A      2.997886  
     139A      3.058604   140A      3.078865   141A      3.091436  
     142A      3.142195   143A      3.223372   144A      3.242478  
     145A      3.269892   146A      3.277611   147A      3.326248  
     148A      3.476794   149A      3.507705   150A      3.814311  
     151A      4.232160   152A      4.245291   153A      4.325345  
     154A      4.371908   155A      4.507779   156A      4.539704  
     157A      4.609386   158A      4.763271   159A      4.870198  
     160A      5.163311  

    Final Occupation by Irrep:
              A 
    DOCC [    36 ]

  Energy converged.

  @DF-RHF Final Energy:  -509.01656278293024

   => Energetics <=

    Nuclear Repulsion Energy =            501.8328659640227443
    One-Electron Energy =               -1689.7556990232383214
    Two-Electron Energy =                 678.9062702762853405
    DFT Exchange-Correlation Energy =       0.0000000000000000
    Empirical Dispersion Energy =           0.0000000000000000
    PCM Polarization Energy =               0.0000000000000000
    EFP Energy =                            0.0000000000000000
    Total Energy =                       -509.0165627829301229

    Alert: EFP and PCM quantities not currently incorporated into SCF psivars.

Properties will be evaluated at   0.000000,   0.000000,   0.000000 Bohr
  ==> Properties <==


Properties computed using the SCF density matrix

  Nuclear Dipole Moment: (a.u.)
     X:     5.7700      Y:     1.7934      Z:     0.3130

  Electronic Dipole Moment: (a.u.)
     X:    -4.4625      Y:    -1.4379      Z:    -0.5536

  Dipole Moment: (a.u.)
     X:     1.3074      Y:     0.3555      Z:    -0.2407     Total:     1.3761

  Dipole Moment: (Debye)
     X:     3.3232      Y:     0.9037      Z:    -0.6117     Total:     3.4978


  Saving occupied orbitals to File 180.

*** tstop() called on cx1-1-4-3.cx1.hpc.ic.ac.uk at Tue Jul  5 16:48:10 2016
Module time:
	user time   =      25.45 seconds =       0.42 minutes
	system time =       0.26 seconds =       0.00 minutes
	total time  =         26 seconds =       0.43 minutes
Total time:
	user time   =      25.45 seconds =       0.42 minutes
	system time =       0.26 seconds =       0.00 minutes
	total time  =         26 seconds =       0.43 minutes


Properties will be evaluated at   0.000000,   0.000000,   0.000000 Bohr

Properties computed using the  density matrix

  Nuclear Dipole Moment: (a.u.)
     X:     5.7700      Y:     1.7934      Z:     0.3130

  Electronic Dipole Moment: (a.u.)
     X:    -4.4625      Y:    -1.4379      Z:    -0.5536

  Dipole Moment: (a.u.)
     X:     1.3074      Y:     0.3555      Z:    -0.2407     Total:     1.3761

  Dipole Moment: (Debye)
     X:     3.3232      Y:     0.9037      Z:    -0.6117     Total:     3.4978

  Quadrupole Moment: (Debye Ang)
    XX:   -67.9429     YY:   -62.8219     ZZ:   -43.8948
    XY:    -0.8933     XZ:     3.1298     YZ:     3.5508

  Traceless Quadrupole Moment: (Debye Ang)
    XX:    -9.7230     YY:    -4.6021     ZZ:    14.3251
    XY:    -0.8933     XZ:     3.1298     YZ:     3.5508

  Mulliken Charges: (a.u.)
   Center  Symbol    Alpha    Beta     Spin     Total
       1     H     0.26748  0.26748  0.00000  0.46503
       2     O     4.37439  4.37439  0.00000 -0.74878
       3     C     2.79008  2.79008  0.00000  0.41983
       4     C     3.11625  3.11625  0.00000 -0.23249
       5     C     3.13412  3.13412  0.00000 -0.26824
       6     H     0.38219  0.38219  0.00000  0.23563
       7     C     3.09499  3.09499  0.00000 -0.18997
       8     H     0.38167  0.38167  0.00000  0.23666
       9     C     2.88634  2.88634  0.00000  0.22733
      10     H     0.38628  0.38628  0.00000  0.22745
      11     C     3.10094  3.10094  0.00000 -0.20189
      12     N     3.26070  3.26070  0.00000  0.47859
      13     H     0.37796  0.37796  0.00000  0.24407
      14     O     4.22402  4.22402  0.00000 -0.44804
      15     O     4.22259  4.22259  0.00000 -0.44517

   Total alpha = 36.00000, Total beta = 36.00000, Total charge =  0.00000


*** PSI4 exiting successfully. Buy a developer a beer!
