    -----------------------------------------------------------------------
          Psi4: An Open-Source Ab Initio Electronic Structure Package
                              Psi4 (no tag) Driver

                          Git: Rev {detached?}  

    J. M. Turney, A. C. Simmonett, R. M. Parrish, E. G. Hohenstein,
    F. A. Evangelista, J. T. Fermann, B. J. Mintz, L. A. Burns, J. J. Wilke,
    M. L. Abrams, N. J. Russ, M. L. Leininger, C. L. Janssen, E. T. Seidl,
    W. D. Allen, H. F. Schaefer, R. A. King, E. F. Valeev, C. D. Sherrill,
    and T. D. Crawford, WIREs Comput. Mol. Sci. 2, 556-565 (2012)
    (doi: 10.1002/wcms.93)

                         Additional Contributions by
    A. E. DePrince, M. Saitow, U. Bozkaya, A. Yu. Sokolov
    -----------------------------------------------------------------------


    Psi4 started on: Tue Jul  5 16:30:17 2016

    Process ID:  17149
    PSI4DATADIR: /export131/home/mjharvey/miniconda3/share
    Memory level set to 256.000 MB

  ==> Input File <==

--------------------------------------------------------------------------
set {
	reference rhf
	basis 6-31G*
}


set_num_threads( 1 )
memory 2 gb

molecule MOL {
0 1

H	 2.049054	 0.340177	 -0.984265
O	 1.276772	 -0.214622	 -1.034347
C	 0.489431	 0.077273	 0.000046
C	 -0.764129	 -0.759190	 0.000191
O	 0.778117	 0.903867	 0.802523
C	 -2.038368	 0.075731	 -0.000248
H	 -0.717284	 -1.412404	 -0.866059
H	 -0.717458	 -1.411724	 0.866967
H	 -2.086483	 0.712501	 -0.875098
H	 -2.908485	 -0.571682	 -0.000042
H	 -2.086576	 0.713280	 0.874068

	symmetry c1
}
set optking {
	frozen_dihedral = ("
		1 2 3 5
	")
}

ee = energy('scf')
oeprop('DIPOLE', 'QUADRUPOLE', 'MULLIKEN_CHARGES')
f=open( 'psi4out.xyz', 'w' )
f.write( "11  " )
f.write( str(ee) + "\n" )
f.write( MOL.save_string_xyz() )
f.close()
--------------------------------------------------------------------------

  Memory set to   2.000 GiB by Python script.

*** tstart() called on cx1-3-15-3.cx1.hpc.ic.ac.uk
*** at Tue Jul  5 16:30:17 2016


         ---------------------------------------------------------
                                   SCF
            by Justin Turney, Rob Parrish, and Andy Simmonett
                              RHF Reference
                        1 Threads,   2000 MiB Core
         ---------------------------------------------------------

  ==> Geometry <==

    Molecular point group: c1
    Full point group: C1

    Geometry (in Angstrom), charge = 0, multiplicity = 1:

       Center              X                  Y                   Z               Mass       
    ------------   -----------------  -----------------  -----------------  -----------------
           H          2.068056125713     0.311710374372    -0.920779401202     1.007825032070
           O          1.295774125713    -0.243088625628    -0.970861401202    15.994914619560
           C          0.508433125713     0.048806374372     0.063531598798    12.000000000000
           C         -0.745126874287    -0.787656625628     0.063676598798    12.000000000000
           O          0.797119125713     0.875400374372     0.866008598798    15.994914619560
           C         -2.019365874287     0.047264374372     0.063237598798    12.000000000000
           H         -0.698281874287    -1.440870625628    -0.802573401202     1.007825032070
           H         -0.698455874287    -1.440190625628     0.930452598798     1.007825032070
           H         -2.067480874287     0.684034374372    -0.811612401202     1.007825032070
           H         -2.889482874287    -0.600148625628     0.063443598798     1.007825032070
           H         -2.067573874287     0.684813374372     0.937553598798     1.007825032070

  Running in c1 symmetry.

  Rotational constants: A =      0.31208  B =      0.12807  C =      0.10198 [cm^-1]
  Rotational constants: A =   9355.88835  B =   3839.33833  C =   3057.15767 [MHz]
  Nuclear repulsion =  179.590273566922747

  Charge       = 0
  Multiplicity = 1
  Electrons    = 40
  Nalpha       = 20
  Nbeta        = 20

  ==> Algorithm <==

  SCF Algorithm Type is DF.
  DIIS enabled.
  MOM disabled.
  Fractional occupation disabled.
  Guess Type is CORE.
  Energy threshold   = 1.00e-06
  Density threshold  = 1.00e-06
  Integral threshold = 0.00e+00

  ==> Primary Basis <==

  Basis Set: 6-31G*
    Number of shells: 42
    Number of basis function: 87
    Number of Cartesian functions: 87
    Spherical Harmonics?: false
    Max angular momentum: 2

  ==> Pre-Iterations <==

   -------------------------------------------------------
    Irrep   Nso     Nmo     Nalpha   Nbeta   Ndocc  Nsocc
   -------------------------------------------------------
     A         87      87       0       0       0       0
   -------------------------------------------------------
    Total      87      87      20      20      20       0
   -------------------------------------------------------

 OEINTS: Overlap, kinetic, potential, dipole, and quadrupole integrals
         stored in file 35.

  ==> Integral Setup <==

  ==> DFJK: Density-Fitted J/K Matrices <==

    J tasked:                  Yes
    K tasked:                  Yes
    wK tasked:                  No
    OpenMP threads:              1
    Integrals threads:           1
    Memory (MB):              1430
    Algorithm:                Core
    Integral Cache:           NONE
    Schwarz Cutoff:          1E-12
    Fitting Condition:       1E-12

   => Auxiliary Basis Set <=

  Basis Set: 
    Number of shells: 174
    Number of basis function: 555
    Number of Cartesian functions: 555
    Spherical Harmonics?: false
    Max angular momentum: 3

  Minimum eigenvalue in the overlap matrix is 3.4011141204E-03.
  Using Symmetric Orthogonalization.
  SCF Guess: Core (One-Electron) Hamiltonian.

  ==> Iterations <==

                           Total Energy        Delta E     RMS |[F,P]|

   @DF-RHF iter   1:  -217.29591337081303   -2.17296e+02   8.21249e-02 
   @DF-RHF iter   2:  -154.18237649632607    6.31135e+01   9.41061e-02 DIIS
   @DF-RHF iter   3:  -249.73803002802447   -9.55557e+01   4.08185e-02 DIIS
   @DF-RHF iter   4:  -238.21144148535927    1.15266e+01   6.18949e-02 DIIS
   @DF-RHF iter   5:  -266.58992438665615   -2.83785e+01   7.97559e-03 DIIS
   @DF-RHF iter   6:  -266.77788256017357   -1.87958e-01   4.50854e-03 DIIS
   @DF-RHF iter   7:  -266.83094146252733   -5.30589e-02   1.55799e-03 DIIS
   @DF-RHF iter   8:  -266.84213427192685   -1.11928e-02   5.52355e-04 DIIS
   @DF-RHF iter   9:  -266.84350790724039   -1.37364e-03   1.94727e-04 DIIS
   @DF-RHF iter  10:  -266.84365873341454   -1.50826e-04   6.81720e-05 DIIS
   @DF-RHF iter  11:  -266.84368815312746   -2.94197e-05   1.68379e-05 DIIS
   @DF-RHF iter  12:  -266.84368982545539   -1.67233e-06   4.39632e-06 DIIS
   @DF-RHF iter  13:  -266.84368994957771   -1.24122e-07   1.18759e-06 DIIS
   @DF-RHF iter  14:  -266.84368996228346   -1.27058e-08   3.67826e-07 DIIS

  ==> Post-Iterations <==

    Orbital Energies (a.u.)
    -----------------------

    Doubly Occupied:                                                      

       1A    -20.615083     2A    -20.550711     3A    -11.381782  
       4A    -11.242557     5A    -11.227593     6A     -1.475696  
       7A     -1.366225     8A     -1.067280     9A     -0.917492  
      10A     -0.807931    11A     -0.703429    12A     -0.687458  
      13A     -0.648245    14A     -0.607712    15A     -0.594459  
      16A     -0.539251    17A     -0.529917    18A     -0.507674  
      19A     -0.475656    20A     -0.442538  

    Virtual:                                                              

      21A      0.187630    22A      0.231262    23A      0.258066  
      24A      0.291412    25A      0.300670    26A      0.319623  
      27A      0.335158    28A      0.397399    29A      0.430364  
      30A      0.490944    31A      0.546120    32A      0.722465  
      33A      0.730303    34A      0.747931    35A      0.794415  
      36A      0.836198    37A      0.870646    38A      0.948309  
      39A      0.955378    40A      0.992794    41A      1.057671  
      42A      1.087510    43A      1.093117    44A      1.139825  
      45A      1.159598    46A      1.195971    47A      1.211125  
      48A      1.230859    49A      1.235735    50A      1.256723  
      51A      1.338677    52A      1.365398    53A      1.369471  
      54A      1.478979    55A      1.606103    56A      1.663904  
      57A      1.720572    58A      1.837641    59A      1.854498  
      60A      1.949800    61A      2.025730    62A      2.074868  
      63A      2.095658    64A      2.135258    65A      2.145013  
      66A      2.221031    67A      2.266935    68A      2.270230  
      69A      2.361068    70A      2.433081    71A      2.592842  
      72A      2.606303    73A      2.667711    74A      2.712254  
      75A      2.771316    76A      2.836818    77A      2.935095  
      78A      3.066816    79A      3.090292    80A      3.243376  
      81A      3.374645    82A      3.474530    83A      4.250917  
      84A      4.534577    85A      4.601154    86A      4.728458  
      87A      4.963197  

    Final Occupation by Irrep:
              A 
    DOCC [    20 ]

  Energy converged.

  @DF-RHF Final Energy:  -266.84368996228346

   => Energetics <=

    Nuclear Repulsion Energy =            179.5902735669227468
    One-Electron Energy =                -720.0905369155113931
    Two-Electron Energy =                 273.6565733863049559
    DFT Exchange-Correlation Energy =       0.0000000000000000
    Empirical Dispersion Energy =           0.0000000000000000
    PCM Polarization Energy =               0.0000000000000000
    EFP Energy =                            0.0000000000000000
    Total Energy =                       -266.8436899622836904

    Alert: EFP and PCM quantities not currently incorporated into SCF psivars.

Properties will be evaluated at   0.000000,   0.000000,   0.000000 Bohr
  ==> Properties <==


Properties computed using the SCF density matrix

  Nuclear Dipole Moment: (a.u.)
     X:    -5.9459      Y:    -1.6850      Z:    -0.5663

  Electronic Dipole Moment: (a.u.)
     X:     5.7538      Y:     1.2340      Z:     0.1040

  Dipole Moment: (a.u.)
     X:    -0.1921      Y:    -0.4510      Z:    -0.4623     Total:     0.6738

  Dipole Moment: (Debye)
     X:    -0.4883      Y:    -1.1464      Z:    -1.1749     Total:     1.7127


  Saving occupied orbitals to File 180.

*** tstop() called on cx1-3-15-3.cx1.hpc.ic.ac.uk at Tue Jul  5 16:30:21 2016
Module time:
	user time   =       3.24 seconds =       0.05 minutes
	system time =       0.02 seconds =       0.00 minutes
	total time  =          4 seconds =       0.07 minutes
Total time:
	user time   =       3.24 seconds =       0.05 minutes
	system time =       0.02 seconds =       0.00 minutes
	total time  =          4 seconds =       0.07 minutes


Properties will be evaluated at   0.000000,   0.000000,   0.000000 Bohr

Properties computed using the  density matrix

  Nuclear Dipole Moment: (a.u.)
     X:    -5.9459      Y:    -1.6850      Z:    -0.5663

  Electronic Dipole Moment: (a.u.)
     X:     5.7538      Y:     1.2340      Z:     0.1040

  Dipole Moment: (a.u.)
     X:    -0.1921      Y:    -0.4510      Z:    -0.4623     Total:     0.6738

  Dipole Moment: (Debye)
     X:    -0.4883      Y:    -1.1464      Z:    -1.1749     Total:     1.7127

  Quadrupole Moment: (Debye Ang)
    XX:   -25.8518     YY:   -31.2936     ZZ:   -32.6349
    XY:     0.7885     XZ:    -2.1345     YZ:    -3.6119

  Traceless Quadrupole Moment: (Debye Ang)
    XX:     4.0749     YY:    -1.3668     ZZ:    -2.7082
    XY:     0.7885     XZ:    -2.1345     YZ:    -3.6119

  Mulliken Charges: (a.u.)
   Center  Symbol    Alpha    Beta     Spin     Total
       1     H     0.26855  0.26855  0.00000  0.46290
       2     O     4.34796  4.34796  0.00000 -0.69591
       3     C     2.62622  2.62622  0.00000  0.74756
       4     C     3.20762  3.20762  0.00000 -0.41524
       5     O     4.27842  4.27842  0.00000 -0.55684
       6     C     3.24642  3.24642  0.00000 -0.49285
       7     H     0.39842  0.39842  0.00000  0.20315
       8     H     0.39803  0.39803  0.00000  0.20395
       9     H     0.41287  0.41287  0.00000  0.17426
      10     H     0.41234  0.41234  0.00000  0.17533
      11     H     0.40316  0.40316  0.00000  0.19368

   Total alpha = 20.00000, Total beta = 20.00000, Total charge =  0.00000


*** PSI4 exiting successfully. Buy a developer a beer!
