
    -----------------------------------------------------------------------
          Psi4: An Open-Source Ab Initio Electronic Structure Package
                               Psi4 1.1 release

                         Git: Rev {HEAD} add49b9 


    R. M. Parrish, L. A. Burns, D. G. A. Smith, A. C. Simmonett,
    A. E. DePrince III, E. G. Hohenstein, U. Bozkaya, A. Yu. Sokolov,
    R. Di Remigio, R. M. Richard, J. F. Gonthier, A. M. James,
    H. R. McAlexander, A. Kumar, M. Saitow, X. Wang, B. P. Pritchard,
    P. Verma, H. F. Schaefer III, K. Patkowski, R. A. King, E. F. Valeev,
    F. A. Evangelista, J. M. Turney, T. D. Crawford, and C. D. Sherrill,
    J. Chem. Theory Comput. in press (2017).
    (doi: 10.1021/acs.jctc.7b00174)

    -----------------------------------------------------------------------


    Psi4 started on: Friday, 15 September 2017 12:47PM

    Process ID:  13485
    PSIDATADIR: /home/raimis/opt/miniconda3/envs/htmd/share/psi4
    Memory:     500.0 MiB
    Threads:    1
    
  ==> Input File <==

--------------------------------------------------------------------------
set_num_threads( 8 )
memory 2.000000 gb

set { reference rks }
set { basis cc-pVDZ }

molecule MOL {
    0 1
    noreorient
    nocom
    symmetry c1
    O    1.050400   0.042900  -0.048100
    C    2.474100   0.047400  -0.029000
    C    3.002600  -1.068900  -0.932000
    N    4.462700  -1.072400  -1.006800
    H    0.760400   0.728400   0.578000
    H    2.809900  -0.097900   1.003200
    H    2.817400   1.026800  -0.378600
    H    2.581000  -0.963300  -1.938400
    H    2.653800  -2.036400  -0.553400
    H    4.837106  -1.667066  -0.268102
    H    4.803636  -0.132042  -0.807448
}

set optking { frozen_dihedral = (" 2 3 4 10 ") }

energy, wfn = energy('B3LYP-D3', return_wfn=True)

import os
os.chdir(os.environ['HTMD_PSI4_WORKDIR'])

oeprop(wfn, 'DIPOLE', 'QUADRUPOLE', 'MULLIKEN_CHARGES')

with open('psi4out.xyz', 'w') as f:
    f.write('11 ' )
    f.write('%.12f\n' % energy)
    f.write(MOL.save_string_xyz())
--------------------------------------------------------------------------
  Threads set to 8 by Python driver.

  Memory set to   1.863 GiB by Python driver.

*** tstart() called on computer03
*** at Fri Sep 15 12:47:32 2017

   => Loading Basis Set <=

    Name: CC-PVDZ
    Role: ORBITAL
    Keyword: BASIS
    atoms 1    entry O          line   190 file /home/raimis/opt/miniconda3/envs/htmd/share/psi4/basis/cc-pvdz.gbs 
    atoms 2-3  entry C          line   130 file /home/raimis/opt/miniconda3/envs/htmd/share/psi4/basis/cc-pvdz.gbs 
    atoms 4    entry N          line   160 file /home/raimis/opt/miniconda3/envs/htmd/share/psi4/basis/cc-pvdz.gbs 
    atoms 5-11 entry H          line    20 file /home/raimis/opt/miniconda3/envs/htmd/share/psi4/basis/cc-pvdz.gbs 


         ---------------------------------------------------------
                                   SCF
            by Justin Turney, Rob Parrish, and Andy Simmonett
                              RKS Reference
                        8 Threads,   1907 MiB Core
         ---------------------------------------------------------

  ==> Geometry <==

    Molecular point group: c1
    Full point group: C1

    Geometry (in Angstrom), charge = 0, multiplicity = 1:

       Center              X                  Y                   Z               Mass       
    ------------   -----------------  -----------------  -----------------  -----------------
           O          1.050400000000     0.042900000000    -0.048100000000    15.994914619560
           C          2.474100000000     0.047400000000    -0.029000000000    12.000000000000
           C          3.002600000000    -1.068900000000    -0.932000000000    12.000000000000
           N          4.462700000000    -1.072400000000    -1.006800000000    14.003074004780
           H          0.760400000000     0.728400000000     0.578000000000     1.007825032070
           H          2.809900000000    -0.097900000000     1.003200000000     1.007825032070
           H          2.817400000000     1.026800000000    -0.378600000000     1.007825032070
           H          2.581000000000    -0.963300000000    -1.938400000000     1.007825032070
           H          2.653800000000    -2.036400000000    -0.553400000000     1.007825032070
           H          4.837106000000    -1.667066000000    -0.268102000000     1.007825032070
           H          4.803636000000    -0.132042000000    -0.807448000000     1.007825032070

  Running in c1 symmetry.

  Rotational constants: A =      0.72370  B =      0.02779  C =      0.02712 [cm^-1]
  Rotational constants: A =  21695.83175  B =    832.99457  C =    813.14403 [MHz]
  Nuclear repulsion =  130.861062384525724

  Charge       = 0
  Multiplicity = 1
  Electrons    = 34
  Nalpha       = 17
  Nbeta        = 17

  ==> Algorithm <==

  SCF Algorithm Type is DF.
  DIIS enabled.
  MOM disabled.
  Fractional occupation disabled.
  Guess Type is SAD.
  Energy threshold   = 1.00e-06
  Density threshold  = 1.00e-06
  Integral threshold = 0.00e+00

  ==> Primary Basis <==

  Basis Set: CC-PVDZ
    Blend: CC-PVDZ
    Number of shells: 45
    Number of basis function: 91
    Number of Cartesian functions: 95
    Spherical Harmonics?: true
    Max angular momentum: 2

  ==> DFT Potential <==

   => B3LYP Composite Functional <= 

    B3LYP Hybrid-GGA Exchange-Correlation Functional (VWN1-RPA)

    P.J. Stephens et. al., J. Phys. Chem., 98, 11623-11627, 1994

    Points   =           5000
    Deriv    =              1
    GGA      =           TRUE
    Meta     =          FALSE

    X_LRC        =          FALSE
    X_Hybrid     =           TRUE
    X_Alpha      =   2.000000E-01
    X_Omega      =   0.000000E+00
    C_LRC        =          FALSE
    C_Hybrid     =          FALSE
    C_Alpha      =   0.000000E+00
    C_Omega      =   0.000000E+00

   => Exchange Functionals <=

    0.8000    B3_X
    0.2000      HF 

   => Correlation Functionals <=

    0.1900 VWN3RPA_C
    0.8100   LYP_C

   => Molecular Quadrature <=

    Radial Scheme    =       TREUTLER
    Pruning Scheme   =           FLAT
    Nuclear Scheme   =       TREUTLER

    BS radius alpha  =              1
    Pruning alpha    =              1
    Radial Points    =             75
    Spherical Points =            302
    Total Points     =         245080
    Total Blocks     =            220
    Max Points       =           4891
    Max Functions    =             91

   => -D3ZERO: Empirical Dispersion <=

    Grimme's -D3 (zero-damping) Dispersion Correction
    Grimme S.; Antony J.; Ehrlich S.; Krieg H. (2010), J. Chem. Phys., 132: 154104

        S6 =   1.000000E+00
        S8 =   1.703000E+00
       SR6 =   1.261000E+00
    ALPHA6 =   1.400000E+01

   => Loading Basis Set <=

    Name: (CC-PVDZ AUX)
    Role: JKFIT
    Keyword: DF_BASIS_SCF
    atoms 1    entry O          line   220 file /home/raimis/opt/miniconda3/envs/htmd/share/psi4/basis/cc-pvdz-jkfit.gbs 
    atoms 2-3  entry C          line   120 file /home/raimis/opt/miniconda3/envs/htmd/share/psi4/basis/cc-pvdz-jkfit.gbs 
    atoms 4    entry N          line   170 file /home/raimis/opt/miniconda3/envs/htmd/share/psi4/basis/cc-pvdz-jkfit.gbs 
    atoms 5-11 entry H          line    50 file /home/raimis/opt/miniconda3/envs/htmd/share/psi4/basis/cc-pvdz-jkfit.gbs 

  ==> Pre-Iterations <==

   -------------------------------------------------------
    Irrep   Nso     Nmo     Nalpha   Nbeta   Ndocc  Nsocc
   -------------------------------------------------------
     A         91      91       0       0       0       0
   -------------------------------------------------------
    Total      91      91      17      17      17       0
   -------------------------------------------------------

  ==> Integral Setup <==

  ==> DFJK: Density-Fitted J/K Matrices <==

    J tasked:                  Yes
    K tasked:                  Yes
    wK tasked:                  No
    OpenMP threads:              8
    Integrals threads:           8
    Memory (MB):              1430
    Algorithm:                Core
    Integral Cache:           NONE
    Schwarz Cutoff:          1E-12
    Fitting Condition:       1E-12

   => Auxiliary Basis Set <=

  Basis Set: (CC-PVDZ AUX)
    Blend: CC-PVDZ-JKFIT
    Number of shells: 159
    Number of basis function: 441
    Number of Cartesian functions: 499
    Spherical Harmonics?: true
    Max angular momentum: 3

  Minimum eigenvalue in the overlap matrix is 4.5546316786E-03.
  Using Symmetric Orthogonalization.

  SCF Guess: Superposition of Atomic Densities via on-the-fly atomic UHF.

  ==> Iterations <==

                           Total Energy        Delta E     RMS |[F,P]|

   @DF-RKS iter   0:  -210.82117802642060   -2.10821e+02   7.06730e-02 
   @DF-RKS iter   1:  -210.20139605064401    6.19782e-01   1.45403e-02 
   @DF-RKS iter   2:  -210.03564799947938    1.65748e-01   1.97587e-02 DIIS
   @DF-RKS iter   3:  -210.38927513399275   -3.53627e-01   1.24531e-03 DIIS
   @DF-RKS iter   4:  -210.39021544092418   -9.40307e-04   7.63043e-04 DIIS
   @DF-RKS iter   5:  -210.39074677627019   -5.31335e-04   8.87667e-05 DIIS
   @DF-RKS iter   6:  -210.39075298587409   -6.20960e-06   4.61647e-05 DIIS
   @DF-RKS iter   7:  -210.39075509219060   -2.10632e-06   4.13270e-06 DIIS
   @DF-RKS iter   8:  -210.39075510697228   -1.47817e-08   1.61097e-06 DIIS
   @DF-RKS iter   9:  -210.39075510993942   -2.96714e-09   3.64642e-07 DIIS

  ==> Post-Iterations <==

    Orbital Energies (a.u.)
    -----------------------

    Doubly Occupied:                                                      

       1A    -19.129276     2A    -14.306832     3A    -10.226629  
       4A    -10.202177     5A     -1.011935     6A     -0.879505  
       7A     -0.711247     8A     -0.605461     9A     -0.506671  
      10A     -0.495641    11A     -0.446896    12A     -0.415855  
      13A     -0.398803    14A     -0.355322    15A     -0.330395  
      16A     -0.264205    17A     -0.234627  

    Virtual:                                                              

      18A      0.050049    19A      0.055104    20A      0.092828  
      21A      0.113077    22A      0.128313    23A      0.151294  
      24A      0.168875    25A      0.215387    26A      0.247551  
      27A      0.257059    28A      0.428959    29A      0.450261  
      30A      0.492886    31A      0.521731    32A      0.533430  
      33A      0.562988    34A      0.598587    35A      0.629218  
      36A      0.631871    37A      0.653264    38A      0.657814  
      39A      0.679565    40A      0.700245    41A      0.826720  
      42A      0.843467    43A      0.862102    44A      0.906911  
      45A      0.935104    46A      0.966761    47A      0.991092  
      48A      1.061128    49A      1.200305    50A      1.201715  
      51A      1.232107    52A      1.274076    53A      1.296748  
      54A      1.348789    55A      1.398611    56A      1.513760  
      57A      1.570184    58A      1.592181    59A      1.598795  
      60A      1.631622    61A      1.643255    62A      1.665865  
      63A      1.684703    64A      1.719891    65A      1.735397  
      66A      1.782305    67A      1.814984    68A      1.873559  
      69A      1.905030    70A      1.945598    71A      1.994386  
      72A      2.026297    73A      2.076873    74A      2.112278  
      75A      2.166858    76A      2.209285    77A      2.289602  
      78A      2.380882    79A      2.402476    80A      2.427792  
      81A      2.473205    82A      2.545891    83A      2.634047  
      84A      2.658284    85A      2.819379    86A      2.954350  
      87A      3.019557    88A      3.042127    89A      3.093821  
      90A      3.207681    91A      3.691842  

    Final Occupation by Irrep:
              A 
    DOCC [    17 ]

  Energy converged.

  @DF-RKS Final Energy:  -210.39075510993942

   => Energetics <=

    Nuclear Repulsion Energy =            130.8610623845257237
    One-Electron Energy =                -544.5784430557614542
    Two-Electron Energy =                 226.8183747297049138
    DFT Exchange-Correlation Energy =     -23.4867160884085955
    Empirical Dispersion Energy =          -0.0050330800000000
    PCM Polarization Energy =               0.0000000000000000
    EFP Energy =                            0.0000000000000000
    Total Energy =                       -210.3907551099394198



Properties will be evaluated at   0.000000,   0.000000,   0.000000 Bohr

Properties computed using the SCF density matrix

  Nuclear Dipole Moment: (a.u.)
     X:   177.1912      Y:   -31.0560      Z:   -29.4101

  Electronic Dipole Moment: (a.u.)
     X:  -176.9817      Y:    31.5531      Z:    30.2343

  Dipole Moment: (a.u.)
     X:     0.2095      Y:     0.4972      Z:     0.8242     Total:     0.9851

  Dipole Moment: (Debye)
     X:     0.5325      Y:     1.2637      Z:     2.0949     Total:     2.5038


*** tstop() called on computer03 at Fri Sep 15 12:47:52 2017
Module time:
	user time   =      38.07 seconds =       0.63 minutes
	system time =       0.82 seconds =       0.01 minutes
	total time  =         20 seconds =       0.33 minutes
Total time:
	user time   =      38.07 seconds =       0.63 minutes
	system time =       0.82 seconds =       0.01 minutes
	total time  =         20 seconds =       0.33 minutes


Properties will be evaluated at   0.000000,   0.000000,   0.000000 Bohr

Properties computed using the  density matrix

  Nuclear Dipole Moment: (a.u.)
     X:   177.1912      Y:   -31.0560      Z:   -29.4101

  Electronic Dipole Moment: (a.u.)
     X:  -176.9817      Y:    31.5531      Z:    30.2343

  Dipole Moment: (a.u.)
     X:     0.2095      Y:     0.4972      Z:     0.8242     Total:     0.9851

  Dipole Moment: (Debye)
     X:     0.5325      Y:     1.2637      Z:     2.0949     Total:     2.5038

  Quadrupole Moment: (Debye Ang)
    XX:   -24.2550     YY:   -24.1940     ZZ:   -27.6891
    XY:     2.3135     XZ:     6.6608     YZ:    -1.4276

  Traceless Quadrupole Moment: (Debye Ang)
    XX:     1.1243     YY:     1.1854     ZZ:    -2.3097
    XY:     2.3135     XZ:     6.6608     YZ:    -1.4276

  Mulliken Charges: (a.u.)
   Center  Symbol    Alpha    Beta     Spin     Total
       1     O     4.13807  4.13807  0.00000 -0.27613
       2     C     2.94353  2.94353  0.00000  0.11293
       3     C     2.97838  2.97838  0.00000  0.04325
       4     N     3.59020  3.59020  0.00000 -0.18041
       5     H     0.43078  0.43078  0.00000  0.13845
       6     H     0.50600  0.50600  0.00000 -0.01200
       7     H     0.50119  0.50119  0.00000 -0.00239
       8     H     0.48924  0.48924  0.00000  0.02152
       9     H     0.49144  0.49144  0.00000  0.01713
      10     H     0.46364  0.46364  0.00000  0.07272
      11     H     0.46753  0.46753  0.00000  0.06494

   Total alpha = 17.00000, Total beta = 17.00000, Total charge =  0.00000


*** Psi4 exiting successfully. Buy a developer a beer!
