    -----------------------------------------------------------------------
          Psi4: An Open-Source Ab Initio Electronic Structure Package
                              Psi4 (no tag) Driver

                          Git: Rev {detached?}  

    J. M. Turney, A. C. Simmonett, R. M. Parrish, E. G. Hohenstein,
    F. A. Evangelista, J. T. Fermann, B. J. Mintz, L. A. Burns, J. J. Wilke,
    M. L. Abrams, N. J. Russ, M. L. Leininger, C. L. Janssen, E. T. Seidl,
    W. D. Allen, H. F. Schaefer, R. A. King, E. F. Valeev, C. D. Sherrill,
    and T. D. Crawford, WIREs Comput. Mol. Sci. 2, 556-565 (2012)
    (doi: 10.1002/wcms.93)

                         Additional Contributions by
    A. E. DePrince, M. Saitow, U. Bozkaya, A. Yu. Sokolov
    -----------------------------------------------------------------------


    Psi4 started on: Tue Jul  5 16:30:37 2016

    Process ID:  17174
    PSI4DATADIR: /export131/home/mjharvey/miniconda3/share
    Memory level set to 256.000 MB

  ==> Input File <==

--------------------------------------------------------------------------
set {
	reference rhf
	basis 6-31G*
}


set_num_threads( 1 )
memory 2 gb

molecule MOL {
0 1

H	 1.502306	 1.159534	 -1.128319
O	 0.702178	 0.646463	 -1.185636
C	 0.489431	 0.077273	 0.000046
C	 -0.764129	 -0.759190	 0.000191
O	 1.223917	 0.235792	 0.919811
C	 -2.038368	 0.075731	 -0.000248
H	 -0.717284	 -1.412404	 -0.866059
H	 -0.717458	 -1.411724	 0.866967
H	 -2.086483	 0.712501	 -0.875098
H	 -2.908485	 -0.571682	 -0.000042
H	 -2.086576	 0.713280	 0.874068

	symmetry c1
}
set optking {
	frozen_dihedral = ("
		1 2 3 5
	")
}

ee = energy('scf')
oeprop('DIPOLE', 'QUADRUPOLE', 'MULLIKEN_CHARGES')
f=open( 'psi4out.xyz', 'w' )
f.write( "11  " )
f.write( str(ee) + "\n" )
f.write( MOL.save_string_xyz() )
f.close()
--------------------------------------------------------------------------

  Memory set to   2.000 GiB by Python script.

*** tstart() called on cx1-3-15-3.cx1.hpc.ic.ac.uk
*** at Tue Jul  5 16:30:37 2016


         ---------------------------------------------------------
                                   SCF
            by Justin Turney, Rob Parrish, and Andy Simmonett
                              RHF Reference
                        1 Threads,   2000 MiB Core
         ---------------------------------------------------------

  ==> Geometry <==

    Molecular point group: c1
    Full point group: C1

    Geometry (in Angstrom), charge = 0, multiplicity = 1:

       Center              X                  Y                   Z               Mass       
    ------------   -----------------  -----------------  -----------------  -----------------
           H          1.556575399279     1.078215980841    -1.055526887272     1.007825032070
           O          0.756447399279     0.565144980841    -1.112843887272    15.994914619560
           C          0.543700399279    -0.004045019159     0.072838112728    12.000000000000
           C         -0.709859600721    -0.840508019159     0.072983112728    12.000000000000
           O          1.278186399279     0.154473980841     0.992603112728    15.994914619560
           C         -1.984098600721    -0.005587019159     0.072544112728    12.000000000000
           H         -0.663014600721    -1.493722019159    -0.793266887272     1.007825032070
           H         -0.663188600721    -1.493042019159     0.939759112728     1.007825032070
           H         -2.032213600721     0.631182980841    -0.802305887272     1.007825032070
           H         -2.854215600721    -0.653000019159     0.072750112728     1.007825032070
           H         -2.032306600721     0.631961980841     0.946860112728     1.007825032070

  Running in c1 symmetry.

  Rotational constants: A =      0.29819  B =      0.13053  C =      0.10540 [cm^-1]
  Rotational constants: A =   8939.61375  B =   3913.17353  C =   3159.67560 [MHz]
  Nuclear repulsion =  179.929729816461474

  Charge       = 0
  Multiplicity = 1
  Electrons    = 40
  Nalpha       = 20
  Nbeta        = 20

  ==> Algorithm <==

  SCF Algorithm Type is DF.
  DIIS enabled.
  MOM disabled.
  Fractional occupation disabled.
  Guess Type is CORE.
  Energy threshold   = 1.00e-06
  Density threshold  = 1.00e-06
  Integral threshold = 0.00e+00

  ==> Primary Basis <==

  Basis Set: 6-31G*
    Number of shells: 42
    Number of basis function: 87
    Number of Cartesian functions: 87
    Spherical Harmonics?: false
    Max angular momentum: 2

  ==> Pre-Iterations <==

   -------------------------------------------------------
    Irrep   Nso     Nmo     Nalpha   Nbeta   Ndocc  Nsocc
   -------------------------------------------------------
     A         87      87       0       0       0       0
   -------------------------------------------------------
    Total      87      87      20      20      20       0
   -------------------------------------------------------

 OEINTS: Overlap, kinetic, potential, dipole, and quadrupole integrals
         stored in file 35.

  ==> Integral Setup <==

  ==> DFJK: Density-Fitted J/K Matrices <==

    J tasked:                  Yes
    K tasked:                  Yes
    wK tasked:                  No
    OpenMP threads:              1
    Integrals threads:           1
    Memory (MB):              1430
    Algorithm:                Core
    Integral Cache:           NONE
    Schwarz Cutoff:          1E-12
    Fitting Condition:       1E-12

   => Auxiliary Basis Set <=

  Basis Set: 
    Number of shells: 174
    Number of basis function: 555
    Number of Cartesian functions: 555
    Spherical Harmonics?: false
    Max angular momentum: 3

  Minimum eigenvalue in the overlap matrix is 3.8647195567E-03.
  Using Symmetric Orthogonalization.
  SCF Guess: Core (One-Electron) Hamiltonian.

  ==> Iterations <==

                           Total Energy        Delta E     RMS |[F,P]|

   @DF-RHF iter   1:  -217.32528790824375   -2.17325e+02   8.22428e-02 
   @DF-RHF iter   2:  -155.53903941297784    6.17862e+01   9.19388e-02 DIIS
   @DF-RHF iter   3:  -249.57216167158299   -9.40331e+01   4.14314e-02 DIIS
   @DF-RHF iter   4:  -239.35038536025888    1.02218e+01   6.21607e-02 DIIS
   @DF-RHF iter   5:  -266.63920706189435   -2.72888e+01   7.34355e-03 DIIS
   @DF-RHF iter   6:  -266.79966045116004   -1.60453e-01   3.75608e-03 DIIS
   @DF-RHF iter   7:  -266.83607740609347   -3.64170e-02   1.25784e-03 DIIS
   @DF-RHF iter   8:  -266.84296710926287   -6.88970e-03   4.47655e-04 DIIS
   @DF-RHF iter   9:  -266.84388719231646   -9.20083e-04   1.80623e-04 DIIS
   @DF-RHF iter  10:  -266.84401601237147   -1.28820e-04   5.59507e-05 DIIS
   @DF-RHF iter  11:  -266.84403628277215   -2.02704e-05   1.53025e-05 DIIS
   @DF-RHF iter  12:  -266.84403781542881   -1.53266e-06   4.43853e-06 DIIS
   @DF-RHF iter  13:  -266.84403798120411   -1.65775e-07   1.38556e-06 DIIS
   @DF-RHF iter  14:  -266.84403800422177   -2.30177e-08   4.95508e-07 DIIS

  ==> Post-Iterations <==

    Orbital Energies (a.u.)
    -----------------------

    Doubly Occupied:                                                      

       1A    -20.614066     2A    -20.551394     3A    -11.381057  
       4A    -11.242491     5A    -11.230440     6A     -1.475362  
       7A     -1.365908     8A     -1.068997     9A     -0.913937  
      10A     -0.816473    11A     -0.701975    12A     -0.684797  
      13A     -0.640280    14A     -0.614509    15A     -0.593036  
      16A     -0.546243    17A     -0.530421    18A     -0.508671  
      19A     -0.477041    20A     -0.440677  

    Virtual:                                                              

      21A      0.187511    22A      0.227562    23A      0.265584  
      24A      0.290778    25A      0.297773    26A      0.318312  
      27A      0.331411    28A      0.386579    29A      0.433456  
      30A      0.494805    31A      0.544630    32A      0.720864  
      33A      0.727647    34A      0.732898    35A      0.791009  
      36A      0.836122    37A      0.876747    38A      0.941035  
      39A      0.970538    40A      0.986400    41A      1.056908  
      42A      1.080184    43A      1.108308    44A      1.141956  
      45A      1.156398    46A      1.194756    47A      1.203513  
      48A      1.220435    49A      1.231951    50A      1.272639  
      51A      1.336348    52A      1.354075    53A      1.370088  
      54A      1.518937    55A      1.643189    56A      1.655728  
      57A      1.696071    58A      1.841931    59A      1.892447  
      60A      1.949695    61A      2.030438    62A      2.038266  
      63A      2.069034    64A      2.131504    65A      2.140473  
      66A      2.243050    67A      2.250977    68A      2.277319  
      69A      2.373707    70A      2.443038    71A      2.575883  
      72A      2.624973    73A      2.659866    74A      2.674265  
      75A      2.762076    76A      2.874565    77A      2.972447  
      78A      3.035082    79A      3.119724    80A      3.230978  
      81A      3.369213    82A      3.476831    83A      4.259728  
      84A      4.485235    85A      4.602656    86A      4.735947  
      87A      4.953396  

    Final Occupation by Irrep:
              A 
    DOCC [    20 ]

  Energy converged.

  @DF-RHF Final Energy:  -266.84403800422177

   => Energetics <=

    Nuclear Repulsion Energy =            179.9297298164614745
    One-Electron Energy =                -720.7520063258665459
    Two-Electron Energy =                 273.9782385051832421
    DFT Exchange-Correlation Energy =       0.0000000000000000
    Empirical Dispersion Energy =           0.0000000000000000
    PCM Polarization Energy =               0.0000000000000000
    EFP Energy =                            0.0000000000000000
    Total Energy =                       -266.8440380042218862

    Alert: EFP and PCM quantities not currently incorporated into SCF psivars.

Properties will be evaluated at   0.000000,   0.000000,   0.000000 Bohr
  ==> Properties <==


Properties computed using the SCF density matrix

  Nuclear Dipole Moment: (a.u.)
     X:    -6.2604      Y:    -1.2138      Z:    -0.6491

  Electronic Dipole Moment: (a.u.)
     X:     5.7883      Y:     1.1738      Z:     0.0844

  Dipole Moment: (a.u.)
     X:    -0.4721      Y:    -0.0399      Z:    -0.5646     Total:     0.7371

  Dipole Moment: (Debye)
     X:    -1.1999      Y:    -0.1015      Z:    -1.4352     Total:     1.8735


  Saving occupied orbitals to File 180.

*** tstop() called on cx1-3-15-3.cx1.hpc.ic.ac.uk at Tue Jul  5 16:30:41 2016
Module time:
	user time   =       3.23 seconds =       0.05 minutes
	system time =       0.03 seconds =       0.00 minutes
	total time  =          4 seconds =       0.07 minutes
Total time:
	user time   =       3.23 seconds =       0.05 minutes
	system time =       0.03 seconds =       0.00 minutes
	total time  =          4 seconds =       0.07 minutes


Properties will be evaluated at   0.000000,   0.000000,   0.000000 Bohr

Properties computed using the  density matrix

  Nuclear Dipole Moment: (a.u.)
     X:    -6.2604      Y:    -1.2138      Z:    -0.6491

  Electronic Dipole Moment: (a.u.)
     X:     5.7883      Y:     1.1738      Z:     0.0844

  Dipole Moment: (a.u.)
     X:    -0.4721      Y:    -0.0399      Z:    -0.5646     Total:     0.7371

  Dipole Moment: (Debye)
     X:    -1.1999      Y:    -0.1015      Z:    -1.4352     Total:     1.8735

  Quadrupole Moment: (Debye Ang)
    XX:   -28.9896     YY:   -27.6993     ZZ:   -33.7433
    XY:     2.1137     XZ:    -4.4042     YZ:    -0.8541

  Traceless Quadrupole Moment: (Debye Ang)
    XX:     1.1544     YY:     2.4448     ZZ:    -3.5992
    XY:     2.1137     XZ:    -4.4042     YZ:    -0.8541

  Mulliken Charges: (a.u.)
   Center  Symbol    Alpha    Beta     Spin     Total
       1     H     0.26769  0.26769  0.00000  0.46462
       2     O     4.34671  4.34671  0.00000 -0.69342
       3     C     2.63378  2.63378  0.00000  0.73245
       4     C     3.19805  3.19805  0.00000 -0.39611
       5     O     4.27743  4.27743  0.00000 -0.55485
       6     C     3.25030  3.25030  0.00000 -0.50059
       7     H     0.40216  0.40216  0.00000  0.19567
       8     H     0.39773  0.39773  0.00000  0.20455
       9     H     0.40650  0.40650  0.00000  0.18700
      10     H     0.41038  0.41038  0.00000  0.17924
      11     H     0.40928  0.40928  0.00000  0.18143

   Total alpha = 20.00000, Total beta = 20.00000, Total charge =  0.00000


*** PSI4 exiting successfully. Buy a developer a beer!
