    -----------------------------------------------------------------------
          Psi4: An Open-Source Ab Initio Electronic Structure Package
                              Psi4 (no tag) Driver

                          Git: Rev {detached?}  

    J. M. Turney, A. C. Simmonett, R. M. Parrish, E. G. Hohenstein,
    F. A. Evangelista, J. T. Fermann, B. J. Mintz, L. A. Burns, J. J. Wilke,
    M. L. Abrams, N. J. Russ, M. L. Leininger, C. L. Janssen, E. T. Seidl,
    W. D. Allen, H. F. Schaefer, R. A. King, E. F. Valeev, C. D. Sherrill,
    and T. D. Crawford, WIREs Comput. Mol. Sci. 2, 556-565 (2012)
    (doi: 10.1002/wcms.93)

                         Additional Contributions by
    A. E. DePrince, M. Saitow, U. Bozkaya, A. Yu. Sokolov
    -----------------------------------------------------------------------


    Psi4 started on: Tue Jul  5 16:28:10 2016

    Process ID:  24542
    PSI4DATADIR: /export131/home/mjharvey/miniconda3/share
    Memory level set to 256.000 MB

  ==> Input File <==

--------------------------------------------------------------------------
set {
	reference rhf
	basis 6-31G*
}


set_num_threads( 1 )
memory 2 gb

molecule MOL {
0 1

H	 2.656700	 0.256064	 0.542699
O	 2.064459	 -0.086912	 -0.111827
C	 0.745630	 0.005118	 0.354752
H	 0.739005	 0.037656	 1.444976
C	 -0.064159	 -1.194875	 -0.122754
C	 -0.046302	 1.193543	 -0.190431
H	 0.197384	 -1.376065	 -1.160690
H	 0.162855	 -2.097978	 0.431858
C	 -1.535782	 -0.752177	 0.006642
H	 0.154512	 1.271315	 -1.255561
H	 0.226209	 2.140461	 0.267302
C	 -1.509193	 0.801505	 0.065617
H	 -2.127797	 -1.112194	 -0.826847
H	 -1.986849	 -1.158408	 0.905561
H	 -2.183670	 1.254107	 -0.651985
H	 -1.821727	 1.144320	 1.047089

	symmetry c1
}
ee = energy('scf')
oeprop('DIPOLE', 'QUADRUPOLE', 'MULLIKEN_CHARGES')
f=open( 'psi4out.xyz', 'w' )
f.write( "16  " )
f.write( str(ee) + "\n" )
f.write( MOL.save_string_xyz() )
f.close()
--------------------------------------------------------------------------

  Memory set to   2.000 GiB by Python script.

*** tstart() called on cx1-3-2-2.cx1.hpc.ic.ac.uk
*** at Tue Jul  5 16:28:11 2016


         ---------------------------------------------------------
                                   SCF
            by Justin Turney, Rob Parrish, and Andy Simmonett
                              RHF Reference
                        1 Threads,   2000 MiB Core
         ---------------------------------------------------------

  ==> Geometry <==

    Molecular point group: c1
    Full point group: C1

    Geometry (in Angstrom), charge = 0, multiplicity = 1:

       Center              X                  Y                   Z               Mass       
    ------------   -----------------  -----------------  -----------------  -----------------
           H          2.655670348307     0.260603076236     0.538894380377     1.007825032070
           O          2.063429348307    -0.082372923764    -0.115631619623    15.994914619560
           C          0.744600348307     0.009657076236     0.350947380377    12.000000000000
           H          0.737975348307     0.042195076236     1.441171380377     1.007825032070
           C         -0.065188651693    -1.190335923764    -0.126558619623    12.000000000000
           C         -0.047331651693     1.198082076236    -0.194235619623    12.000000000000
           H          0.196354348307    -1.371525923764    -1.164494619623     1.007825032070
           H          0.161825348307    -2.093438923764     0.428053380377     1.007825032070
           C         -1.536811651693    -0.747637923764     0.002837380377    12.000000000000
           H          0.153482348307     1.275854076236    -1.259365619623     1.007825032070
           H          0.225179348307     2.145000076236     0.263497380377     1.007825032070
           C         -1.510222651693     0.806044076236     0.061812380377    12.000000000000
           H         -2.128826651693    -1.107654923764    -0.830651619623     1.007825032070
           H         -1.987878651693    -1.153868923764     0.901756380377     1.007825032070
           H         -2.184699651693     1.258646076236    -0.655789619623     1.007825032070
           H         -1.822756651693     1.148859076236     1.043284380377     1.007825032070

  Running in c1 symmetry.

  Rotational constants: A =      0.21622  B =      0.10145  C =      0.07592 [cm^-1]
  Rotational constants: A =   6482.21352  B =   3041.53450  C =   2275.90378 [MHz]
  Nuclear repulsion =  255.046587668401457

  Charge       = 0
  Multiplicity = 1
  Electrons    = 48
  Nalpha       = 24
  Nbeta        = 24

  ==> Algorithm <==

  SCF Algorithm Type is DF.
  DIIS enabled.
  MOM disabled.
  Fractional occupation disabled.
  Guess Type is CORE.
  Energy threshold   = 1.00e-06
  Density threshold  = 1.00e-06
  Integral threshold = 0.00e+00

  ==> Primary Basis <==

  Basis Set: 6-31G*
    Number of shells: 56
    Number of basis function: 110
    Number of Cartesian functions: 110
    Spherical Harmonics?: false
    Max angular momentum: 2

  ==> Pre-Iterations <==

   -------------------------------------------------------
    Irrep   Nso     Nmo     Nalpha   Nbeta   Ndocc  Nsocc
   -------------------------------------------------------
     A        110     110       0       0       0       0
   -------------------------------------------------------
    Total     110     110      24      24      24       0
   -------------------------------------------------------

 OEINTS: Overlap, kinetic, potential, dipole, and quadrupole integrals
         stored in file 35.

  ==> Integral Setup <==

  ==> DFJK: Density-Fitted J/K Matrices <==

    J tasked:                  Yes
    K tasked:                  Yes
    wK tasked:                  No
    OpenMP threads:              1
    Integrals threads:           1
    Memory (MB):              1430
    Algorithm:                Core
    Integral Cache:           NONE
    Schwarz Cutoff:          1E-12
    Fitting Condition:       1E-12

   => Auxiliary Basis Set <=

  Basis Set: 
    Number of shells: 234
    Number of basis function: 736
    Number of Cartesian functions: 736
    Spherical Harmonics?: false
    Max angular momentum: 3

  Minimum eigenvalue in the overlap matrix is 2.9567726872E-03.
  Using Symmetric Orthogonalization.
  SCF Guess: Core (One-Electron) Hamiltonian.

  ==> Iterations <==

                           Total Energy        Delta E     RMS |[F,P]|

   @DF-RHF iter   1:  -217.28581054528740   -2.17286e+02   7.20356e-02 
   @DF-RHF iter   2:  -186.63171626006340    3.06541e+01   6.31052e-02 DIIS
   @DF-RHF iter   3:  -213.71957551265780   -2.70879e+01   6.92378e-02 DIIS
   @DF-RHF iter   4:  -269.02577361608257   -5.53062e+01   1.19286e-02 DIIS
   @DF-RHF iter   5:  -269.92549858914924   -8.99725e-01   3.80584e-03 DIIS
   @DF-RHF iter   6:  -270.00841089773508   -8.29123e-02   7.10186e-04 DIIS
   @DF-RHF iter   7:  -270.01271730468181   -4.30641e-03   2.24683e-04 DIIS
   @DF-RHF iter   8:  -270.01315384688075   -4.36542e-04   7.69260e-05 DIIS
   @DF-RHF iter   9:  -270.01320931335874   -5.54665e-05   2.05143e-05 DIIS
   @DF-RHF iter  10:  -270.01321290142459   -3.58807e-06   7.74644e-06 DIIS
   @DF-RHF iter  11:  -270.01321335199475   -4.50570e-07   2.30464e-06 DIIS
   @DF-RHF iter  12:  -270.01321340620063   -5.42059e-08   4.04677e-07 DIIS

  ==> Post-Iterations <==

    Orbital Energies (a.u.)
    -----------------------

    Doubly Occupied:                                                      

       1A    -20.552171     2A    -11.269196     3A    -11.214748  
       4A    -11.213378     5A    -11.208282     6A    -11.206507  
       7A     -1.361450     8A     -1.111820     9A     -0.963140  
      10A     -0.947227    11A     -0.782231    12A     -0.775773  
      13A     -0.712540    14A     -0.651922    15A     -0.619565  
      16A     -0.579358    17A     -0.554359    18A     -0.524666  
      19A     -0.517373    20A     -0.479097    21A     -0.468386  
      22A     -0.455678    23A     -0.452021    24A     -0.410577  

    Virtual:                                                              

      25A      0.215594    26A      0.232151    27A      0.258772  
      28A      0.294458    29A      0.308737    30A      0.324297  
      31A      0.333971    32A      0.344250    33A      0.350928  
      34A      0.362106    35A      0.379913    36A      0.412070  
      37A      0.427771    38A      0.495018    39A      0.495720  
      40A      0.504577    41A      0.723395    42A      0.744216  
      43A      0.768307    44A      0.807410    45A      0.811606  
      46A      0.829737    47A      0.913713    48A      0.925289  
      49A      0.937553    50A      0.939638    51A      0.969863  
      52A      0.975207    53A      1.020930    54A      1.046704  
      55A      1.112680    56A      1.142567    57A      1.148901  
      58A      1.154844    59A      1.162231    60A      1.168812  
      61A      1.203507    62A      1.217320    63A      1.223408  
      64A      1.229810    65A      1.260041    66A      1.308218  
      67A      1.313666    68A      1.463499    69A      1.475700  
      70A      1.542081    71A      1.578499    72A      1.631039  
      73A      1.769955    74A      1.878335    75A      1.933160  
      76A      1.982292    77A      2.030162    78A      2.075860  
      79A      2.087836    80A      2.106297    81A      2.144737  
      82A      2.248671    83A      2.260410    84A      2.272261  
      85A      2.313965    86A      2.339731    87A      2.365579  
      88A      2.421297    89A      2.462611    90A      2.482423  
      91A      2.524813    92A      2.565705    93A      2.695015  
      94A      2.725856    95A      2.752927    96A      2.797717  
      97A      2.862235    98A      2.919512    99A      2.952004  
     100A      2.985848   101A      3.026813   102A      3.071889  
     103A      3.240291   104A      3.296372   105A      4.238243  
     106A      4.612696   107A      4.721025   108A      4.730110  
     109A      5.023350   110A      5.059418  

    Final Occupation by Irrep:
              A 
    DOCC [    24 ]

  Energy converged.

  @DF-RHF Final Energy:  -270.01321340620063

   => Energetics <=

    Nuclear Repulsion Energy =            255.0465876684014574
    One-Electron Energy =                -872.0567748541594710
    Two-Electron Energy =                 346.9969737795573792
    DFT Exchange-Correlation Energy =       0.0000000000000000
    Empirical Dispersion Energy =           0.0000000000000000
    PCM Polarization Energy =               0.0000000000000000
    EFP Energy =                            0.0000000000000000
    Total Energy =                       -270.0132134062006344

    Alert: EFP and PCM quantities not currently incorporated into SCF psivars.

Properties will be evaluated at   0.000000,   0.000000,   0.000000 Bohr
  ==> Properties <==


Properties computed using the SCF density matrix

  Nuclear Dipole Moment: (a.u.)
     X:    -3.7340      Y:     0.3790      Z:     0.6616

  Electronic Dipole Moment: (a.u.)
     X:     3.5866      Y:    -0.1301      Z:    -0.0659

  Dipole Moment: (a.u.)
     X:    -0.1475      Y:     0.2488      Z:     0.5957     Total:     0.6622

  Dipole Moment: (Debye)
     X:    -0.3748      Y:     0.6325      Z:     1.5141     Total:     1.6832


  Saving occupied orbitals to File 180.

*** tstop() called on cx1-3-2-2.cx1.hpc.ic.ac.uk at Tue Jul  5 16:28:18 2016
Module time:
	user time   =       6.70 seconds =       0.11 minutes
	system time =       0.03 seconds =       0.00 minutes
	total time  =          7 seconds =       0.12 minutes
Total time:
	user time   =       6.70 seconds =       0.11 minutes
	system time =       0.03 seconds =       0.00 minutes
	total time  =          7 seconds =       0.12 minutes


Properties will be evaluated at   0.000000,   0.000000,   0.000000 Bohr

Properties computed using the  density matrix

  Nuclear Dipole Moment: (a.u.)
     X:    -3.7340      Y:     0.3790      Z:     0.6616

  Electronic Dipole Moment: (a.u.)
     X:     3.5866      Y:    -0.1301      Z:    -0.0659

  Dipole Moment: (a.u.)
     X:    -0.1475      Y:     0.2488      Z:     0.5957     Total:     0.6622

  Dipole Moment: (Debye)
     X:    -0.3748      Y:     0.6325      Z:     1.5141     Total:     1.6832

  Quadrupole Moment: (Debye Ang)
    XX:   -38.1678     YY:   -38.6650     ZZ:   -37.0072
    XY:     1.9304     XZ:     4.2249     YZ:     0.3414

  Traceless Quadrupole Moment: (Debye Ang)
    XX:    -0.2211     YY:    -0.7183     ZZ:     0.9394
    XY:     1.9304     XZ:     4.2249     YZ:     0.3414

  Mulliken Charges: (a.u.)
   Center  Symbol    Alpha    Beta     Spin     Total
       1     H     0.28049  0.28049  0.00000  0.43902
       2     O     4.37636  4.37636  0.00000 -0.75271
       3     C     2.91091  2.91091  0.00000  0.17818
       4     H     0.43155  0.43155  0.00000  0.13690
       5     C     3.16585  3.16585  0.00000 -0.33169
       6     C     3.16925  3.16925  0.00000 -0.33850
       7     H     0.41122  0.41122  0.00000  0.17756
       8     H     0.41538  0.41538  0.00000  0.16924
       9     C     3.16930  3.16930  0.00000 -0.33859
      10     H     0.41351  0.41351  0.00000  0.17299
      11     H     0.42021  0.42021  0.00000  0.15959
      12     C     3.16983  3.16983  0.00000 -0.33965
      13     H     0.41495  0.41495  0.00000  0.17011
      14     H     0.41793  0.41793  0.00000  0.16413
      15     H     0.41415  0.41415  0.00000  0.17171
      16     H     0.41913  0.41913  0.00000  0.16173

   Total alpha = 24.00000, Total beta = 24.00000, Total charge =  0.00000


*** PSI4 exiting successfully. Buy a developer a beer!
