    -----------------------------------------------------------------------
          Psi4: An Open-Source Ab Initio Electronic Structure Package
                              Psi4 (no tag) Driver

                          Git: Rev {detached?}  

    J. M. Turney, A. C. Simmonett, R. M. Parrish, E. G. Hohenstein,
    F. A. Evangelista, J. T. Fermann, B. J. Mintz, L. A. Burns, J. J. Wilke,
    M. L. Abrams, N. J. Russ, M. L. Leininger, C. L. Janssen, E. T. Seidl,
    W. D. Allen, H. F. Schaefer, R. A. King, E. F. Valeev, C. D. Sherrill,
    and T. D. Crawford, WIREs Comput. Mol. Sci. 2, 556-565 (2012)
    (doi: 10.1002/wcms.93)

                         Additional Contributions by
    A. E. DePrince, M. Saitow, U. Bozkaya, A. Yu. Sokolov
    -----------------------------------------------------------------------


    Psi4 started on: Tue Jul  5 16:52:28 2016

    Process ID:  14625
    PSI4DATADIR: /export131/home/mjharvey/miniconda3/share
    Memory level set to 256.000 MB

  ==> Input File <==

--------------------------------------------------------------------------
set {
	reference rhf
	basis 6-31G*
}


set_num_threads( 1 )
memory 2 gb

molecule MOL {
0 1

H	 -0.000158	 1.970498	 0.756846
O	 -0.000074	 1.880206	 -0.189275
C	 -0.000015	 0.544847	 -0.545111
C	 0.861217	 -0.251862	 0.429323
C	 0.417302	 0.396670	 -2.004524
H	 -1.012614	 0.180028	 -0.457628
F	 0.378436	 -0.130365	 1.647398
F	 0.896694	 -1.533323	 0.131063
F	 2.103689	 0.203930	 0.440053
F	 -0.427926	 1.048116	 -2.774422
F	 0.436090	 -0.860810	 -2.392817
F	 1.621599	 0.908131	 -2.203661

	symmetry c1
}
set optking {
	frozen_dihedral = ("
		7 4 3 6
	")
}

ee = energy('scf')
oeprop('DIPOLE', 'QUADRUPOLE', 'MULLIKEN_CHARGES')
f=open( 'psi4out.xyz', 'w' )
f.write( "12  " )
f.write( str(ee) + "\n" )
f.write( MOL.save_string_xyz() )
f.close()
--------------------------------------------------------------------------

  Memory set to   2.000 GiB by Python script.

*** tstart() called on cx1-3-4-4.cx1.hpc.ic.ac.uk
*** at Tue Jul  5 16:52:28 2016


         ---------------------------------------------------------
                                   SCF
            by Justin Turney, Rob Parrish, and Andy Simmonett
                              RHF Reference
                        1 Threads,   2000 MiB Core
         ---------------------------------------------------------

  ==> Geometry <==

    Molecular point group: c1
    Full point group: C1

    Geometry (in Angstrom), charge = 0, multiplicity = 1:

       Center              X                  Y                   Z               Mass       
    ------------   -----------------  -----------------  -----------------  -----------------
           H         -0.651792444006     1.770526367062     1.507179276900     1.007825032070
           O         -0.651708444006     1.680234367062     0.561058276900    15.994914619560
           C         -0.651649444006     0.344875367062     0.205222276900    12.000000000000
           C          0.209582555994    -0.451833632938     1.179656276900    12.000000000000
           C         -0.234332444006     0.196698367062    -1.254190723100    12.000000000000
           H         -1.664248444006    -0.019943632938     0.292705276900     1.007825032070
           F         -0.273198444006    -0.330336632938     2.397731276900    18.998403224000
           F          0.245059555994    -1.733294632938     0.881396276900    18.998403224000
           F          1.452054555994     0.003958367062     1.190386276900    18.998403224000
           F         -1.079560444006     0.848144367062    -2.024088723100    18.998403224000
           F         -0.215544444006    -1.060781632938    -1.642483723100    18.998403224000
           F          0.969964555994     0.708159367062    -1.453327723100    18.998403224000

  Running in c1 symmetry.

  Rotational constants: A =      0.07188  B =      0.03579  C =      0.03157 [cm^-1]
  Rotational constants: A =   2154.84173  B =   1072.90077  C =    946.34769 [MHz]
  Nuclear repulsion =  669.787017550898327

  Charge       = 0
  Multiplicity = 1
  Electrons    = 82
  Nalpha       = 41
  Nbeta        = 41

  ==> Algorithm <==

  SCF Algorithm Type is DF.
  DIIS enabled.
  MOM disabled.
  Fractional occupation disabled.
  Guess Type is CORE.
  Energy threshold   = 1.00e-06
  Density threshold  = 1.00e-06
  Integral threshold = 0.00e+00

  ==> Primary Basis <==

  Basis Set: 6-31G*
    Number of shells: 64
    Number of basis function: 154
    Number of Cartesian functions: 154
    Spherical Harmonics?: false
    Max angular momentum: 2

  ==> Pre-Iterations <==

   -------------------------------------------------------
    Irrep   Nso     Nmo     Nalpha   Nbeta   Ndocc  Nsocc
   -------------------------------------------------------
     A        154     154       0       0       0       0
   -------------------------------------------------------
    Total     154     154      41      41      41       0
   -------------------------------------------------------

 OEINTS: Overlap, kinetic, potential, dipole, and quadrupole integrals
         stored in file 35.

  ==> Integral Setup <==

  ==> DFJK: Density-Fitted J/K Matrices <==

    J tasked:                  Yes
    K tasked:                  Yes
    wK tasked:                  No
    OpenMP threads:              1
    Integrals threads:           1
    Memory (MB):              1430
    Algorithm:                Core
    Integral Cache:           NONE
    Schwarz Cutoff:          1E-12
    Fitting Condition:       1E-12

   => Auxiliary Basis Set <=

  Basis Set: 
    Number of shells: 258
    Number of basis function: 860
    Number of Cartesian functions: 860
    Spherical Harmonics?: false
    Max angular momentum: 3

  Minimum eigenvalue in the overlap matrix is 1.6737214740E-03.
  Using Symmetric Orthogonalization.
  SCF Guess: Core (One-Electron) Hamiltonian.

  ==> Iterations <==

                           Total Energy        Delta E     RMS |[F,P]|

   @DF-RHF iter   1:  -701.21026958717312   -7.01210e+02   6.78114e-02 
   @DF-RHF iter   2:  -551.30379164946771    1.49906e+02   9.45948e-02 DIIS
   @DF-RHF iter   3:  -753.08721705724565   -2.01783e+02   4.26750e-02 DIIS
   @DF-RHF iter   4:  -734.43691033788059    1.86503e+01   5.01475e-02 DIIS
   @DF-RHF iter   5:  -781.67835221424889   -4.72414e+01   1.82050e-02 DIIS
   @DF-RHF iter   6:  -786.04304504596530   -4.36469e+00   5.12565e-03 DIIS
   @DF-RHF iter   7:  -786.25710529453954   -2.14060e-01   1.13104e-03 DIIS
   @DF-RHF iter   8:  -786.26898574308507   -1.18804e-02   5.65154e-04 DIIS
   @DF-RHF iter   9:  -786.27226963229532   -3.28389e-03   1.96320e-04 DIIS
   @DF-RHF iter  10:  -786.27275972544771   -4.90093e-04   6.06407e-05 DIIS
   @DF-RHF iter  11:  -786.27281361986866   -5.38944e-05   1.81254e-05 DIIS
   @DF-RHF iter  12:  -786.27281858942979   -4.96956e-06   4.81877e-06 DIIS
   @DF-RHF iter  13:  -786.27281907210227   -4.82672e-07   1.51361e-06 DIIS
   @DF-RHF iter  14:  -786.27281910646570   -3.43634e-08   5.13101e-07 DIIS

  ==> Post-Iterations <==

    Orbital Energies (a.u.)
    -----------------------

    Doubly Occupied:                                                      

       1A    -26.374882     2A    -26.364750     3A    -26.359872  
       4A    -26.358426     5A    -26.353313     6A    -26.347899  
       7A    -20.613861     8A    -11.530289     9A    -11.524268  
      10A    -11.348986    11A     -1.768131    12A     -1.754195  
      13A     -1.668355    14A     -1.658348    15A     -1.653552  
      16A     -1.646029    17A     -1.433659    18A     -1.102212  
      19A     -0.997785    20A     -0.935665    21A     -0.868198  
      22A     -0.860588    23A     -0.854283    24A     -0.840291  
      25A     -0.831370    26A     -0.791451    27A     -0.751437  
      28A     -0.734137    29A     -0.718433    30A     -0.716856  
      31A     -0.712515    32A     -0.688346    33A     -0.682678  
      34A     -0.667528    35A     -0.666042    36A     -0.663507  
      37A     -0.651039    38A     -0.642965    39A     -0.618842  
      40A     -0.546121    41A     -0.502366  

    Virtual:                                                              

      42A      0.206572    43A      0.249088    44A      0.307308  
      45A      0.340842    46A      0.349605    47A      0.393369  
      48A      0.451828    49A      0.465206    50A      0.469722  
      51A      0.525092    52A      0.541113    53A      0.662462  
      54A      0.676155    55A      0.712335    56A      0.733314  
      57A      0.744127    58A      0.789505    59A      0.813083  
      60A      0.867531    61A      0.902645    62A      0.948946  
      63A      1.035605    64A      1.100636    65A      1.127361  
      66A      1.194446    67A      1.227551    68A      1.259841  
      69A      1.275401    70A      1.309790    71A      1.346784  
      72A      1.353046    73A      1.380588    74A      1.404876  
      75A      1.450488    76A      1.464456    77A      1.517838  
      78A      1.546852    79A      1.579622    80A      1.590208  
      81A      1.605523    82A      1.616173    83A      1.621881  
      84A      1.628395    85A      1.656314    86A      1.657427  
      87A      1.663067    88A      1.673930    89A      1.708805  
      90A      1.739181    91A      1.745653    92A      1.808267  
      93A      1.871425    94A      1.885876    95A      1.919226  
      96A      1.941474    97A      1.970419    98A      1.979826  
      99A      1.994062   100A      2.096856   101A      2.111483  
     102A      2.115923   103A      2.122390   104A      2.132618  
     105A      2.142271   106A      2.153634   107A      2.161396  
     108A      2.186943   109A      2.287228   110A      2.297114  
     111A      2.320364   112A      2.329832   113A      2.342613  
     114A      2.375486   115A      2.392812   116A      2.398450  
     117A      2.408303   118A      2.418550   119A      2.438475  
     120A      2.484419   121A      2.530339   122A      2.552204  
     123A      2.556982   124A      2.608166   125A      2.645090  
     126A      2.684800   127A      2.722971   128A      2.855748  
     129A      2.885610   130A      2.894866   131A      2.947473  
     132A      3.058718   133A      3.153570   134A      3.180077  
     135A      3.194668   136A      3.224228   137A      3.264232  
     138A      3.346621   139A      3.398433   140A      3.415552  
     141A      3.449180   142A      3.454927   143A      3.463812  
     144A      3.481553   145A      4.173117   146A      4.624072  
     147A      4.754245   148A      4.822233   149A      5.036098  
     150A      5.104964   151A      5.268172   152A      5.643471  
     153A      5.796537   154A      6.366895  

    Final Occupation by Irrep:
              A 
    DOCC [    41 ]

  Energy converged.

  @DF-RHF Final Energy:  -786.27281910646570

   => Energetics <=

    Nuclear Repulsion Energy =            669.7870175508983266
    One-Electron Energy =               -2426.5129049737552123
    Two-Electron Energy =                 970.4530683163919775
    DFT Exchange-Correlation Energy =       0.0000000000000000
    Empirical Dispersion Energy =           0.0000000000000000
    PCM Polarization Energy =               0.0000000000000000
    EFP Energy =                            0.0000000000000000
    Total Energy =                       -786.2728191064649081

    Alert: EFP and PCM quantities not currently incorporated into SCF psivars.

Properties will be evaluated at   0.000000,   0.000000,   0.000000 Bohr
  ==> Properties <==


Properties computed using the SCF density matrix

  Nuclear Dipole Moment: (a.u.)
     X:    -3.2109      Y:     3.1247      Z:     2.3036

  Electronic Dipole Moment: (a.u.)
     X:     2.5983      Y:    -3.1588      Z:    -1.5556

  Dipole Moment: (a.u.)
     X:    -0.6126      Y:    -0.0340      Z:     0.7480     Total:     0.9674

  Dipole Moment: (Debye)
     X:    -1.5571      Y:    -0.0865      Z:     1.9011     Total:     2.4590


  Saving occupied orbitals to File 180.

*** tstop() called on cx1-3-4-4.cx1.hpc.ic.ac.uk at Tue Jul  5 16:52:47 2016
Module time:
	user time   =      17.61 seconds =       0.29 minutes
	system time =       0.25 seconds =       0.00 minutes
	total time  =         19 seconds =       0.32 minutes
Total time:
	user time   =      17.61 seconds =       0.29 minutes
	system time =       0.25 seconds =       0.00 minutes
	total time  =         19 seconds =       0.32 minutes


Properties will be evaluated at   0.000000,   0.000000,   0.000000 Bohr

Properties computed using the  density matrix

  Nuclear Dipole Moment: (a.u.)
     X:    -3.2109      Y:     3.1247      Z:     2.3036

  Electronic Dipole Moment: (a.u.)
     X:     2.5983      Y:    -3.1588      Z:    -1.5556

  Dipole Moment: (a.u.)
     X:    -0.6126      Y:    -0.0340      Z:     0.7480     Total:     0.9674

  Dipole Moment: (Debye)
     X:    -1.5571      Y:    -0.0865      Z:     1.9011     Total:     2.4590

  Quadrupole Moment: (Debye Ang)
    XX:   -51.9007     YY:   -55.2010     ZZ:   -52.2013
    XY:     0.3593     XZ:    -1.8726     YZ:     3.5519

  Traceless Quadrupole Moment: (Debye Ang)
    XX:     1.2003     YY:    -2.0999     ZZ:     0.8997
    XY:     0.3593     XZ:    -1.8726     YZ:     3.5519

  Mulliken Charges: (a.u.)
   Center  Symbol    Alpha    Beta     Spin     Total
       1     H     0.26398  0.26398  0.00000  0.47203
       2     O     4.36834  4.36834  0.00000 -0.73668
       3     C     3.03022  3.03022  0.00000 -0.06045
       4     C     2.46002  2.46002  0.00000  1.07996
       5     C     2.43556  2.43556  0.00000  1.12887
       6     H     0.38924  0.38924  0.00000  0.22153
       7     F     4.68002  4.68002  0.00000 -0.36004
       8     F     4.67290  4.67290  0.00000 -0.34581
       9     F     4.67425  4.67425  0.00000 -0.34850
      10     F     4.67543  4.67543  0.00000 -0.35086
      11     F     4.67436  4.67436  0.00000 -0.34871
      12     F     4.67567  4.67567  0.00000 -0.35135

   Total alpha = 41.00000, Total beta = 41.00000, Total charge =  0.00000


*** PSI4 exiting successfully. Buy a developer a beer!
