    -----------------------------------------------------------------------
          Psi4: An Open-Source Ab Initio Electronic Structure Package
                              Psi4 (no tag) Driver

                          Git: Rev {detached?}  

    J. M. Turney, A. C. Simmonett, R. M. Parrish, E. G. Hohenstein,
    F. A. Evangelista, J. T. Fermann, B. J. Mintz, L. A. Burns, J. J. Wilke,
    M. L. Abrams, N. J. Russ, M. L. Leininger, C. L. Janssen, E. T. Seidl,
    W. D. Allen, H. F. Schaefer, R. A. King, E. F. Valeev, C. D. Sherrill,
    and T. D. Crawford, WIREs Comput. Mol. Sci. 2, 556-565 (2012)
    (doi: 10.1002/wcms.93)

                         Additional Contributions by
    A. E. DePrince, M. Saitow, U. Bozkaya, A. Yu. Sokolov
    -----------------------------------------------------------------------


    Psi4 started on: Tue Jul  5 16:34:01 2016

    Process ID:  16408
    PSI4DATADIR: /export131/home/mjharvey/miniconda3/share
    Memory level set to 256.000 MB

  ==> Input File <==

--------------------------------------------------------------------------
set {
	reference rhf
	basis 6-31G*
}


set_num_threads( 1 )
memory 2 gb

molecule MOL {
0 1

H	 0.335692	 -3.221443	 1.633079
O	 0.505445	 -2.549460	 0.980079
C	 -0.504698	 -1.680862	 1.007985
C	 -0.318135	 -0.576402	 0.000164
O	 -1.421603	 -1.801070	 1.753526
C	 -1.454360	 0.441875	 -0.000474
H	 0.636373	 -0.102035	 0.212044
H	 -0.206278	 -1.042927	 -0.974950
C	 -2.826123	 -0.230780	 0.000056
H	 -1.357605	 1.085198	 -0.868380
H	 -1.357504	 1.086451	 0.866496
H	 -2.959731	 -0.858053	 -0.876869
H	 -3.619374	 0.509403	 -0.000080
H	 -2.959371	 -0.857318	 0.877556

	symmetry c1
}
set optking {
	frozen_dihedral = ("
		2 3 4 7,
		1 2 3 5
	")
}

ee = energy('scf')
oeprop('DIPOLE', 'QUADRUPOLE', 'MULLIKEN_CHARGES')
f=open( 'psi4out.xyz', 'w' )
f.write( "14  " )
f.write( str(ee) + "\n" )
f.write( MOL.save_string_xyz() )
f.close()
--------------------------------------------------------------------------

  Memory set to   2.000 GiB by Python script.

*** tstart() called on cx1-3-16-4.cx1.hpc.ic.ac.uk
*** at Tue Jul  5 16:34:01 2016


         ---------------------------------------------------------
                                   SCF
            by Justin Turney, Rob Parrish, and Andy Simmonett
                              RHF Reference
                        1 Threads,   2000 MiB Core
         ---------------------------------------------------------

  ==> Geometry <==

    Molecular point group: c1
    Full point group: C1

    Geometry (in Angstrom), charge = 0, multiplicity = 1:

       Center              X                  Y                   Z               Mass       
    ------------   -----------------  -----------------  -----------------  -----------------
           H          1.329092771299    -2.113379097243     0.989232532136     1.007825032070
           O          1.498845771299    -1.441396097243     0.336232532136    15.994914619560
           C          0.488702771299    -0.572798097243     0.364138532136    12.000000000000
           C          0.675265771299     0.531661902757    -0.643682467864    12.000000000000
           O         -0.428202228701    -0.693006097243     1.109679532136    15.994914619560
           C         -0.460959228701     1.549938902757    -0.644320467864    12.000000000000
           H          1.629773771299     1.006028902757    -0.431802467864     1.007825032070
           H          0.787122771299     0.065136902757    -1.618796467864     1.007825032070
           C         -1.832722228701     0.877283902757    -0.643790467864    12.000000000000
           H         -0.364204228701     2.193261902757    -1.512226467864     1.007825032070
           H         -0.364103228701     2.194514902757     0.222649532136     1.007825032070
           H         -1.966330228701     0.250010902757    -1.520715467864     1.007825032070
           H         -2.625973228701     1.617466902757    -0.643926467864     1.007825032070
           H         -1.965970228701     0.250745902757     0.233709532136     1.007825032070

  Running in c1 symmetry.

  Rotational constants: A =      0.23601  B =      0.08356  C =      0.06751 [cm^-1]
  Rotational constants: A =   7075.25866  B =   2504.96489  C =   2023.90393 [MHz]
  Nuclear repulsion =  248.072581520084810

  Charge       = 0
  Multiplicity = 1
  Electrons    = 48
  Nalpha       = 24
  Nbeta        = 24

  ==> Algorithm <==

  SCF Algorithm Type is DF.
  DIIS enabled.
  MOM disabled.
  Fractional occupation disabled.
  Guess Type is CORE.
  Energy threshold   = 1.00e-06
  Density threshold  = 1.00e-06
  Integral threshold = 0.00e+00

  ==> Primary Basis <==

  Basis Set: 6-31G*
    Number of shells: 52
    Number of basis function: 106
    Number of Cartesian functions: 106
    Spherical Harmonics?: false
    Max angular momentum: 2

  ==> Pre-Iterations <==

   -------------------------------------------------------
    Irrep   Nso     Nmo     Nalpha   Nbeta   Ndocc  Nsocc
   -------------------------------------------------------
     A        106     106       0       0       0       0
   -------------------------------------------------------
    Total     106     106      24      24      24       0
   -------------------------------------------------------

 OEINTS: Overlap, kinetic, potential, dipole, and quadrupole integrals
         stored in file 35.

  ==> Integral Setup <==

  ==> DFJK: Density-Fitted J/K Matrices <==

    J tasked:                  Yes
    K tasked:                  Yes
    wK tasked:                  No
    OpenMP threads:              1
    Integrals threads:           1
    Memory (MB):              1430
    Algorithm:                Core
    Integral Cache:           NONE
    Schwarz Cutoff:          1E-12
    Fitting Condition:       1E-12

   => Auxiliary Basis Set <=

  Basis Set: 
    Number of shells: 216
    Number of basis function: 686
    Number of Cartesian functions: 686
    Spherical Harmonics?: false
    Max angular momentum: 3

  Minimum eigenvalue in the overlap matrix is 3.5101651890E-03.
  Using Symmetric Orthogonalization.
  SCF Guess: Core (One-Electron) Hamiltonian.

  ==> Iterations <==

                           Total Energy        Delta E     RMS |[F,P]|

   @DF-RHF iter   1:  -245.04490643064199   -2.45045e+02   7.46436e-02 
   @DF-RHF iter   2:  -170.64774248559044    7.43972e+01   7.77464e-02 DIIS
   @DF-RHF iter   3:  -263.14431734066568   -9.24966e+01   5.20745e-02 DIIS
   @DF-RHF iter   4:  -274.17114924046757   -1.10268e+01   5.84771e-02 DIIS
   @DF-RHF iter   5:  -305.43898505983157   -3.12678e+01   9.41238e-03 DIIS
   @DF-RHF iter   6:  -305.76949544106458   -3.30510e-01   4.90133e-03 DIIS
   @DF-RHF iter   7:  -305.86808952357342   -9.85941e-02   6.12494e-04 DIIS
   @DF-RHF iter   8:  -305.87059657855332   -2.50705e-03   2.78822e-04 DIIS
   @DF-RHF iter   9:  -305.87109986346002   -5.03285e-04   9.03951e-05 DIIS
   @DF-RHF iter  10:  -305.87117410236067   -7.42389e-05   3.07322e-05 DIIS
   @DF-RHF iter  11:  -305.87119020775106   -1.61054e-05   1.34746e-05 DIIS
   @DF-RHF iter  12:  -305.87119302381200   -2.81606e-06   4.63434e-06 DIIS
   @DF-RHF iter  13:  -305.87119341083132   -3.87019e-07   1.53972e-06 DIIS
   @DF-RHF iter  14:  -305.87119345032443   -3.94931e-08   5.37776e-07 DIIS

  ==> Post-Iterations <==

    Orbital Energies (a.u.)
    -----------------------

    Doubly Occupied:                                                      

       1A    -20.615291     2A    -20.553713     3A    -11.384877  
       4A    -11.241670     5A    -11.224401     6A    -11.195289  
       7A     -1.478271     8A     -1.370686     9A     -1.080957  
      10A     -0.971102    11A     -0.857132    12A     -0.789850  
      13A     -0.706245    14A     -0.691737    15A     -0.661119  
      16A     -0.613745    17A     -0.596284    18A     -0.561428  
      19A     -0.543237    20A     -0.510913    21A     -0.485050  
      22A     -0.480817    23A     -0.476852    24A     -0.429792  

    Virtual:                                                              

      25A      0.190164    26A      0.230527    27A      0.235892  
      28A      0.291508    29A      0.298819    30A      0.315418  
      31A      0.332097    32A      0.355499    33A      0.371755  
      34A      0.394106    35A      0.428323    36A      0.456440  
      37A      0.507007    38A      0.547057    39A      0.707077  
      40A      0.728831    41A      0.760015    42A      0.774443  
      43A      0.825515    44A      0.826941    45A      0.861294  
      46A      0.921642    47A      0.949443    48A      0.961110  
      49A      1.000026    50A      1.074271    51A      1.087961  
      52A      1.115087    53A      1.120329    54A      1.128213  
      55A      1.161864    56A      1.191529    57A      1.210344  
      58A      1.227078    59A      1.234887    60A      1.242062  
      61A      1.244282    62A      1.292325    63A      1.334454  
      64A      1.379868    65A      1.464212    66A      1.526854  
      67A      1.625277    68A      1.656254    69A      1.723987  
      70A      1.752207    71A      1.797938    72A      1.874935  
      73A      1.951337    74A      1.998007    75A      2.031884  
      76A      2.071241    77A      2.097484    78A      2.130853  
      79A      2.183410    80A      2.212894    81A      2.267881  
      82A      2.280542    83A      2.323262    84A      2.341037  
      85A      2.415289    86A      2.475224    87A      2.585897  
      88A      2.640894    89A      2.700871    90A      2.720297  
      91A      2.742802    92A      2.803202    93A      2.824311  
      94A      2.886843    95A      3.009327    96A      3.035259  
      97A      3.116086    98A      3.279643    99A      3.403670  
     100A      3.505829   101A      4.264207   102A      4.546601  
     103A      4.606731   104A      4.738158   105A      4.826332  
     106A      4.979286  

    Final Occupation by Irrep:
              A 
    DOCC [    24 ]

  Energy converged.

  @DF-RHF Final Energy:  -305.87119345032443

   => Energetics <=

    Nuclear Repulsion Energy =            248.0725815200848103
    One-Electron Energy =                -908.8464796937020083
    Two-Electron Energy =                 354.9027047232930840
    DFT Exchange-Correlation Energy =       0.0000000000000000
    Empirical Dispersion Energy =           0.0000000000000000
    PCM Polarization Energy =               0.0000000000000000
    EFP Energy =                            0.0000000000000000
    Total Energy =                       -305.8711934503241423

    Alert: EFP and PCM quantities not currently incorporated into SCF psivars.

Properties will be evaluated at   0.000000,   0.000000,   0.000000 Bohr
  ==> Properties <==


Properties computed using the SCF density matrix

  Nuclear Dipole Moment: (a.u.)
     X:    -3.3141      Y:     5.1119      Z:    -4.0072

  Electronic Dipole Moment: (a.u.)
     X:     3.8433      Y:    -5.1111      Z:     3.6983

  Dipole Moment: (a.u.)
     X:     0.5292      Y:     0.0008      Z:    -0.3089     Total:     0.6128

  Dipole Moment: (Debye)
     X:     1.3451      Y:     0.0019      Z:    -0.7852     Total:     1.5575


  Saving occupied orbitals to File 180.

*** tstop() called on cx1-3-16-4.cx1.hpc.ic.ac.uk at Tue Jul  5 16:34:09 2016
Module time:
	user time   =       7.20 seconds =       0.12 minutes
	system time =       0.06 seconds =       0.00 minutes
	total time  =          8 seconds =       0.13 minutes
Total time:
	user time   =       7.20 seconds =       0.12 minutes
	system time =       0.06 seconds =       0.00 minutes
	total time  =          8 seconds =       0.13 minutes


Properties will be evaluated at   0.000000,   0.000000,   0.000000 Bohr

Properties computed using the  density matrix

  Nuclear Dipole Moment: (a.u.)
     X:    -3.3141      Y:     5.1119      Z:    -4.0072

  Electronic Dipole Moment: (a.u.)
     X:     3.8433      Y:    -5.1111      Z:     3.6983

  Dipole Moment: (a.u.)
     X:     0.5292      Y:     0.0008      Z:    -0.3089     Total:     0.6128

  Dipole Moment: (Debye)
     X:     1.3451      Y:     0.0019      Z:    -0.7852     Total:     1.5575

  Quadrupole Moment: (Debye Ang)
    XX:   -39.2401     YY:   -33.1764     ZZ:   -37.1970
    XY:    -0.7049     XZ:     2.5086     YZ:    -1.5431

  Traceless Quadrupole Moment: (Debye Ang)
    XX:    -2.7023     YY:     3.3615     ZZ:    -0.6591
    XY:    -0.7049     XZ:     2.5086     YZ:    -1.5431

  Mulliken Charges: (a.u.)
   Center  Symbol    Alpha    Beta     Spin     Total
       1     H     0.26768  0.26768  0.00000  0.46464
       2     O     4.35079  4.35079  0.00000 -0.70157
       3     C     2.62052  2.62052  0.00000  0.75896
       4     C     3.21267  3.21267  0.00000 -0.42534
       5     O     4.28069  4.28069  0.00000 -0.56139
       6     C     3.15262  3.15262  0.00000 -0.30525
       7     H     0.39604  0.39604  0.00000  0.20793
       8     H     0.39780  0.39780  0.00000  0.20439
       9     C     3.25858  3.25858  0.00000 -0.51717
      10     H     0.41610  0.41610  0.00000  0.16781
      11     H     0.41470  0.41470  0.00000  0.17061
      12     H     0.42802  0.42802  0.00000  0.14397
      13     H     0.42257  0.42257  0.00000  0.15486
      14     H     0.38123  0.38123  0.00000  0.23754

   Total alpha = 24.00000, Total beta = 24.00000, Total charge = -0.00000


*** PSI4 exiting successfully. Buy a developer a beer!
