    -----------------------------------------------------------------------
          Psi4: An Open-Source Ab Initio Electronic Structure Package
                              Psi4 (no tag) Driver

                          Git: Rev {detached?}  

    J. M. Turney, A. C. Simmonett, R. M. Parrish, E. G. Hohenstein,
    F. A. Evangelista, J. T. Fermann, B. J. Mintz, L. A. Burns, J. J. Wilke,
    M. L. Abrams, N. J. Russ, M. L. Leininger, C. L. Janssen, E. T. Seidl,
    W. D. Allen, H. F. Schaefer, R. A. King, E. F. Valeev, C. D. Sherrill,
    and T. D. Crawford, WIREs Comput. Mol. Sci. 2, 556-565 (2012)
    (doi: 10.1002/wcms.93)

                         Additional Contributions by
    A. E. DePrince, M. Saitow, U. Bozkaya, A. Yu. Sokolov
    -----------------------------------------------------------------------


    Psi4 started on: Tue Jul  5 16:36:29 2016

    Process ID:  29840
    PSI4DATADIR: /export131/home/mjharvey/miniconda3/share
    Memory level set to 256.000 MB

  ==> Input File <==

--------------------------------------------------------------------------
set {
	reference rhf
	basis 6-31G*
}


set_num_threads( 1 )
memory 2 gb

molecule MOL {
0 1

H	 -3.135461	 -1.215070	 0.001379
O	 -2.310168	 -0.871793	 -0.309793
C	 -2.026376	 0.340750	 0.341611
C	 -0.673256	 0.843270	 -0.132153
H	 -2.792215	 1.080697	 0.115987
H	 -2.013526	 0.200402	 1.421792
C	 0.486613	 -0.083066	 0.235839
H	 -0.715586	 0.970948	 -1.210718
H	 -0.508072	 1.829858	 0.297090
C	 1.239314	 0.372624	 1.487079
H	 1.173820	 -0.142477	 -0.601855
H	 0.104017	 -1.090629	 0.394825
C	 2.123529	 1.594059	 1.238216
H	 0.523368	 0.600929	 2.273854
H	 1.852024	 -0.445571	 1.860694
H	 1.534269	 2.440211	 0.896618
H	 2.642841	 1.895829	 2.142757
H	 2.873467	 1.387250	 0.479708

	symmetry c1
}
set optking {
	frozen_dihedral = ("
		14 10 7 11,
		2 3 4 8,
		1 2 3 4
	")
}

ee = energy('scf')
oeprop('DIPOLE', 'QUADRUPOLE', 'MULLIKEN_CHARGES')
f=open( 'psi4out.xyz', 'w' )
f.write( "18  " )
f.write( str(ee) + "\n" )
f.write( MOL.save_string_xyz() )
f.close()
--------------------------------------------------------------------------

  Memory set to   2.000 GiB by Python script.

*** tstart() called on cx1-3-2-3.cx1.hpc.ic.ac.uk
*** at Tue Jul  5 16:36:29 2016


         ---------------------------------------------------------
                                   SCF
            by Justin Turney, Rob Parrish, and Andy Simmonett
                              RHF Reference
                        1 Threads,   2000 MiB Core
         ---------------------------------------------------------

  ==> Geometry <==

    Molecular point group: c1
    Full point group: C1

    Geometry (in Angstrom), charge = 0, multiplicity = 1:

       Center              X                  Y                   Z               Mass       
    ------------   -----------------  -----------------  -----------------  -----------------
           H         -2.890230506050    -1.560613880781    -0.466640544787     1.007825032070
           O         -2.064937506050    -1.217336880781    -0.777812544787    15.994914619560
           C         -1.781145506050    -0.004793880781    -0.126408544787    12.000000000000
           C         -0.428025506050     0.497726119219    -0.600172544787    12.000000000000
           H         -2.546984506050     0.735153119219    -0.352032544787     1.007825032070
           H         -1.768295506050    -0.145141880781     0.953772455213     1.007825032070
           C          0.731843493950    -0.428609880781    -0.232180544787    12.000000000000
           H         -0.470355506050     0.625404119219    -1.678737544787     1.007825032070
           H         -0.262841506050     1.484314119219    -0.170929544787     1.007825032070
           C          1.484544493950     0.027080119219     1.019059455213    12.000000000000
           H          1.419050493950    -0.488020880781    -1.069874544787     1.007825032070
           H          0.349247493950    -1.436172880781    -0.073194544787     1.007825032070
           C          2.368759493950     1.248515119219     0.770196455213    12.000000000000
           H          0.768598493950     0.255385119219     1.805834455213     1.007825032070
           H          2.097254493950    -0.791114880781     1.392674455213     1.007825032070
           H          1.779499493950     2.094667119219     0.428598455213     1.007825032070
           H          2.888071493950     1.550285119219     1.674737455213     1.007825032070
           H          3.118697493950     1.041706119219     0.011688455213     1.007825032070

  Running in c1 symmetry.

  Rotational constants: A =      0.30207  B =      0.05061  C =      0.04862 [cm^-1]
  Rotational constants: A =   9055.89502  B =   1517.17858  C =   1457.71972 [MHz]
  Nuclear repulsion =  253.436738109370225

  Charge       = 0
  Multiplicity = 1
  Electrons    = 50
  Nalpha       = 25
  Nbeta        = 25

  ==> Algorithm <==

  SCF Algorithm Type is DF.
  DIIS enabled.
  MOM disabled.
  Fractional occupation disabled.
  Guess Type is CORE.
  Energy threshold   = 1.00e-06
  Density threshold  = 1.00e-06
  Integral threshold = 0.00e+00

  ==> Primary Basis <==

  Basis Set: 6-31G*
    Number of shells: 60
    Number of basis function: 114
    Number of Cartesian functions: 114
    Spherical Harmonics?: false
    Max angular momentum: 2

  ==> Pre-Iterations <==

   -------------------------------------------------------
    Irrep   Nso     Nmo     Nalpha   Nbeta   Ndocc  Nsocc
   -------------------------------------------------------
     A        114     114       0       0       0       0
   -------------------------------------------------------
    Total     114     114      25      25      25       0
   -------------------------------------------------------

 OEINTS: Overlap, kinetic, potential, dipole, and quadrupole integrals
         stored in file 35.

  ==> Integral Setup <==

  ==> DFJK: Density-Fitted J/K Matrices <==

    J tasked:                  Yes
    K tasked:                  Yes
    wK tasked:                  No
    OpenMP threads:              1
    Integrals threads:           1
    Memory (MB):              1430
    Algorithm:                Core
    Integral Cache:           NONE
    Schwarz Cutoff:          1E-12
    Fitting Condition:       1E-12

   => Auxiliary Basis Set <=

  Basis Set: 
    Number of shells: 252
    Number of basis function: 786
    Number of Cartesian functions: 786
    Spherical Harmonics?: false
    Max angular momentum: 3

  Minimum eigenvalue in the overlap matrix is 4.5765162487E-03.
  Using Symmetric Orthogonalization.
  SCF Guess: Core (One-Electron) Hamiltonian.

  ==> Iterations <==

                           Total Energy        Delta E     RMS |[F,P]|

   @DF-RHF iter   1:  -208.24705631157846   -2.08247e+02   7.37113e-02 
   @DF-RHF iter   2:  -103.45932133924524    1.04788e+02   9.04081e-02 DIIS
   @DF-RHF iter   3:  -227.61557003917378   -1.24156e+02   4.50044e-02 DIIS
   @DF-RHF iter   4:  -178.90901720806320    4.87066e+01   7.44604e-02 DIIS
   @DF-RHF iter   5:  -246.75964312591768   -6.78506e+01   3.94399e-02 DIIS
   @DF-RHF iter   6:  -270.80917522518803   -2.40495e+01   7.44453e-03 DIIS
   @DF-RHF iter   7:  -271.11114136605022   -3.01966e-01   3.22783e-03 DIIS
   @DF-RHF iter   8:  -271.16958471115754   -5.84433e-02   7.20985e-04 DIIS
   @DF-RHF iter   9:  -271.17347866510818   -3.89395e-03   2.31204e-04 DIIS
   @DF-RHF iter  10:  -271.17397875579150   -5.00091e-04   8.50271e-05 DIIS
   @DF-RHF iter  11:  -271.17404580952041   -6.70537e-05   2.74547e-05 DIIS
   @DF-RHF iter  12:  -271.17405400312987   -8.19361e-06   7.35343e-06 DIIS
   @DF-RHF iter  13:  -271.17405458964754   -5.86518e-07   2.18337e-06 DIIS
   @DF-RHF iter  14:  -271.17405464668661   -5.70391e-08   7.68938e-07 DIIS

  ==> Post-Iterations <==

    Orbital Energies (a.u.)
    -----------------------

    Doubly Occupied:                                                      

       1A    -20.553391     2A    -11.268167     3A    -11.211698  
       4A    -11.210638     5A    -11.206006     6A    -11.204798  
       7A     -1.360142     8A     -1.077480     9A     -1.005151  
      10A     -0.914020    11A     -0.833760    12A     -0.767872  
      13A     -0.703591    14A     -0.652118    15A     -0.613321  
      16A     -0.594736    17A     -0.577492    18A     -0.536967  
      19A     -0.524155    20A     -0.519421    21A     -0.487597  
      22A     -0.461933    23A     -0.452918    24A     -0.449950  
      25A     -0.428220  

    Virtual:                                                              

      26A      0.221394    27A      0.248143    28A      0.270964  
      29A      0.276740    30A      0.278295    31A      0.317140  
      32A      0.323777    33A      0.333490    34A      0.346200  
      35A      0.354661    36A      0.362065    37A      0.375884  
      38A      0.391162    39A      0.419528    40A      0.448823  
      41A      0.467906    42A      0.490473    43A      0.712023  
      44A      0.728734    45A      0.741189    46A      0.762224  
      47A      0.775594    48A      0.819339    49A      0.832738  
      50A      0.887019    51A      0.918359    52A      0.947654  
      53A      0.975859    54A      0.989611    55A      1.021538  
      56A      1.066651    57A      1.115964    58A      1.135090  
      59A      1.144718    60A      1.162341    61A      1.174706  
      62A      1.189114    63A      1.196317    64A      1.207186  
      65A      1.227082    66A      1.239744    67A      1.250013  
      68A      1.258806    69A      1.271895    70A      1.284239  
      71A      1.309729    72A      1.354470    73A      1.385684  
      74A      1.514026    75A      1.638543    76A      1.669428  
      77A      1.720111    78A      1.814748    79A      1.869234  
      80A      1.892368    81A      1.949165    82A      1.999807  
      83A      2.047867    84A      2.125066    85A      2.161098  
      86A      2.183406    87A      2.201365    88A      2.272809  
      89A      2.295981    90A      2.350119    91A      2.388858  
      92A      2.414588    93A      2.463295    94A      2.493335  
      95A      2.601086    96A      2.643757    97A      2.647018  
      98A      2.689135    99A      2.715507   100A      2.744729  
     101A      2.808596   102A      2.857484   103A      2.896631  
     104A      2.968289   105A      2.993471   106A      3.046836  
     107A      3.092831   108A      3.228905   109A      4.188352  
     110A      4.567934   111A      4.650848   112A      4.793701  
     113A      4.937277   114A      4.991624  

    Final Occupation by Irrep:
              A 
    DOCC [    25 ]

  Energy converged.

  @DF-RHF Final Energy:  -271.17405464668661

   => Energetics <=

    Nuclear Repulsion Energy =            253.4367381093702249
    One-Electron Energy =                -869.9906400208878949
    Two-Electron Energy =                 345.3798472648308575
    DFT Exchange-Correlation Energy =       0.0000000000000000
    Empirical Dispersion Energy =           0.0000000000000000
    PCM Polarization Energy =               0.0000000000000000
    EFP Energy =                            0.0000000000000000
    Total Energy =                       -271.1740546466867841

    Alert: EFP and PCM quantities not currently incorporated into SCF psivars.

Properties will be evaluated at   0.000000,   0.000000,   0.000000 Bohr
  ==> Properties <==


Properties computed using the SCF density matrix

  Nuclear Dipole Moment: (a.u.)
     X:     4.1915      Y:     3.1495      Z:     2.2986

  Electronic Dipole Moment: (a.u.)
     X:    -4.6101      Y:    -2.9293      Z:    -1.8580

  Dipole Moment: (a.u.)
     X:    -0.4186      Y:     0.2202      Z:     0.4406     Total:     0.6464

  Dipole Moment: (Debye)
     X:    -1.0639      Y:     0.5598      Z:     1.1198     Total:     1.6429


  Saving occupied orbitals to File 180.

*** tstop() called on cx1-3-2-3.cx1.hpc.ic.ac.uk at Tue Jul  5 16:36:40 2016
Module time:
	user time   =       9.73 seconds =       0.16 minutes
	system time =       0.06 seconds =       0.00 minutes
	total time  =         11 seconds =       0.18 minutes
Total time:
	user time   =       9.73 seconds =       0.16 minutes
	system time =       0.06 seconds =       0.00 minutes
	total time  =         11 seconds =       0.18 minutes


Properties will be evaluated at   0.000000,   0.000000,   0.000000 Bohr

Properties computed using the  density matrix

  Nuclear Dipole Moment: (a.u.)
     X:     4.1915      Y:     3.1495      Z:     2.2986

  Electronic Dipole Moment: (a.u.)
     X:    -4.6101      Y:    -2.9293      Z:    -1.8580

  Dipole Moment: (a.u.)
     X:    -0.4186      Y:     0.2202      Z:     0.4406     Total:     0.6464

  Dipole Moment: (Debye)
     X:    -1.0639      Y:     0.5598      Z:     1.1198     Total:     1.6429

  Quadrupole Moment: (Debye Ang)
    XX:   -34.4535     YY:   -40.6889     ZZ:   -41.7086
    XY:     0.6558     XZ:    -2.2884     YZ:    -1.7841

  Traceless Quadrupole Moment: (Debye Ang)
    XX:     4.4969     YY:    -1.7386     ZZ:    -2.7582
    XY:     0.6558     XZ:    -2.2884     YZ:    -1.7841

  Mulliken Charges: (a.u.)
   Center  Symbol    Alpha    Beta     Spin     Total
       1     H     0.28059  0.28059  0.00000  0.43881
       2     O     4.36929  4.36929  0.00000 -0.73859
       3     C     2.99839  2.99839  0.00000  0.00323
       4     C     3.16295  3.16295  0.00000 -0.32590
       5     H     0.42923  0.42923  0.00000  0.14154
       6     H     0.43286  0.43286  0.00000  0.13427
       7     C     3.15924  3.15924  0.00000 -0.31848
       8     H     0.41264  0.41264  0.00000  0.17472
       9     H     0.42220  0.42220  0.00000  0.15560
      10     C     3.15561  3.15561  0.00000 -0.31122
      11     H     0.42049  0.42049  0.00000  0.15902
      12     H     0.40605  0.40605  0.00000  0.18789
      13     C     3.24017  3.24017  0.00000 -0.48033
      14     H     0.42603  0.42603  0.00000  0.14795
      15     H     0.42089  0.42089  0.00000  0.15822
      16     H     0.42205  0.42205  0.00000  0.15589
      17     H     0.42003  0.42003  0.00000  0.15994
      18     H     0.42127  0.42127  0.00000  0.15746

   Total alpha = 25.00000, Total beta = 25.00000, Total charge = -0.00000


*** PSI4 exiting successfully. Buy a developer a beer!
