    -----------------------------------------------------------------------
          Psi4: An Open-Source Ab Initio Electronic Structure Package
                              Psi4 (no tag) Driver

                          Git: Rev {detached?}  

    J. M. Turney, A. C. Simmonett, R. M. Parrish, E. G. Hohenstein,
    F. A. Evangelista, J. T. Fermann, B. J. Mintz, L. A. Burns, J. J. Wilke,
    M. L. Abrams, N. J. Russ, M. L. Leininger, C. L. Janssen, E. T. Seidl,
    W. D. Allen, H. F. Schaefer, R. A. King, E. F. Valeev, C. D. Sherrill,
    and T. D. Crawford, WIREs Comput. Mol. Sci. 2, 556-565 (2012)
    (doi: 10.1002/wcms.93)

                         Additional Contributions by
    A. E. DePrince, M. Saitow, U. Bozkaya, A. Yu. Sokolov
    -----------------------------------------------------------------------


    Psi4 started on: Tue Jul  5 16:25:34 2016

    Process ID:  19896
    PSI4DATADIR: /export131/home/mjharvey/miniconda3/share
    Memory level set to 256.000 MB

  ==> Input File <==

--------------------------------------------------------------------------
set {
	reference rhf
	basis 6-31G*
}


set_num_threads( 1 )
memory 2 gb

molecule MOL {
0 1

H	 1.850664	 -2.863657	 0.259101
C	 1.532974	 -1.936751	 -0.210106
C	 0.489404	 -1.234793	 0.653222
H	 1.116278	 -2.168072	 -1.184076
H	 2.417502	 -1.327731	 -0.362550
N	 -0.000257	 -0.000071	 0.054619
H	 -0.348682	 -1.908432	 0.780510
H	 0.889801	 -1.055745	 1.655375
C	 -1.363055	 0.315058	 0.462241
C	 0.913844	 1.116816	 0.253717
C	 -2.412078	 -0.285320	 -0.468531
H	 -1.482241	 1.391144	 0.451970
H	 -1.549931	 -0.001174	 1.492681
C	 0.825840	 2.158047	 -0.857739
H	 1.925242	 0.730955	 0.272154
H	 0.752030	 1.590809	 1.226308
H	 -2.262839	 0.075384	 -1.480151
H	 -2.369300	 -1.368867	 -0.491760
H	 -3.410332	 -0.003975	 -0.144961
H	 1.044939	 1.699939	 -1.815740
H	 -0.158596	 2.608970	 -0.921804
H	 1.541268	 2.957206	 -0.685013

	symmetry c1
}
ee = energy('scf')
oeprop('DIPOLE', 'QUADRUPOLE', 'MULLIKEN_CHARGES')
f=open( 'psi4out.xyz', 'w' )
f.write( "22  " )
f.write( str(ee) + "\n" )
f.write( MOL.save_string_xyz() )
f.close()
--------------------------------------------------------------------------

  Memory set to   2.000 GiB by Python script.

*** tstart() called on cx1-3-15-2.cx1.hpc.ic.ac.uk
*** at Tue Jul  5 16:25:34 2016


         ---------------------------------------------------------
                                   SCF
            by Justin Turney, Rob Parrish, and Andy Simmonett
                              RHF Reference
                        1 Threads,   2000 MiB Core
         ---------------------------------------------------------

  ==> Geometry <==

    Molecular point group: c1
    Full point group: C1

    Geometry (in Angstrom), charge = 0, multiplicity = 1:

       Center              X                  Y                   Z               Mass       
    ------------   -----------------  -----------------  -----------------  -----------------
           H          1.852691222327    -2.882992707102     0.280826495666     1.007825032070
           C          1.535001222327    -1.956086707102    -0.188380504334    12.000000000000
           C          0.491431222327    -1.254128707102     0.674947495666    12.000000000000
           H          1.118305222327    -2.187407707102    -1.162350504334     1.007825032070
           H          2.419529222327    -1.347066707102    -0.340824504334     1.007825032070
           N          0.001770222327    -0.019406707102     0.076344495666    14.003074004780
           H         -0.346654777673    -1.927767707102     0.802235495666     1.007825032070
           H          0.891828222327    -1.075080707102     1.677100495666     1.007825032070
           C         -1.361027777673     0.295722292898     0.483966495666    12.000000000000
           C          0.915871222327     1.097480292898     0.275442495666    12.000000000000
           C         -2.410050777673    -0.304655707102    -0.446805504334    12.000000000000
           H         -1.480213777673     1.371808292898     0.473695495666     1.007825032070
           H         -1.547903777673    -0.020509707102     1.514406495666     1.007825032070
           C          0.827867222327     2.138711292898    -0.836013504334    12.000000000000
           H          1.927269222327     0.711619292898     0.293879495666     1.007825032070
           H          0.754057222327     1.571473292898     1.248033495666     1.007825032070
           H         -2.260811777673     0.056048292898    -1.458425504334     1.007825032070
           H         -2.367272777673    -1.388202707102    -0.470034504334     1.007825032070
           H         -3.408304777673    -0.023310707102    -0.123235504334     1.007825032070
           H          1.046966222327     1.680603292898    -1.794014504334     1.007825032070
           H         -0.156568777673     2.589634292898    -0.900078504334     1.007825032070
           H          1.543295222327     2.937870292898    -0.663287504334     1.007825032070

  Running in c1 symmetry.

  Rotational constants: A =      0.07980  B =      0.07429  C =      0.04512 [cm^-1]
  Rotational constants: A =   2392.34935  B =   2227.08386  C =   1352.67602 [MHz]
  Nuclear repulsion =  337.387073229098803

  Charge       = 0
  Multiplicity = 1
  Electrons    = 58
  Nalpha       = 29
  Nbeta        = 29

  ==> Algorithm <==

  SCF Algorithm Type is DF.
  DIIS enabled.
  MOM disabled.
  Fractional occupation disabled.
  Guess Type is CORE.
  Energy threshold   = 1.00e-06
  Density threshold  = 1.00e-06
  Integral threshold = 0.00e+00

  ==> Primary Basis <==

  Basis Set: 6-31G*
    Number of shells: 72
    Number of basis function: 135
    Number of Cartesian functions: 135
    Spherical Harmonics?: false
    Max angular momentum: 2

  ==> Pre-Iterations <==

   -------------------------------------------------------
    Irrep   Nso     Nmo     Nalpha   Nbeta   Ndocc  Nsocc
   -------------------------------------------------------
     A        135     135       0       0       0       0
   -------------------------------------------------------
    Total     135     135      29      29      29       0
   -------------------------------------------------------

 OEINTS: Overlap, kinetic, potential, dipole, and quadrupole integrals
         stored in file 35.

  ==> Integral Setup <==

  ==> DFJK: Density-Fitted J/K Matrices <==

    J tasked:                  Yes
    K tasked:                  Yes
    wK tasked:                  No
    OpenMP threads:              1
    Integrals threads:           1
    Memory (MB):              1430
    Algorithm:                Core
    Integral Cache:           NONE
    Schwarz Cutoff:          1E-12
    Fitting Condition:       1E-12

   => Auxiliary Basis Set <=

  Basis Set: 
    Number of shells: 303
    Number of basis function: 942
    Number of Cartesian functions: 942
    Spherical Harmonics?: false
    Max angular momentum: 3

  Minimum eigenvalue in the overlap matrix is 4.4727125110E-03.
  Using Symmetric Orthogonalization.
  SCF Guess: Core (One-Electron) Hamiltonian.

  ==> Iterations <==

                           Total Energy        Delta E     RMS |[F,P]|

   @DF-RHF iter   1:  -151.27430621748266   -1.51274e+02   8.76573e-02 
   @DF-RHF iter   2:  -202.93185786625901   -5.16576e+01   5.26337e-02 DIIS
   @DF-RHF iter   3:  -243.93866032401132   -4.10068e+01   5.15479e-02 DIIS
   @DF-RHF iter   4:  -286.33203006394632   -4.23934e+01   1.91771e-02 DIIS
   @DF-RHF iter   5:  -289.95523240145343   -3.62320e+00   6.65842e-03 DIIS
   @DF-RHF iter   6:  -290.34325822640557   -3.88026e-01   1.50563e-03 DIIS
   @DF-RHF iter   7:  -290.36987084094125   -2.66126e-02   3.70827e-04 DIIS
   @DF-RHF iter   8:  -290.37158216563688   -1.71132e-03   1.17894e-04 DIIS
   @DF-RHF iter   9:  -290.37176960150822   -1.87436e-04   4.35268e-05 DIIS
   @DF-RHF iter  10:  -290.37179280273114   -2.32012e-05   1.34952e-05 DIIS
   @DF-RHF iter  11:  -290.37179520690330   -2.40417e-06   3.03846e-06 DIIS
   @DF-RHF iter  12:  -290.37179532984516   -1.22942e-07   7.96581e-07 DIIS

  ==> Post-Iterations <==

    Orbital Energies (a.u.)
    -----------------------

    Doubly Occupied:                                                      

       1A    -15.536579     2A    -11.240740     3A    -11.240304  
       4A    -11.239934     5A    -11.205134     6A    -11.205035  
       7A    -11.203869     8A     -1.223658     9A     -1.023898  
      10A     -1.022449    11A     -0.954972    12A     -0.847061  
      13A     -0.843639    14A     -0.773792    15A     -0.648434  
      16A     -0.643656    17A     -0.617115    18A     -0.592161  
      19A     -0.588475    20A     -0.551545    21A     -0.532455  
      22A     -0.519396    23A     -0.517126    24A     -0.495683  
      25A     -0.494015    26A     -0.486430    27A     -0.462302  
      28A     -0.460568    29A     -0.340528  

    Virtual:                                                              

      30A      0.230479    31A      0.254243    32A      0.256283  
      33A      0.277644    34A      0.298887    35A      0.302979  
      36A      0.320898    37A      0.321703    38A      0.325261  
      39A      0.335448    40A      0.336957    41A      0.351997  
      42A      0.352732    43A      0.380615    44A      0.389008  
      45A      0.393559    46A      0.417133    47A      0.420393  
      48A      0.439542    49A      0.476991    50A      0.484014  
      51A      0.720003    52A      0.729156    53A      0.735832  
      54A      0.743192    55A      0.744517    56A      0.759419  
      57A      0.800405    58A      0.804122    59A      0.813897  
      60A      0.904431    61A      0.925302    62A      0.933199  
      63A      0.943952    64A      0.965637    65A      0.973281  
      66A      1.044020    67A      1.047859    68A      1.102645  
      69A      1.132854    70A      1.136563    71A      1.138210  
      72A      1.158305    73A      1.171504    74A      1.177102  
      75A      1.187174    76A      1.198880    77A      1.203136  
      78A      1.206819    79A      1.249069    80A      1.252504  
      81A      1.254461    82A      1.279953    83A      1.284494  
      84A      1.291415    85A      1.330350    86A      1.345210  
      87A      1.351774    88A      1.503311    89A      1.525448  
      90A      1.680057    91A      1.681676    92A      1.702773  
      93A      1.744285    94A      1.838988    95A      1.847888  
      96A      1.893146    97A      2.061089    98A      2.069129  
      99A      2.077419   100A      2.167999   101A      2.189546  
     102A      2.263705   103A      2.280225   104A      2.286754  
     105A      2.307148   106A      2.334678   107A      2.340447  
     108A      2.345789   109A      2.429219   110A      2.434689  
     111A      2.535351   112A      2.539902   113A      2.575219  
     114A      2.652950   115A      2.669225   116A      2.670834  
     117A      2.690434   118A      2.698221   119A      2.703776  
     120A      2.745626   121A      2.805085   122A      2.868578  
     123A      2.875052   124A      3.062793   125A      3.095078  
     126A      3.115353   127A      3.237618   128A      3.241055  
     129A      4.488603   130A      4.623445   131A      4.628651  
     132A      4.704249   133A      4.858950   134A      4.870664  
     135A      4.935828  

    Final Occupation by Irrep:
              A 
    DOCC [    29 ]

  Energy converged.

  @DF-RHF Final Energy:  -290.37179532984516

   => Energetics <=

    Nuclear Repulsion Energy =            337.3870732290988030
    One-Electron Energy =               -1060.4961536407349740
    Two-Electron Energy =                 432.7372850817911285
    DFT Exchange-Correlation Energy =       0.0000000000000000
    Empirical Dispersion Energy =           0.0000000000000000
    PCM Polarization Energy =               0.0000000000000000
    EFP Energy =                            0.0000000000000000
    Total Energy =                       -290.3717953298449856

    Alert: EFP and PCM quantities not currently incorporated into SCF psivars.

Properties will be evaluated at   0.000000,   0.000000,   0.000000 Bohr
  ==> Properties <==


Properties computed using the SCF density matrix

  Nuclear Dipole Moment: (a.u.)
     X:    -0.0129      Y:     0.0626      Z:    -0.5834

  Electronic Dipole Moment: (a.u.)
     X:     0.0335      Y:    -0.0153      Z:     0.8798

  Dipole Moment: (a.u.)
     X:     0.0205      Y:     0.0473      Z:     0.2964     Total:     0.3008

  Dipole Moment: (Debye)
     X:     0.0522      Y:     0.1201      Z:     0.7533     Total:     0.7646


  Saving occupied orbitals to File 180.

*** tstop() called on cx1-3-15-2.cx1.hpc.ic.ac.uk at Tue Jul  5 16:25:52 2016
Module time:
	user time   =      17.49 seconds =       0.29 minutes
	system time =       0.07 seconds =       0.00 minutes
	total time  =         18 seconds =       0.30 minutes
Total time:
	user time   =      17.49 seconds =       0.29 minutes
	system time =       0.07 seconds =       0.00 minutes
	total time  =         18 seconds =       0.30 minutes


Properties will be evaluated at   0.000000,   0.000000,   0.000000 Bohr

Properties computed using the  density matrix

  Nuclear Dipole Moment: (a.u.)
     X:    -0.0129      Y:     0.0626      Z:    -0.5834

  Electronic Dipole Moment: (a.u.)
     X:     0.0335      Y:    -0.0153      Z:     0.8798

  Dipole Moment: (a.u.)
     X:     0.0205      Y:     0.0473      Z:     0.2964     Total:     0.3008

  Dipole Moment: (Debye)
     X:     0.0522      Y:     0.1201      Z:     0.7533     Total:     0.7646

  Quadrupole Moment: (Debye Ang)
    XX:   -46.8667     YY:   -46.7505     ZZ:   -48.6768
    XY:     0.0247     XZ:    -0.1611     YZ:    -0.3272

  Traceless Quadrupole Moment: (Debye Ang)
    XX:     0.5646     YY:     0.6808     ZZ:    -1.2455
    XY:     0.0247     XZ:    -0.1611     YZ:    -0.3272

  Mulliken Charges: (a.u.)
   Center  Symbol    Alpha    Beta     Spin     Total
       1     H     0.42361  0.42361  0.00000  0.15277
       2     C     3.23546  3.23546  0.00000 -0.47092
       3     C     3.05898  3.05898  0.00000 -0.11797
       4     H     0.41511  0.41511  0.00000  0.16978
       5     H     0.42132  0.42132  0.00000  0.15736
       6     N     3.78305  3.78305  0.00000 -0.56609
       7     H     0.41865  0.41865  0.00000  0.16269
       8     H     0.43229  0.43229  0.00000  0.13541
       9     C     3.06069  3.06069  0.00000 -0.12137
      10     C     3.05993  3.05993  0.00000 -0.11985
      11     C     3.23189  3.23189  0.00000 -0.46379
      12     H     0.41950  0.41950  0.00000  0.16100
      13     H     0.43000  0.43000  0.00000  0.14000
      14     C     3.23509  3.23509  0.00000 -0.47019
      15     H     0.41896  0.41896  0.00000  0.16209
      16     H     0.43209  0.43209  0.00000  0.13582
      17     H     0.41614  0.41614  0.00000  0.16771
      18     H     0.42172  0.42172  0.00000  0.15655
      19     H     0.42523  0.42523  0.00000  0.14953
      20     H     0.41519  0.41519  0.00000  0.16961
      21     H     0.42139  0.42139  0.00000  0.15722
      22     H     0.42368  0.42368  0.00000  0.15264

   Total alpha = 29.00000, Total beta = 29.00000, Total charge =  0.00000


*** PSI4 exiting successfully. Buy a developer a beer!
