    -----------------------------------------------------------------------
          Psi4: An Open-Source Ab Initio Electronic Structure Package
                              Psi4 (no tag) Driver

                          Git: Rev {detached?}  

    J. M. Turney, A. C. Simmonett, R. M. Parrish, E. G. Hohenstein,
    F. A. Evangelista, J. T. Fermann, B. J. Mintz, L. A. Burns, J. J. Wilke,
    M. L. Abrams, N. J. Russ, M. L. Leininger, C. L. Janssen, E. T. Seidl,
    W. D. Allen, H. F. Schaefer, R. A. King, E. F. Valeev, C. D. Sherrill,
    and T. D. Crawford, WIREs Comput. Mol. Sci. 2, 556-565 (2012)
    (doi: 10.1002/wcms.93)

                         Additional Contributions by
    A. E. DePrince, M. Saitow, U. Bozkaya, A. Yu. Sokolov
    -----------------------------------------------------------------------


    Psi4 started on: Tue Jul  5 16:37:14 2016

    Process ID:  29674
    PSI4DATADIR: /export131/home/mjharvey/miniconda3/share
    Memory level set to 256.000 MB

  ==> Input File <==

--------------------------------------------------------------------------
set {
	reference rhf
	basis 6-31G*
}


set_num_threads( 1 )
memory 2 gb

molecule MOL {
0 1

H	 -4.017305	 -0.577637	 0.476945
C	 -2.952713	 -0.425393	 0.492737
C	 -2.425305	 0.707794	 1.093467
C	 -2.112581	 -1.362642	 -0.087500
H	 -3.077978	 1.433888	 1.543101
C	 -1.056350	 0.902855	 1.113376
H	 -2.523231	 -2.240451	 -0.552713
C	 -0.741921	 -1.169475	 -0.068766
H	 -0.630629	 1.773772	 1.573742
C	 -0.210214	 -0.034794	 0.532523
H	 -0.088068	 -1.892159	 -0.516566
C	 1.256831	 0.222312	 0.580806
O	 1.970282	 -0.730723	 0.000018
O	 1.747986	 1.182303	 1.086813
C	 3.377318	 -0.566646	 -0.000065
H	 3.695437	 -0.028981	 -0.881264
H	 3.789299	 -1.563704	 0.000236
H	 3.695516	 -0.028316	 0.880770

	symmetry c1
}
set optking {
	frozen_dihedral = ("
		10 12 13 15,
		13 12 10 6
	")
}

ee = energy('scf')
oeprop('DIPOLE', 'QUADRUPOLE', 'MULLIKEN_CHARGES')
f=open( 'psi4out.xyz', 'w' )
f.write( "18  " )
f.write( str(ee) + "\n" )
f.write( MOL.save_string_xyz() )
f.close()
--------------------------------------------------------------------------

  Memory set to   2.000 GiB by Python script.

*** tstart() called on cx1-3-5-2.cx1.hpc.ic.ac.uk
*** at Tue Jul  5 16:37:15 2016


         ---------------------------------------------------------
                                   SCF
            by Justin Turney, Rob Parrish, and Andy Simmonett
                              RHF Reference
                        1 Threads,   2000 MiB Core
         ---------------------------------------------------------

  ==> Geometry <==

    Molecular point group: c1
    Full point group: C1

    Geometry (in Angstrom), charge = 0, multiplicity = 1:

       Center              X                  Y                   Z               Mass       
    ------------   -----------------  -----------------  -----------------  -----------------
           H         -4.031592117273    -0.455353886835     0.007958825828     1.007825032070
           C         -2.967000117273    -0.303109886835     0.023750825828    12.000000000000
           C         -2.439592117273     0.830077113165     0.624480825828    12.000000000000
           C         -2.126868117273    -1.240358886835    -0.556486174172    12.000000000000
           H         -3.092265117273     1.556171113165     1.074114825828     1.007825032070
           C         -1.070637117273     1.025138113165     0.644389825828    12.000000000000
           H         -2.537518117273    -2.118167886835    -1.021699174172     1.007825032070
           C         -0.756208117273    -1.047191886835    -0.537752174172    12.000000000000
           H         -0.644916117273     1.896055113165     1.104755825828     1.007825032070
           C         -0.224501117273     0.087489113165     0.063536825828    12.000000000000
           H         -0.102355117273    -1.769875886835    -0.985552174172     1.007825032070
           C          1.242543882727     0.344595113165     0.111819825828    12.000000000000
           O          1.955994882727    -0.608439886835    -0.468968174172    15.994914619560
           O          1.733698882727     1.304586113165     0.617826825828    15.994914619560
           C          3.363030882727    -0.444362886835    -0.469051174172    12.000000000000
           H          3.681149882727     0.093302113165    -1.350250174172     1.007825032070
           H          3.775011882727    -1.441420886835    -0.468750174172     1.007825032070
           H          3.681228882727     0.093967113165     0.411783825828     1.007825032070

  Running in c1 symmetry.

  Rotational constants: A =      0.11977  B =      0.02837  C =      0.02304 [cm^-1]
  Rotational constants: A =   3590.52733  B =    850.55437  C =    690.60597 [MHz]
  Nuclear repulsion =  493.075174054734077

  Charge       = 0
  Multiplicity = 1
  Electrons    = 72
  Nalpha       = 36
  Nbeta        = 36

  ==> Algorithm <==

  SCF Algorithm Type is DF.
  DIIS enabled.
  MOM disabled.
  Fractional occupation disabled.
  Guess Type is CORE.
  Energy threshold   = 1.00e-06
  Density threshold  = 1.00e-06
  Integral threshold = 0.00e+00

  ==> Primary Basis <==

  Basis Set: 6-31G*
    Number of shells: 76
    Number of basis function: 166
    Number of Cartesian functions: 166
    Spherical Harmonics?: false
    Max angular momentum: 2

  ==> Pre-Iterations <==

   -------------------------------------------------------
    Irrep   Nso     Nmo     Nalpha   Nbeta   Ndocc  Nsocc
   -------------------------------------------------------
     A        166     166       0       0       0       0
   -------------------------------------------------------
    Total     166     166      36      36      36       0
   -------------------------------------------------------

 OEINTS: Overlap, kinetic, potential, dipole, and quadrupole integrals
         stored in file 35.

  ==> Integral Setup <==

  ==> DFJK: Density-Fitted J/K Matrices <==

    J tasked:                  Yes
    K tasked:                  Yes
    wK tasked:                  No
    OpenMP threads:              1
    Integrals threads:           1
    Memory (MB):              1430
    Algorithm:                Core
    Integral Cache:           NONE
    Schwarz Cutoff:          1E-12
    Fitting Condition:       1E-12

   => Auxiliary Basis Set <=

  Basis Set: 
    Number of shells: 312
    Number of basis function: 1010
    Number of Cartesian functions: 1010
    Spherical Harmonics?: false
    Max angular momentum: 3

  Minimum eigenvalue in the overlap matrix is 4.3156300195E-04.
  Using Symmetric Orthogonalization.
  SCF Guess: Core (One-Electron) Hamiltonian.

  ==> Iterations <==

                           Total Energy        Delta E     RMS |[F,P]|

   @DF-RHF iter   1:  -346.64160280077448   -3.46642e+02   6.57228e-02 
   @DF-RHF iter   2:  -301.87830622532016    4.47633e+01   5.70932e-02 DIIS
   @DF-RHF iter   3:  -391.69013990190530   -8.98118e+01   4.97077e-02 DIIS
   @DF-RHF iter   4:  -422.48974122062072   -3.07996e+01   4.05112e-02 DIIS
   @DF-RHF iter   5:  -419.76604545492984    2.72370e+00   3.21020e-02 DIIS
   @DF-RHF iter   6:  -450.47764575613411   -3.07116e+01   1.34248e-02 DIIS
   @DF-RHF iter   7:  -453.85643332063711   -3.37879e+00   1.23385e-02 DIIS
   @DF-RHF iter   8:  -457.22215362682897   -3.36572e+00   2.75729e-03 DIIS
   @DF-RHF iter   9:  -457.33167289422096   -1.09519e-01   9.97318e-04 DIIS
   @DF-RHF iter  10:  -457.34640453887170   -1.47316e-02   4.03076e-04 DIIS
   @DF-RHF iter  11:  -457.34872433316792   -2.31979e-03   1.47951e-04 DIIS
   @DF-RHF iter  12:  -457.34916720687039   -4.42874e-04   5.14780e-05 DIIS
   @DF-RHF iter  13:  -457.34924617252585   -7.89657e-05   2.55245e-05 DIIS
   @DF-RHF iter  14:  -457.34926989604111   -2.37235e-05   1.10034e-05 DIIS
   @DF-RHF iter  15:  -457.34927670537860   -6.80934e-06   5.19308e-06 DIIS
   @DF-RHF iter  16:  -457.34927862454271   -1.91916e-06   2.29146e-06 DIIS
   @DF-RHF iter  17:  -457.34927898188022   -3.57338e-07   5.76138e-07 DIIS

  ==> Post-Iterations <==

    Orbital Energies (a.u.)
    -----------------------

    Doubly Occupied:                                                      

       1A    -20.607562     2A    -20.543938     3A    -11.378441  
       4A    -11.280525     5A    -11.245743     6A    -11.245454  
       7A    -11.244289     8A    -11.241879     9A    -11.237589  
      10A    -11.236805    11A     -1.472898    12A     -1.363966  
      13A     -1.165438    14A     -1.048244    15A     -1.024918  
      16A     -0.977601    17A     -0.860050    18A     -0.834464  
      19A     -0.777444    20A     -0.740536    21A     -0.684226  
      22A     -0.676598    23A     -0.671902    24A     -0.631327  
      25A     -0.624030    26A     -0.597744    27A     -0.583322  
      28A     -0.564426    29A     -0.525483    30A     -0.517179  
      31A     -0.503881    32A     -0.498784    33A     -0.458182  
      34A     -0.444550    35A     -0.345119    36A     -0.341083  

    Virtual:                                                              

      37A      0.100671    38A      0.141017    39A      0.238395  
      40A      0.248511    41A      0.264739    42A      0.292252  
      43A      0.303040    44A      0.313903    45A      0.319843  
      46A      0.331236    47A      0.338368    48A      0.350149  
      49A      0.388794    50A      0.447201    51A      0.469022  
      52A      0.482590    53A      0.488750    54A      0.500598  
      55A      0.555177    56A      0.580015    57A      0.701747  
      58A      0.710154    59A      0.735129    60A      0.739887  
      61A      0.745431    62A      0.771889    63A      0.791168  
      64A      0.797297    65A      0.814106    66A      0.816328  
      67A      0.819795    68A      0.833242    69A      0.839219  
      70A      0.855912    71A      0.879617    72A      0.901486  
      73A      0.911725    74A      0.962192    75A      0.988284  
      76A      0.997906    77A      1.023524    78A      1.087622  
      79A      1.098043    80A      1.101090    81A      1.112242  
      82A      1.120554    83A      1.131704    84A      1.136758  
      85A      1.169181    86A      1.190955    87A      1.207319  
      88A      1.217724    89A      1.239799    90A      1.251204  
      91A      1.276142    92A      1.310022    93A      1.317956  
      94A      1.353888    95A      1.370658    96A      1.403069  
      97A      1.453696    98A      1.502279    99A      1.521728  
     100A      1.540730   101A      1.562669   102A      1.605574  
     103A      1.644201   104A      1.669639   105A      1.695604  
     106A      1.715813   107A      1.731246   108A      1.757974  
     109A      1.767773   110A      1.784263   111A      1.828900  
     112A      1.890708   113A      1.952433   114A      1.996664  
     115A      2.055506   116A      2.083848   117A      2.124400  
     118A      2.173682   119A      2.179843   120A      2.193560  
     121A      2.243143   122A      2.246598   123A      2.322510  
     124A      2.359753   125A      2.382413   126A      2.397731  
     127A      2.416340   128A      2.430834   129A      2.462990  
     130A      2.473242   131A      2.482997   132A      2.489033  
     133A      2.496369   134A      2.589149   135A      2.622130  
     136A      2.638010   137A      2.643437   138A      2.670499  
     139A      2.720009   140A      2.828108   141A      2.854257  
     142A      2.903592   143A      2.941844   144A      2.985597  
     145A      2.992951   146A      3.079302   147A      3.092302  
     148A      3.112490   149A      3.124613   150A      3.172497  
     151A      3.211566   152A      3.324372   153A      3.376077  
     154A      3.543692   155A      3.622650   156A      3.852669  
     157A      4.395073   158A      4.519767   159A      4.538615  
     160A      4.549749   161A      4.674926   162A      4.710023  
     163A      4.745063   164A      4.852255   165A      4.990053  
     166A      5.154518  

    Final Occupation by Irrep:
              A 
    DOCC [    36 ]

  Energy converged.

  @DF-RHF Final Energy:  -457.34927898188022

   => Energetics <=

    Nuclear Repulsion Energy =            493.0751740547340773
    One-Electron Energy =               -1600.4574079443877963
    Two-Electron Energy =                 650.0329549077728188
    DFT Exchange-Correlation Energy =       0.0000000000000000
    Empirical Dispersion Energy =           0.0000000000000000
    PCM Polarization Energy =               0.0000000000000000
    EFP Energy =                            0.0000000000000000
    Total Energy =                       -457.3492789818808433

    Alert: EFP and PCM quantities not currently incorporated into SCF psivars.

Properties will be evaluated at   0.000000,   0.000000,   0.000000 Bohr
  ==> Properties <==


Properties computed using the SCF density matrix

  Nuclear Dipole Moment: (a.u.)
     X:     0.7009      Y:    -2.0078      Z:    -1.1502

  Electronic Dipole Moment: (a.u.)
     X:    -0.9932      Y:     1.3393      Z:     0.8136

  Dipole Moment: (a.u.)
     X:    -0.2923      Y:    -0.6685      Z:    -0.3366     Total:     0.8035

  Dipole Moment: (Debye)
     X:    -0.7428      Y:    -1.6993      Z:    -0.8554     Total:     2.0423


  Saving occupied orbitals to File 180.

*** tstop() called on cx1-3-5-2.cx1.hpc.ic.ac.uk at Tue Jul  5 16:37:40 2016
Module time:
	user time   =      24.45 seconds =       0.41 minutes
	system time =       0.30 seconds =       0.01 minutes
	total time  =         25 seconds =       0.42 minutes
Total time:
	user time   =      24.45 seconds =       0.41 minutes
	system time =       0.30 seconds =       0.01 minutes
	total time  =         25 seconds =       0.42 minutes


Properties will be evaluated at   0.000000,   0.000000,   0.000000 Bohr

Properties computed using the  density matrix

  Nuclear Dipole Moment: (a.u.)
     X:     0.7009      Y:    -2.0078      Z:    -1.1502

  Electronic Dipole Moment: (a.u.)
     X:    -0.9932      Y:     1.3393      Z:     0.8136

  Dipole Moment: (a.u.)
     X:    -0.2923      Y:    -0.6685      Z:    -0.3366     Total:     0.8035

  Dipole Moment: (Debye)
     X:    -0.7428      Y:    -1.6993      Z:    -0.8554     Total:     2.0423

  Quadrupole Moment: (Debye Ang)
    XX:   -46.0837     YY:   -58.4202     ZZ:   -59.4026
    XY:    -4.1075     XZ:    -3.0514     YZ:     1.3138

  Traceless Quadrupole Moment: (Debye Ang)
    XX:     8.5518     YY:    -3.7847     ZZ:    -4.7671
    XY:    -4.1075     XZ:    -3.0514     YZ:     1.3138

  Mulliken Charges: (a.u.)
   Center  Symbol    Alpha    Beta     Spin     Total
       1     H     0.39533  0.39533  0.00000  0.20933
       2     C     3.08993  3.08993  0.00000 -0.17985
       3     C     3.10711  3.10711  0.00000 -0.21422
       4     C     3.10718  3.10718  0.00000 -0.21435
       5     H     0.39534  0.39534  0.00000  0.20933
       6     C     3.08640  3.08640  0.00000 -0.17279
       7     H     0.39621  0.39621  0.00000  0.20759
       8     C     3.08712  3.08712  0.00000 -0.17424
       9     H     0.37590  0.37590  0.00000  0.24820
      10     C     3.07730  3.07730  0.00000 -0.15461
      11     H     0.38027  0.38027  0.00000  0.23946
      12     C     2.57993  2.57993  0.00000  0.84014
      13     O     4.31453  4.31453  0.00000 -0.62907
      14     O     4.29223  4.29223  0.00000 -0.58445
      15     C     3.09676  3.09676  0.00000 -0.19352
      16     H     0.41175  0.41175  0.00000  0.17649
      17     H     0.40976  0.40976  0.00000  0.18048
      18     H     0.39696  0.39696  0.00000  0.20609

   Total alpha = 36.00000, Total beta = 36.00000, Total charge =  0.00000


*** PSI4 exiting successfully. Buy a developer a beer!
