    -----------------------------------------------------------------------
          Psi4: An Open-Source Ab Initio Electronic Structure Package
                              Psi4 (no tag) Driver

                          Git: Rev {detached?}  

    J. M. Turney, A. C. Simmonett, R. M. Parrish, E. G. Hohenstein,
    F. A. Evangelista, J. T. Fermann, B. J. Mintz, L. A. Burns, J. J. Wilke,
    M. L. Abrams, N. J. Russ, M. L. Leininger, C. L. Janssen, E. T. Seidl,
    W. D. Allen, H. F. Schaefer, R. A. King, E. F. Valeev, C. D. Sherrill,
    and T. D. Crawford, WIREs Comput. Mol. Sci. 2, 556-565 (2012)
    (doi: 10.1002/wcms.93)

                         Additional Contributions by
    A. E. DePrince, M. Saitow, U. Bozkaya, A. Yu. Sokolov
    -----------------------------------------------------------------------


    Psi4 started on: Tue Jul  5 16:28:13 2016

    Process ID:  32029
    PSI4DATADIR: /export131/home/mjharvey/miniconda3/share
    Memory level set to 256.000 MB

  ==> Input File <==

--------------------------------------------------------------------------
set {
	reference rhf
	basis 6-31G*
}


set_num_threads( 1 )
memory 2 gb

molecule MOL {
0 1

H	 1.148083	 -1.049780	 0.784252
O	 1.319262	 -0.618148	 -0.041729
C	 0.709265	 0.639550	 -0.033818
C	 0.625041	 1.276071	 1.328653
H	 -0.289237	 0.493845	 -0.430010
H	 1.217867	 1.320628	 -0.715347
C	 0.927817	 0.683447	 2.466145
H	 0.281930	 2.299176	 1.332566
H	 1.255114	 -0.339812	 2.501443
H	 0.844681	 1.199956	 3.405444

	symmetry c1
}
set optking {
	frozen_dihedral = ("
		5 3 4 7,
		3 4 7 9
	")
}

ee = energy('scf')
oeprop('DIPOLE', 'QUADRUPOLE', 'MULLIKEN_CHARGES')
f=open( 'psi4out.xyz', 'w' )
f.write( "10  " )
f.write( str(ee) + "\n" )
f.write( MOL.save_string_xyz() )
f.close()
--------------------------------------------------------------------------

  Memory set to   2.000 GiB by Python script.

*** tstart() called on cx1-3-5-2.cx1.hpc.ic.ac.uk
*** at Tue Jul  5 16:28:13 2016


         ---------------------------------------------------------
                                   SCF
            by Justin Turney, Rob Parrish, and Andy Simmonett
                              RHF Reference
                        1 Threads,   2000 MiB Core
         ---------------------------------------------------------

  ==> Geometry <==

    Molecular point group: c1
    Full point group: C1

    Geometry (in Angstrom), charge = 0, multiplicity = 1:

       Center              X                  Y                   Z               Mass       
    ------------   -----------------  -----------------  -----------------  -----------------
           H          0.239423627287    -1.484919534664    -0.101255033036     1.007825032070
           O          0.410602627287    -1.053287534664    -0.927236033036    15.994914619560
           C         -0.199394372713     0.204410465336    -0.919325033036    12.000000000000
           C         -0.283618372713     0.840931465336     0.443145966964    12.000000000000
           H         -1.197896372713     0.058705465336    -1.315517033036     1.007825032070
           H          0.309207627287     0.885488465336    -1.600854033036     1.007825032070
           C          0.019157627287     0.248307465336     1.580637966964    12.000000000000
           H         -0.626729372713     1.864036465336     0.447058966964     1.007825032070
           H          0.346454627287    -0.774951534664     1.615935966964     1.007825032070
           H         -0.063978372713     0.764816465336     2.519936966964     1.007825032070

  Running in c1 symmetry.

  Rotational constants: A =      0.57769  B =      0.20118  C =      0.15391 [cm^-1]
  Rotational constants: A =  17318.71806  B =   6031.19978  C =   4614.20752 [MHz]
  Nuclear repulsion =  119.758360568078345

  Charge       = 0
  Multiplicity = 1
  Electrons    = 32
  Nalpha       = 16
  Nbeta        = 16

  ==> Algorithm <==

  SCF Algorithm Type is DF.
  DIIS enabled.
  MOM disabled.
  Fractional occupation disabled.
  Guess Type is CORE.
  Energy threshold   = 1.00e-06
  Density threshold  = 1.00e-06
  Integral threshold = 0.00e+00

  ==> Primary Basis <==

  Basis Set: 6-31G*
    Number of shells: 36
    Number of basis function: 72
    Number of Cartesian functions: 72
    Spherical Harmonics?: false
    Max angular momentum: 2

  ==> Pre-Iterations <==

   -------------------------------------------------------
    Irrep   Nso     Nmo     Nalpha   Nbeta   Ndocc  Nsocc
   -------------------------------------------------------
     A         72      72       0       0       0       0
   -------------------------------------------------------
    Total      72      72      16      16      16       0
   -------------------------------------------------------

 OEINTS: Overlap, kinetic, potential, dipole, and quadrupole integrals
         stored in file 35.

  ==> Integral Setup <==

  ==> DFJK: Density-Fitted J/K Matrices <==

    J tasked:                  Yes
    K tasked:                  Yes
    wK tasked:                  No
    OpenMP threads:              1
    Integrals threads:           1
    Memory (MB):              1430
    Algorithm:                Core
    Integral Cache:           NONE
    Schwarz Cutoff:          1E-12
    Fitting Condition:       1E-12

   => Auxiliary Basis Set <=

  Basis Set: 
    Number of shells: 150
    Number of basis function: 474
    Number of Cartesian functions: 474
    Spherical Harmonics?: false
    Max angular momentum: 3

  Minimum eigenvalue in the overlap matrix is 3.7129532118E-03.
  Using Symmetric Orthogonalization.
  SCF Guess: Core (One-Electron) Hamiltonian.

  ==> Iterations <==

                           Total Energy        Delta E     RMS |[F,P]|

   @DF-RHF iter   1:  -158.41075726243224   -1.58411e+02   8.89167e-02 
   @DF-RHF iter   2:  -125.21967839210116    3.31911e+01   8.13221e-02 DIIS
   @DF-RHF iter   3:  -168.91138163758461   -4.36917e+01   5.74249e-02 DIIS
   @DF-RHF iter   4:  -188.12968356614618   -1.92183e+01   3.42522e-02 DIIS
   @DF-RHF iter   5:  -191.71661028642620   -3.58693e+00   9.27784e-03 DIIS
   @DF-RHF iter   6:  -191.86798164378700   -1.51371e-01   3.88811e-03 DIIS
   @DF-RHF iter   7:  -191.90357298038344   -3.55913e-02   1.61491e-03 DIIS
   @DF-RHF iter   8:  -191.91049591006117   -6.92293e-03   4.57005e-04 DIIS
   @DF-RHF iter   9:  -191.91118852298126   -6.92613e-04   1.20556e-04 DIIS
   @DF-RHF iter  10:  -191.91125161477504   -6.30918e-05   3.52985e-05 DIIS
   @DF-RHF iter  11:  -191.91125798120100   -6.36643e-06   1.50428e-05 DIIS
   @DF-RHF iter  12:  -191.91125928687524   -1.30567e-06   4.30429e-06 DIIS
   @DF-RHF iter  13:  -191.91125938725128   -1.00376e-07   9.91988e-07 DIIS

  ==> Post-Iterations <==

    Orbital Energies (a.u.)
    -----------------------

    Doubly Occupied:                                                      

       1A    -20.556465     2A    -11.278893     3A    -11.240630  
       4A    -11.229512     5A     -1.367797     6A     -1.065075  
       7A     -0.934643     8A     -0.772608     9A     -0.694391  
      10A     -0.654761    11A     -0.633873    12A     -0.569307  
      13A     -0.547758    14A     -0.490738    15A     -0.448093  
      16A     -0.371459  

    Virtual:                                                              

      17A      0.177293    18A      0.229781    19A      0.254001  
      20A      0.293898    21A      0.331513    22A      0.337940  
      23A      0.356963    24A      0.395514    25A      0.464811  
      26A      0.564676    27A      0.729638    28A      0.761863  
      29A      0.772314    30A      0.819220    31A      0.854997  
      32A      0.897567    33A      0.905728    34A      0.917677  
      35A      1.011799    36A      1.071725    37A      1.123034  
      38A      1.151500    39A      1.166667    40A      1.199282  
      41A      1.227760    42A      1.265700    43A      1.343180  
      44A      1.351106    45A      1.413529    46A      1.473317  
      47A      1.516038    48A      1.662146    49A      1.759285  
      50A      1.825834    51A      1.951578    52A      1.981921  
      53A      2.027534    54A      2.174990    55A      2.267661  
      56A      2.272324    57A      2.360859    58A      2.487744  
      59A      2.520654    60A      2.532769    61A      2.684070  
      62A      2.739673    63A      2.790901    64A      2.824618  
      65A      2.877983    66A      3.082839    67A      3.228100  
      68A      3.321432    69A      4.212551    70A      4.532692  
      71A      4.635136    72A      4.854224  

    Final Occupation by Irrep:
              A 
    DOCC [    16 ]

  Energy converged.

  @DF-RHF Final Energy:  -191.91125938725128

   => Energetics <=

    Nuclear Repulsion Energy =            119.7583605680783450
    One-Electron Energy =                -497.6271185925942291
    Two-Electron Energy =                 185.9574986372646208
    DFT Exchange-Correlation Energy =       0.0000000000000000
    Empirical Dispersion Energy =           0.0000000000000000
    PCM Polarization Energy =               0.0000000000000000
    EFP Energy =                            0.0000000000000000
    Total Energy =                       -191.9112593872512775

    Alert: EFP and PCM quantities not currently incorporated into SCF psivars.

Properties will be evaluated at   0.000000,   0.000000,   0.000000 Bohr
  ==> Properties <==


Properties computed using the SCF density matrix

  Nuclear Dipole Moment: (a.u.)
     X:    -0.9294      Y:     1.2260      Z:     1.4630

  Electronic Dipole Moment: (a.u.)
     X:     0.5202      Y:    -0.8772      Z:    -0.9608

  Dipole Moment: (a.u.)
     X:    -0.4093      Y:     0.3488      Z:     0.5022     Total:     0.7358

  Dipole Moment: (Debye)
     X:    -1.0402      Y:     0.8866      Z:     1.2765     Total:     1.8702


  Saving occupied orbitals to File 180.

*** tstop() called on cx1-3-5-2.cx1.hpc.ic.ac.uk at Tue Jul  5 16:28:16 2016
Module time:
	user time   =       2.31 seconds =       0.04 minutes
	system time =       0.03 seconds =       0.00 minutes
	total time  =          3 seconds =       0.05 minutes
Total time:
	user time   =       2.31 seconds =       0.04 minutes
	system time =       0.03 seconds =       0.00 minutes
	total time  =          3 seconds =       0.05 minutes


Properties will be evaluated at   0.000000,   0.000000,   0.000000 Bohr

Properties computed using the  density matrix

  Nuclear Dipole Moment: (a.u.)
     X:    -0.9294      Y:     1.2260      Z:     1.4630

  Electronic Dipole Moment: (a.u.)
     X:     0.5202      Y:    -0.8772      Z:    -0.9608

  Dipole Moment: (a.u.)
     X:    -0.4093      Y:     0.3488      Z:     0.5022     Total:     0.7358

  Dipole Moment: (Debye)
     X:    -1.0402      Y:     0.8866      Z:     1.2765     Total:     1.8702

  Quadrupole Moment: (Debye Ang)
    XX:   -27.1401     YY:   -23.3998     ZZ:   -25.3152
    XY:     0.0299     XZ:     1.4763     YZ:    -3.3112

  Traceless Quadrupole Moment: (Debye Ang)
    XX:    -1.8551     YY:     1.8852     ZZ:    -0.0302
    XY:     0.0299     XZ:     1.4763     YZ:    -3.3112

  Mulliken Charges: (a.u.)
   Center  Symbol    Alpha    Beta     Spin     Total
       1     H     0.27521  0.27521  0.00000  0.44958
       2     O     4.37331  4.37331  0.00000 -0.74662
       3     C     2.99535  2.99535  0.00000  0.00930
       4     C     3.08542  3.08542  0.00000 -0.17085
       5     H     0.42080  0.42080  0.00000  0.15841
       6     H     0.41263  0.41263  0.00000  0.17473
       7     C     3.20518  3.20518  0.00000 -0.41036
       8     H     0.40599  0.40599  0.00000  0.18803
       9     H     0.42088  0.42088  0.00000  0.15825
      10     H     0.40524  0.40524  0.00000  0.18953

   Total alpha = 16.00000, Total beta = 16.00000, Total charge = -0.00000


*** PSI4 exiting successfully. Buy a developer a beer!
