    -----------------------------------------------------------------------
          Psi4: An Open-Source Ab Initio Electronic Structure Package
                              Psi4 (no tag) Driver

                          Git: Rev {detached?}  

    J. M. Turney, A. C. Simmonett, R. M. Parrish, E. G. Hohenstein,
    F. A. Evangelista, J. T. Fermann, B. J. Mintz, L. A. Burns, J. J. Wilke,
    M. L. Abrams, N. J. Russ, M. L. Leininger, C. L. Janssen, E. T. Seidl,
    W. D. Allen, H. F. Schaefer, R. A. King, E. F. Valeev, C. D. Sherrill,
    and T. D. Crawford, WIREs Comput. Mol. Sci. 2, 556-565 (2012)
    (doi: 10.1002/wcms.93)

                         Additional Contributions by
    A. E. DePrince, M. Saitow, U. Bozkaya, A. Yu. Sokolov
    -----------------------------------------------------------------------


    Psi4 started on: Tue Jul  5 16:52:22 2016

    Process ID:   5051
    PSI4DATADIR: /export131/home/mjharvey/miniconda3/share
    Memory level set to 256.000 MB

  ==> Input File <==

--------------------------------------------------------------------------
set {
	reference rhf
	basis 6-31G*
}


set_num_threads( 1 )
memory 2 gb

molecule MOL {
0 1

O	 -0.488453	 0.057968	 1.132425
C	 -0.451170	 -1.129930	 1.097049
C	 0.801727	 -1.959116	 0.945507
O	 -1.528589	 -1.897310	 1.185968
C	 1.124911	 -2.785238	 2.184071
H	 1.613075	 -1.280220	 0.700432
H	 0.669725	 -2.590969	 0.072237
H	 1.272053	 -2.149836	 3.048928
H	 2.030738	 -3.360307	 2.024106
H	 0.320287	 -3.472711	 2.414906
C	 -1.371458	 -3.186911	 1.768754
C	 -0.545067	 -4.019747	 0.811794
H	 -2.348361	 -3.620190	 1.934627
H	 -0.886363	 -3.082864	 2.729716
H	 -1.041883	 -4.109907	 -0.147479
H	 -0.400480	 -5.015346	 1.218641
H	 0.428178	 -3.569752	 0.651936

	symmetry c1
}
set optking {
	frozen_dihedral = ("
		2 4 11 13,
		4 2 3 6
	")
}

ee = energy('scf')
oeprop('DIPOLE', 'QUADRUPOLE', 'MULLIKEN_CHARGES')
f=open( 'psi4out.xyz', 'w' )
f.write( "17  " )
f.write( str(ee) + "\n" )
f.write( MOL.save_string_xyz() )
f.close()
--------------------------------------------------------------------------

  Memory set to   2.000 GiB by Python script.

*** tstart() called on cx1-3-16-4.cx1.hpc.ic.ac.uk
*** at Tue Jul  5 16:52:22 2016


         ---------------------------------------------------------
                                   SCF
            by Justin Turney, Rob Parrish, and Andy Simmonett
                              RHF Reference
                        1 Threads,   2000 MiB Core
         ---------------------------------------------------------

  ==> Geometry <==

    Molecular point group: c1
    Full point group: C1

    Geometry (in Angstrom), charge = 0, multiplicity = 1:

       Center              X                  Y                   Z               Mass       
    ------------   -----------------  -----------------  -----------------  -----------------
           O         -0.136872330576     2.202574804818    -0.175831901927    15.994914619560
           C         -0.099589330576     1.014676804818    -0.211207901927    12.000000000000
           C          1.153307669424     0.185490804818    -0.362749901927    12.000000000000
           O         -1.177008330576     0.247296804818    -0.122288901927    15.994914619560
           C          1.476491669424    -0.640631195182     0.875814098073    12.000000000000
           H          1.964655669424     0.864386804818    -0.607824901927     1.007825032070
           H          1.021305669424    -0.446362195182    -1.236019901927     1.007825032070
           H          1.623633669424    -0.005229195182     1.740671098073     1.007825032070
           H          2.382318669424    -1.215700195182     0.715849098073     1.007825032070
           H          0.671867669424    -1.328104195182     1.106649098073     1.007825032070
           C         -1.019877330576    -1.042304195182     0.460497098073    12.000000000000
           C         -0.193486330576    -1.875140195182    -0.496462901927    12.000000000000
           H         -1.996780330576    -1.475583195182     0.626370098073     1.007825032070
           H         -0.534782330576    -0.938257195182     1.421459098073     1.007825032070
           H         -0.690302330576    -1.965300195182    -1.455735901927     1.007825032070
           H         -0.048899330576    -2.870739195182    -0.089615901927     1.007825032070
           H          0.779758669424    -1.425145195182    -0.656320901927     1.007825032070

  Running in c1 symmetry.

  Rotational constants: A =      0.13480  B =      0.08391  C =      0.06191 [cm^-1]
  Rotational constants: A =   4041.14724  B =   2515.53622  C =   1855.94688 [MHz]
  Nuclear repulsion =  341.289714248696782

  Charge       = 0
  Multiplicity = 1
  Electrons    = 56
  Nalpha       = 28
  Nbeta        = 28

  ==> Algorithm <==

  SCF Algorithm Type is DF.
  DIIS enabled.
  MOM disabled.
  Fractional occupation disabled.
  Guess Type is CORE.
  Energy threshold   = 1.00e-06
  Density threshold  = 1.00e-06
  Integral threshold = 0.00e+00

  ==> Primary Basis <==

  Basis Set: 6-31G*
    Number of shells: 62
    Number of basis function: 125
    Number of Cartesian functions: 125
    Spherical Harmonics?: false
    Max angular momentum: 2

  ==> Pre-Iterations <==

   -------------------------------------------------------
    Irrep   Nso     Nmo     Nalpha   Nbeta   Ndocc  Nsocc
   -------------------------------------------------------
     A        125     125       0       0       0       0
   -------------------------------------------------------
    Total     125     125      28      28      28       0
   -------------------------------------------------------

 OEINTS: Overlap, kinetic, potential, dipole, and quadrupole integrals
         stored in file 35.

  ==> Integral Setup <==

  ==> DFJK: Density-Fitted J/K Matrices <==

    J tasked:                  Yes
    K tasked:                  Yes
    wK tasked:                  No
    OpenMP threads:              1
    Integrals threads:           1
    Memory (MB):              1430
    Algorithm:                Core
    Integral Cache:           NONE
    Schwarz Cutoff:          1E-12
    Fitting Condition:       1E-12

   => Auxiliary Basis Set <=

  Basis Set: 
    Number of shells: 258
    Number of basis function: 817
    Number of Cartesian functions: 817
    Spherical Harmonics?: false
    Max angular momentum: 3

  Minimum eigenvalue in the overlap matrix is 3.1851762953E-03.
  Using Symmetric Orthogonalization.
  SCF Guess: Core (One-Electron) Hamiltonian.

  ==> Iterations <==

                           Total Energy        Delta E     RMS |[F,P]|

   @DF-RHF iter   1:  -269.86106615928361   -2.69861e+02   7.17144e-02 
   @DF-RHF iter   2:  -228.29837008544700    4.15627e+01   6.51883e-02 DIIS
   @DF-RHF iter   3:  -301.97379783751921   -7.36754e+01   5.09631e-02 DIIS
   @DF-RHF iter   4:  -342.65442287703866   -4.06806e+01   1.60626e-02 DIIS
   @DF-RHF iter   5:  -344.41688375329431   -1.76246e+00   7.09682e-03 DIIS
   @DF-RHF iter   6:  -344.70770992144855   -2.90826e-01   2.07779e-03 DIIS
   @DF-RHF iter   7:  -344.73601214253597   -2.83022e-02   7.70082e-04 DIIS
   @DF-RHF iter   8:  -344.74066801521553   -4.65587e-03   2.68093e-04 DIIS
   @DF-RHF iter   9:  -344.74145500141367   -7.86986e-04   6.84578e-05 DIIS
   @DF-RHF iter  10:  -344.74152165322357   -6.66518e-05   2.13895e-05 DIIS
   @DF-RHF iter  11:  -344.74152872266825   -7.06944e-06   8.66285e-06 DIIS
   @DF-RHF iter  12:  -344.74153066619033   -1.94352e-06   4.21892e-06 DIIS
   @DF-RHF iter  13:  -344.74153125439364   -5.88203e-07   1.75373e-06 DIIS
   @DF-RHF iter  14:  -344.74153137848953   -1.24096e-07   6.05071e-07 DIIS

  ==> Post-Iterations <==

    Orbital Energies (a.u.)
    -----------------------

    Doubly Occupied:                                                      

       1A    -20.599856     2A    -20.548370     3A    -11.377173  
       4A    -11.299224     5A    -11.240757     6A    -11.228604  
       7A    -11.213753     8A     -1.468298     9A     -1.370372  
      10A     -1.120280    11A     -1.043931    12A     -0.929308  
      13A     -0.882903    14A     -0.806870    15A     -0.733494  
      16A     -0.699800    17A     -0.657519    18A     -0.650274  
      19A     -0.620292    20A     -0.586408    21A     -0.577233  
      22A     -0.571424    23A     -0.522941    24A     -0.509142  
      25A     -0.490144    26A     -0.455299    27A     -0.450711  
      28A     -0.426564  

    Virtual:                                                              

      29A      0.173738    30A      0.249396    31A      0.254339  
      32A      0.261629    33A      0.270193    34A      0.283868  
      35A      0.302075    36A      0.314521    37A      0.323477  
      38A      0.337834    39A      0.366544    40A      0.394045  
      41A      0.402696    42A      0.425025    43A      0.479345  
      44A      0.507419    45A      0.590159    46A      0.699421  
      47A      0.708926    48A      0.759183    49A      0.765509  
      50A      0.789903    51A      0.825418    52A      0.850274  
      53A      0.859858    54A      0.905612    55A      0.932809  
      56A      0.942819    57A      0.960731    58A      1.011487  
      59A      1.032139    60A      1.074748    61A      1.088024  
      62A      1.105851    63A      1.127942    64A      1.151055  
      65A      1.155887    66A      1.183837    67A      1.188809  
      68A      1.206768    69A      1.223192    70A      1.231089  
      71A      1.259359    72A      1.303949    73A      1.307897  
      74A      1.329447    75A      1.367960    76A      1.409385  
      77A      1.457815    78A      1.587312    79A      1.623089  
      80A      1.651412    81A      1.691921    82A      1.745677  
      83A      1.753631    84A      1.845239    85A      1.903688  
      86A      1.968811    87A      1.978920    88A      2.045986  
      89A      2.069267    90A      2.113663    91A      2.152725  
      92A      2.159693    93A      2.180360    94A      2.233385  
      95A      2.239289    96A      2.308415    97A      2.334286  
      98A      2.365426    99A      2.394417   100A      2.444526  
     101A      2.496225   102A      2.586011   103A      2.622665  
     104A      2.637008   105A      2.681549   106A      2.690545  
     107A      2.729261   108A      2.745417   109A      2.806897  
     110A      2.864958   111A      2.941355   112A      2.998494  
     113A      3.065274   114A      3.103534   115A      3.190817  
     116A      3.281315   117A      3.411835   118A      3.555159  
     119A      4.426124   120A      4.619203   121A      4.680028  
     122A      4.732617   123A      4.834022   124A      4.912674  
     125A      5.021592  

    Final Occupation by Irrep:
              A 
    DOCC [    28 ]

  Energy converged.

  @DF-RHF Final Energy:  -344.74153137848953

   => Energetics <=

    Nuclear Repulsion Energy =            341.2897142486967823
    One-Electron Energy =               -1145.9005215411034442
    Two-Electron Energy =                 459.8692759139183863
    DFT Exchange-Correlation Energy =       0.0000000000000000
    Empirical Dispersion Energy =           0.0000000000000000
    PCM Polarization Energy =               0.0000000000000000
    EFP Energy =                            0.0000000000000000
    Total Energy =                       -344.7415313784882755

    Alert: EFP and PCM quantities not currently incorporated into SCF psivars.

Properties will be evaluated at   0.000000,   0.000000,   0.000000 Bohr
  ==> Properties <==


Properties computed using the SCF density matrix

  Nuclear Dipole Moment: (a.u.)
     X:     4.8430      Y:   -10.1186      Z:     1.4662

  Electronic Dipole Moment: (a.u.)
     X:    -4.2610      Y:     8.3653      Z:    -1.2247

  Dipole Moment: (a.u.)
     X:     0.5820      Y:    -1.7532      Z:     0.2414     Total:     1.8630

  Dipole Moment: (Debye)
     X:     1.4793      Y:    -4.4563      Z:     0.6136     Total:     4.7353


  Saving occupied orbitals to File 180.

*** tstop() called on cx1-3-16-4.cx1.hpc.ic.ac.uk at Tue Jul  5 16:52:33 2016
Module time:
	user time   =      10.77 seconds =       0.18 minutes
	system time =       0.09 seconds =       0.00 minutes
	total time  =         11 seconds =       0.18 minutes
Total time:
	user time   =      10.77 seconds =       0.18 minutes
	system time =       0.09 seconds =       0.00 minutes
	total time  =         11 seconds =       0.18 minutes


Properties will be evaluated at   0.000000,   0.000000,   0.000000 Bohr

Properties computed using the  density matrix

  Nuclear Dipole Moment: (a.u.)
     X:     4.8430      Y:   -10.1186      Z:     1.4662

  Electronic Dipole Moment: (a.u.)
     X:    -4.2610      Y:     8.3653      Z:    -1.2247

  Dipole Moment: (a.u.)
     X:     0.5820      Y:    -1.7532      Z:     0.2414     Total:     1.8630

  Dipole Moment: (Debye)
     X:     1.4793      Y:    -4.4563      Z:     0.6136     Total:     4.7353

  Quadrupole Moment: (Debye Ang)
    XX:   -44.0599     YY:   -51.6606     ZZ:   -41.4808
    XY:     2.4904     XZ:    -1.3886     YZ:    -0.2440

  Traceless Quadrupole Moment: (Debye Ang)
    XX:     1.6739     YY:    -5.9268     ZZ:     4.2530
    XY:     2.4904     XZ:    -1.3886     YZ:    -0.2440

  Mulliken Charges: (a.u.)
   Center  Symbol    Alpha    Beta     Spin     Total
       1     O     4.26774  4.26774  0.00000 -0.53547
       2     C     2.58991  2.58991  0.00000  0.82018
       3     C     3.27633  3.27633  0.00000 -0.55265
       4     O     4.30220  4.30220  0.00000 -0.60440
       5     C     3.27136  3.27136  0.00000 -0.54272
       6     H     0.38913  0.38913  0.00000  0.22175
       7     H     0.37844  0.37844  0.00000  0.24311
       8     H     0.40231  0.40231  0.00000  0.19539
       9     H     0.40574  0.40574  0.00000  0.18851
      10     H     0.39816  0.39816  0.00000  0.20368
      11     C     3.03862  3.03862  0.00000 -0.07724
      12     C     3.28332  3.28332  0.00000 -0.56663
      13     H     0.39527  0.39527  0.00000  0.20946
      14     H     0.39398  0.39398  0.00000  0.21204
      15     H     0.40460  0.40460  0.00000  0.19080
      16     H     0.41560  0.41560  0.00000  0.16879
      17     H     0.38730  0.38730  0.00000  0.22541

   Total alpha = 28.00000, Total beta = 28.00000, Total charge = -0.00000


*** PSI4 exiting successfully. Buy a developer a beer!
