
    -----------------------------------------------------------------------
          Psi4: An Open-Source Ab Initio Electronic Structure Package
                               Psi4 1.1 release

                         Git: Rev {HEAD} add49b9 


    R. M. Parrish, L. A. Burns, D. G. A. Smith, A. C. Simmonett,
    A. E. DePrince III, E. G. Hohenstein, U. Bozkaya, A. Yu. Sokolov,
    R. Di Remigio, R. M. Richard, J. F. Gonthier, A. M. James,
    H. R. McAlexander, A. Kumar, M. Saitow, X. Wang, B. P. Pritchard,
    P. Verma, H. F. Schaefer III, K. Patkowski, R. A. King, E. F. Valeev,
    F. A. Evangelista, J. M. Turney, T. D. Crawford, and C. D. Sherrill,
    J. Chem. Theory Comput. in press (2017).
    (doi: 10.1021/acs.jctc.7b00174)

    -----------------------------------------------------------------------


    Psi4 started on: Friday, 15 September 2017 12:28PM

    Process ID:  11728
    PSIDATADIR: /home/raimis/opt/miniconda3/envs/htmd/share/psi4
    Memory:     500.0 MiB
    Threads:    1
    
  ==> Input File <==

--------------------------------------------------------------------------
set_num_threads( 8 )
memory 2.000000 gb

set { reference rks }
set { basis cc-pVDZ }

molecule MOL {
    0 1
    noreorient
    nocom
    symmetry c1
    O    1.050400   0.042900  -0.048100
    C    2.474100   0.047400  -0.029000
    C    3.002600  -1.068900  -0.932000
    N    3.818483  -2.033305  -0.195959
    H    0.760400   0.728400   0.578000
    H    2.809900  -0.097900   1.003200
    H    2.817400   1.026800  -0.378600
    H    3.589250  -0.637286  -1.751323
    H    2.157533  -1.586803  -1.399648
    H    4.665883  -1.574240   0.136688
    H    4.129625  -2.759597  -0.840894
}

set optking { frozen_dihedral = (" 1 2 3 4 ") }

energy, wfn = energy('B3LYP-D3', return_wfn=True)

import os
os.chdir(os.environ['HTMD_PSI4_WORKDIR'])

oeprop(wfn, 'DIPOLE', 'QUADRUPOLE', 'MULLIKEN_CHARGES')

with open('psi4out.xyz', 'w') as f:
    f.write('11 ' )
    f.write('%.12f\n' % energy)
    f.write(MOL.save_string_xyz())
--------------------------------------------------------------------------
  Threads set to 8 by Python driver.

  Memory set to   1.863 GiB by Python driver.

*** tstart() called on computer03
*** at Fri Sep 15 12:28:35 2017

   => Loading Basis Set <=

    Name: CC-PVDZ
    Role: ORBITAL
    Keyword: BASIS
    atoms 1    entry O          line   190 file /home/raimis/opt/miniconda3/envs/htmd/share/psi4/basis/cc-pvdz.gbs 
    atoms 2-3  entry C          line   130 file /home/raimis/opt/miniconda3/envs/htmd/share/psi4/basis/cc-pvdz.gbs 
    atoms 4    entry N          line   160 file /home/raimis/opt/miniconda3/envs/htmd/share/psi4/basis/cc-pvdz.gbs 
    atoms 5-11 entry H          line    20 file /home/raimis/opt/miniconda3/envs/htmd/share/psi4/basis/cc-pvdz.gbs 


         ---------------------------------------------------------
                                   SCF
            by Justin Turney, Rob Parrish, and Andy Simmonett
                              RKS Reference
                        8 Threads,   1907 MiB Core
         ---------------------------------------------------------

  ==> Geometry <==

    Molecular point group: c1
    Full point group: C1

    Geometry (in Angstrom), charge = 0, multiplicity = 1:

       Center              X                  Y                   Z               Mass       
    ------------   -----------------  -----------------  -----------------  -----------------
           O          1.050400000000     0.042900000000    -0.048100000000    15.994914619560
           C          2.474100000000     0.047400000000    -0.029000000000    12.000000000000
           C          3.002600000000    -1.068900000000    -0.932000000000    12.000000000000
           N          3.818483000000    -2.033305000000    -0.195959000000    14.003074004780
           H          0.760400000000     0.728400000000     0.578000000000     1.007825032070
           H          2.809900000000    -0.097900000000     1.003200000000     1.007825032070
           H          2.817400000000     1.026800000000    -0.378600000000     1.007825032070
           H          3.589250000000    -0.637286000000    -1.751323000000     1.007825032070
           H          2.157533000000    -1.586803000000    -1.399648000000     1.007825032070
           H          4.665883000000    -1.574240000000     0.136688000000     1.007825032070
           H          4.129625000000    -2.759597000000    -0.840894000000     1.007825032070

  Running in c1 symmetry.

  Rotational constants: A =      0.46309  B =      0.03031  C =      0.02955 [cm^-1]
  Rotational constants: A =  13883.07776  B =    908.69095  C =    885.96569 [MHz]
  Nuclear repulsion =  130.982617970469221

  Charge       = 0
  Multiplicity = 1
  Electrons    = 34
  Nalpha       = 17
  Nbeta        = 17

  ==> Algorithm <==

  SCF Algorithm Type is DF.
  DIIS enabled.
  MOM disabled.
  Fractional occupation disabled.
  Guess Type is SAD.
  Energy threshold   = 1.00e-06
  Density threshold  = 1.00e-06
  Integral threshold = 0.00e+00

  ==> Primary Basis <==

  Basis Set: CC-PVDZ
    Blend: CC-PVDZ
    Number of shells: 45
    Number of basis function: 91
    Number of Cartesian functions: 95
    Spherical Harmonics?: true
    Max angular momentum: 2

  ==> DFT Potential <==

   => B3LYP Composite Functional <= 

    B3LYP Hybrid-GGA Exchange-Correlation Functional (VWN1-RPA)

    P.J. Stephens et. al., J. Phys. Chem., 98, 11623-11627, 1994

    Points   =           5000
    Deriv    =              1
    GGA      =           TRUE
    Meta     =          FALSE

    X_LRC        =          FALSE
    X_Hybrid     =           TRUE
    X_Alpha      =   2.000000E-01
    X_Omega      =   0.000000E+00
    C_LRC        =          FALSE
    C_Hybrid     =          FALSE
    C_Alpha      =   0.000000E+00
    C_Omega      =   0.000000E+00

   => Exchange Functionals <=

    0.8000    B3_X
    0.2000      HF 

   => Correlation Functionals <=

    0.1900 VWN3RPA_C
    0.8100   LYP_C

   => Molecular Quadrature <=

    Radial Scheme    =       TREUTLER
    Pruning Scheme   =           FLAT
    Nuclear Scheme   =       TREUTLER

    BS radius alpha  =              1
    Pruning alpha    =              1
    Radial Points    =             75
    Spherical Points =            302
    Total Points     =         245074
    Total Blocks     =            220
    Max Points       =           4999
    Max Functions    =             91

   => -D3ZERO: Empirical Dispersion <=

    Grimme's -D3 (zero-damping) Dispersion Correction
    Grimme S.; Antony J.; Ehrlich S.; Krieg H. (2010), J. Chem. Phys., 132: 154104

        S6 =   1.000000E+00
        S8 =   1.703000E+00
       SR6 =   1.261000E+00
    ALPHA6 =   1.400000E+01

   => Loading Basis Set <=

    Name: (CC-PVDZ AUX)
    Role: JKFIT
    Keyword: DF_BASIS_SCF
    atoms 1    entry O          line   220 file /home/raimis/opt/miniconda3/envs/htmd/share/psi4/basis/cc-pvdz-jkfit.gbs 
    atoms 2-3  entry C          line   120 file /home/raimis/opt/miniconda3/envs/htmd/share/psi4/basis/cc-pvdz-jkfit.gbs 
    atoms 4    entry N          line   170 file /home/raimis/opt/miniconda3/envs/htmd/share/psi4/basis/cc-pvdz-jkfit.gbs 
    atoms 5-11 entry H          line    50 file /home/raimis/opt/miniconda3/envs/htmd/share/psi4/basis/cc-pvdz-jkfit.gbs 

  ==> Pre-Iterations <==

   -------------------------------------------------------
    Irrep   Nso     Nmo     Nalpha   Nbeta   Ndocc  Nsocc
   -------------------------------------------------------
     A         91      91       0       0       0       0
   -------------------------------------------------------
    Total      91      91      17      17      17       0
   -------------------------------------------------------

  ==> Integral Setup <==

  ==> DFJK: Density-Fitted J/K Matrices <==

    J tasked:                  Yes
    K tasked:                  Yes
    wK tasked:                  No
    OpenMP threads:              8
    Integrals threads:           8
    Memory (MB):              1430
    Algorithm:                Core
    Integral Cache:           NONE
    Schwarz Cutoff:          1E-12
    Fitting Condition:       1E-12

   => Auxiliary Basis Set <=

  Basis Set: (CC-PVDZ AUX)
    Blend: CC-PVDZ-JKFIT
    Number of shells: 159
    Number of basis function: 441
    Number of Cartesian functions: 499
    Spherical Harmonics?: true
    Max angular momentum: 3

  Minimum eigenvalue in the overlap matrix is 4.5389962515E-03.
  Using Symmetric Orthogonalization.

  SCF Guess: Superposition of Atomic Densities via on-the-fly atomic UHF.

  ==> Iterations <==

                           Total Energy        Delta E     RMS |[F,P]|

   @DF-RKS iter   0:  -210.89520704531233   -2.10895e+02   5.37965e-02 
   @DF-RKS iter   1:  -210.23492220846452    6.60285e-01   1.13674e-02 
   @DF-RKS iter   2:  -210.08999285719688    1.44929e-01   1.53376e-02 DIIS
   @DF-RKS iter   3:  -210.38457729749334   -2.94584e-01   8.34374e-04 DIIS
   @DF-RKS iter   4:  -210.38541045271486   -8.33155e-04   7.18593e-04 DIIS
   @DF-RKS iter   5:  -210.38588788169298   -4.77429e-04   9.02347e-05 DIIS
   @DF-RKS iter   6:  -210.38589458410493   -6.70241e-06   3.61620e-05 DIIS
   @DF-RKS iter   7:  -210.38589574729991   -1.16319e-06   5.50406e-06 DIIS
   @DF-RKS iter   8:  -210.38589578878035   -4.14804e-08   1.22400e-06 DIIS
   @DF-RKS iter   9:  -210.38589579028366   -1.50331e-09   3.27982e-07 DIIS

  ==> Post-Iterations <==

    Orbital Energies (a.u.)
    -----------------------

    Doubly Occupied:                                                      

       1A    -19.124302     2A    -14.303070     3A    -10.222269  
       4A    -10.200831     5A     -1.007172     6A     -0.875564  
       7A     -0.712526     8A     -0.596794     9A     -0.507604  
      10A     -0.477020    11A     -0.466572    12A     -0.396527  
      13A     -0.389423    14A     -0.370828    15A     -0.322643  
      16A     -0.257179    17A     -0.229438  

    Virtual:                                                              

      18A      0.055520    19A      0.058006    20A      0.107242  
      21A      0.110291    22A      0.131526    23A      0.144295  
      24A      0.154073    25A      0.220216    26A      0.236222  
      27A      0.261371    28A      0.459110    29A      0.476130  
      30A      0.485116    31A      0.518560    32A      0.529012  
      33A      0.568679    34A      0.613475    35A      0.619011  
      36A      0.637819    37A      0.655455    38A      0.664515  
      39A      0.684884    40A      0.711341    41A      0.788866  
      42A      0.795520    43A      0.840984    44A      0.893920  
      45A      0.961495    46A      0.995280    47A      1.010292  
      48A      1.056012    49A      1.192193    50A      1.223468  
      51A      1.231446    52A      1.283831    53A      1.337761  
      54A      1.383396    55A      1.417513    56A      1.497643  
      57A      1.535090    58A      1.564920    59A      1.586382  
      60A      1.609979    61A      1.627731    62A      1.647779  
      63A      1.706176    64A      1.743015    65A      1.774034  
      66A      1.801830    67A      1.854684    68A      1.910650  
      69A      1.930218    70A      1.965789    71A      1.973139  
      72A      2.010128    73A      2.049667    74A      2.135986  
      75A      2.148142    76A      2.177111    77A      2.283491  
      78A      2.378930    79A      2.386185    80A      2.448050  
      81A      2.455575    82A      2.523857    83A      2.624310  
      84A      2.678937    85A      2.815614    86A      2.964927  
      87A      3.012703    88A      3.056074    89A      3.100062  
      90A      3.191597    91A      3.691332  

    Final Occupation by Irrep:
              A 
    DOCC [    17 ]

  Energy converged.

  @DF-RKS Final Energy:  -210.38589579028366

   => Energetics <=

    Nuclear Repulsion Energy =            130.9826179704692208
    One-Electron Energy =                -544.9338596863155999
    Two-Electron Energy =                 227.0595586679441169
    DFT Exchange-Correlation Energy =     -23.4895151023814108
    Empirical Dispersion Energy =          -0.0046976400000000
    PCM Polarization Energy =               0.0000000000000000
    EFP Energy =                            0.0000000000000000
    Total Energy =                       -210.3858957902836551



Properties will be evaluated at   0.000000,   0.000000,   0.000000 Bohr

Properties computed using the SCF density matrix

  Nuclear Dipole Moment: (a.u.)
     X:   168.0397      Y:   -47.0911      Z:   -19.2281

  Electronic Dipole Moment: (a.u.)
     X:  -167.4317      Y:    47.5747      Z:    19.2057

  Dipole Moment: (a.u.)
     X:     0.6080      Y:     0.4836      Z:    -0.0224     Total:     0.7772

  Dipole Moment: (Debye)
     X:     1.5453      Y:     1.2292      Z:    -0.0570     Total:     1.9754


*** tstop() called on computer03 at Fri Sep 15 12:28:54 2017
Module time:
	user time   =      36.83 seconds =       0.61 minutes
	system time =       0.79 seconds =       0.01 minutes
	total time  =         19 seconds =       0.32 minutes
Total time:
	user time   =      36.83 seconds =       0.61 minutes
	system time =       0.79 seconds =       0.01 minutes
	total time  =         19 seconds =       0.32 minutes


Properties will be evaluated at   0.000000,   0.000000,   0.000000 Bohr

Properties computed using the  density matrix

  Nuclear Dipole Moment: (a.u.)
     X:   168.0397      Y:   -47.0911      Z:   -19.2281

  Electronic Dipole Moment: (a.u.)
     X:  -167.4317      Y:    47.5747      Z:    19.2057

  Dipole Moment: (a.u.)
     X:     0.6080      Y:     0.4836      Z:    -0.0224     Total:     0.7772

  Dipole Moment: (Debye)
     X:     1.5453      Y:     1.2292      Z:    -0.0570     Total:     1.9754

  Quadrupole Moment: (Debye Ang)
    XX:   -15.7628     YY:   -25.4124     ZZ:   -24.7308
    XY:    -0.3259     XZ:    -2.8537     YZ:     3.8978

  Traceless Quadrupole Moment: (Debye Ang)
    XX:     6.2059     YY:    -3.4437     ZZ:    -2.7621
    XY:    -0.3259     XZ:    -2.8537     YZ:     3.8978

  Mulliken Charges: (a.u.)
   Center  Symbol    Alpha    Beta     Spin     Total
       1     O     4.14009  4.14009  0.00000 -0.28017
       2     C     2.92473  2.92473  0.00000  0.15054
       3     C     2.98182  2.98182  0.00000  0.03636
       4     N     3.59155  3.59155  0.00000 -0.18309
       5     H     0.43200  0.43200  0.00000  0.13600
       6     H     0.50169  0.50169  0.00000 -0.00337
       7     H     0.50460  0.50460  0.00000 -0.00920
       8     H     0.50575  0.50575  0.00000 -0.01149
       9     H     0.48549  0.48549  0.00000  0.02902
      10     H     0.46665  0.46665  0.00000  0.06670
      11     H     0.46565  0.46565  0.00000  0.06870

   Total alpha = 17.00000, Total beta = 17.00000, Total charge =  0.00000


*** Psi4 exiting successfully. Buy a developer a beer!
