    -----------------------------------------------------------------------
          Psi4: An Open-Source Ab Initio Electronic Structure Package
                              Psi4 (no tag) Driver

                          Git: Rev {detached?}  

    J. M. Turney, A. C. Simmonett, R. M. Parrish, E. G. Hohenstein,
    F. A. Evangelista, J. T. Fermann, B. J. Mintz, L. A. Burns, J. J. Wilke,
    M. L. Abrams, N. J. Russ, M. L. Leininger, C. L. Janssen, E. T. Seidl,
    W. D. Allen, H. F. Schaefer, R. A. King, E. F. Valeev, C. D. Sherrill,
    and T. D. Crawford, WIREs Comput. Mol. Sci. 2, 556-565 (2012)
    (doi: 10.1002/wcms.93)

                         Additional Contributions by
    A. E. DePrince, M. Saitow, U. Bozkaya, A. Yu. Sokolov
    -----------------------------------------------------------------------


    Psi4 started on: Tue Jul  5 16:29:44 2016

    Process ID:  30530
    PSI4DATADIR: /export131/home/mjharvey/miniconda3/share
    Memory level set to 256.000 MB

  ==> Input File <==

--------------------------------------------------------------------------
set {
	reference rhf
	basis 6-31G*
}


set_num_threads( 1 )
memory 2 gb

molecule MOL {
0 1

H	 2.045841	 -1.204529	 0.973481
C	 1.246433	 -0.509662	 1.173884
O	 0.464886	 -0.454746	 -0.000158
H	 1.666353	 0.461361	 1.407989
H	 0.662985	 -0.867662	 2.013816
C	 -0.590998	 0.343045	 0.000118
O	 -1.699443	 -0.054298	 0.000227
H	 -0.340329	 1.404368	 0.000207

	symmetry c1
}
ee = energy('scf')
oeprop('DIPOLE', 'QUADRUPOLE', 'MULLIKEN_CHARGES')
f=open( 'psi4out.xyz', 'w' )
f.write( "8  " )
f.write( str(ee) + "\n" )
f.write( MOL.save_string_xyz() )
f.close()
--------------------------------------------------------------------------

  Memory set to   2.000 GiB by Python script.

*** tstart() called on cx1-3-15-4.cx1.hpc.ic.ac.uk
*** at Tue Jul  5 16:29:44 2016


         ---------------------------------------------------------
                                   SCF
            by Justin Turney, Rob Parrish, and Andy Simmonett
                              RHF Reference
                        1 Threads,   2000 MiB Core
         ---------------------------------------------------------

  ==> Geometry <==

    Molecular point group: c1
    Full point group: C1

    Geometry (in Angstrom), charge = 0, multiplicity = 1:

       Center              X                  Y                   Z               Mass       
    ------------   -----------------  -----------------  -----------------  -----------------
           H          2.176044997487    -1.032096441692     0.664939396102     1.007825032070
           C          1.376636997487    -0.337229441692     0.865342396102    12.000000000000
           O          0.595089997487    -0.282313441692    -0.308699603898    15.994914619560
           H          1.796556997487     0.633793558308     1.099447396102     1.007825032070
           H          0.793188997487    -0.695229441692     1.705274396102     1.007825032070
           C         -0.460794002513     0.515477558308    -0.308423603898    12.000000000000
           O         -1.569239002513     0.118134558308    -0.308314603898    15.994914619560
           H         -0.210125002513     1.576800558308    -0.308334603898     1.007825032070

  Running in c1 symmetry.

  Rotational constants: A =      1.09578  B =      0.17057  C =      0.16750 [cm^-1]
  Rotational constants: A =  32850.66215  B =   5113.57358  C =   5021.38981 [MHz]
  Nuclear repulsion =  121.813496832322784

  Charge       = 0
  Multiplicity = 1
  Electrons    = 32
  Nalpha       = 16
  Nbeta        = 16

  ==> Algorithm <==

  SCF Algorithm Type is DF.
  DIIS enabled.
  MOM disabled.
  Fractional occupation disabled.
  Guess Type is CORE.
  Energy threshold   = 1.00e-06
  Density threshold  = 1.00e-06
  Integral threshold = 0.00e+00

  ==> Primary Basis <==

  Basis Set: 6-31G*
    Number of shells: 32
    Number of basis function: 68
    Number of Cartesian functions: 68
    Spherical Harmonics?: false
    Max angular momentum: 2

  ==> Pre-Iterations <==

   -------------------------------------------------------
    Irrep   Nso     Nmo     Nalpha   Nbeta   Ndocc  Nsocc
   -------------------------------------------------------
     A         68      68       0       0       0       0
   -------------------------------------------------------
    Total      68      68      16      16      16       0
   -------------------------------------------------------

 OEINTS: Overlap, kinetic, potential, dipole, and quadrupole integrals
         stored in file 35.

  ==> Integral Setup <==

  ==> DFJK: Density-Fitted J/K Matrices <==

    J tasked:                  Yes
    K tasked:                  Yes
    wK tasked:                  No
    OpenMP threads:              1
    Integrals threads:           1
    Memory (MB):              1430
    Algorithm:                Core
    Integral Cache:           NONE
    Schwarz Cutoff:          1E-12
    Fitting Condition:       1E-12

   => Auxiliary Basis Set <=

  Basis Set: 
    Number of shells: 132
    Number of basis function: 424
    Number of Cartesian functions: 424
    Spherical Harmonics?: false
    Max angular momentum: 3

  Minimum eigenvalue in the overlap matrix is 5.4942115131E-03.
  Using Symmetric Orthogonalization.
  SCF Guess: Core (One-Electron) Hamiltonian.

  ==> Iterations <==

                           Total Energy        Delta E     RMS |[F,P]|

   @DF-RHF iter   1:  -187.32324802071864   -1.87323e+02   9.59732e-02 
   @DF-RHF iter   2:  -146.61902058754114    4.07042e+01   8.63817e-02 DIIS
   @DF-RHF iter   3:  -210.52617001352652   -6.39071e+01   5.37009e-02 DIIS
   @DF-RHF iter   4:  -227.20778691038370   -1.66816e+01   1.65877e-02 DIIS
   @DF-RHF iter   5:  -227.64353473960463   -4.35748e-01   8.00303e-03 DIIS
   @DF-RHF iter   6:  -227.76080172588004   -1.17267e-01   1.67437e-03 DIIS
   @DF-RHF iter   7:  -227.76695211937201   -6.15039e-03   9.22128e-04 DIIS
   @DF-RHF iter   8:  -227.76884670912861   -1.89459e-03   4.28166e-04 DIIS
   @DF-RHF iter   9:  -227.76929034702701   -4.43638e-04   1.75377e-04 DIIS
   @DF-RHF iter  10:  -227.76939123525077   -1.00888e-04   4.33424e-05 DIIS
   @DF-RHF iter  11:  -227.76939789057010   -6.65532e-06   8.47146e-06 DIIS
   @DF-RHF iter  12:  -227.76939829088897   -4.00319e-07   3.22633e-06 DIIS
   @DF-RHF iter  13:  -227.76939834560133   -5.47124e-08   9.65231e-07 DIIS

  ==> Post-Iterations <==

    Orbital Energies (a.u.)
    -----------------------

    Doubly Occupied:                                                      

       1A    -20.600113     2A    -20.568830     3A    -11.381983  
       4A    -11.302520     5A     -1.474612     6A     -1.382115  
       7A     -0.991506     8A     -0.838327     9A     -0.740504  
      10A     -0.685975    11A     -0.672963    12A     -0.624443  
      13A     -0.565608    14A     -0.508908    15A     -0.472910  
      16A     -0.456238  

    Virtual:                                                              

      17A      0.169484    18A      0.243665    19A      0.278196  
      20A      0.300120    21A      0.306973    22A      0.315577  
      23A      0.446641    24A      0.524165    25A      0.691979  
      26A      0.741187    27A      0.749008    28A      0.778692  
      29A      0.839030    30A      0.971755    31A      0.992649  
      32A      1.082044    33A      1.105369    34A      1.110116  
      35A      1.117224    36A      1.193845    37A      1.209382  
      38A      1.267896    39A      1.316306    40A      1.342583  
      41A      1.408928    42A      1.538542    43A      1.622967  
      44A      1.662073    45A      1.711958    46A      1.836921  
      47A      1.889068    48A      1.987715    49A      2.076200  
      50A      2.186707    51A      2.238939    52A      2.271702  
      53A      2.370195    54A      2.419135    55A      2.493055  
      56A      2.518147    57A      2.684950    58A      2.737209  
      59A      2.874545    60A      3.011171    61A      3.181182  
      62A      3.194235    63A      3.317113    64A      3.428572  
      65A      4.255070    66A      4.345336    67A      4.595391  
      68A      4.665001  

    Final Occupation by Irrep:
              A 
    DOCC [    16 ]

  Energy converged.

  @DF-RHF Final Energy:  -227.76939834560133

   => Energetics <=

    Nuclear Repulsion Energy =            121.8134968323227838
    One-Electron Energy =                -552.6307303090673031
    Two-Electron Energy =                 203.0478351311432448
    DFT Exchange-Correlation Energy =       0.0000000000000000
    Empirical Dispersion Energy =           0.0000000000000000
    PCM Polarization Energy =               0.0000000000000000
    EFP Energy =                            0.0000000000000000
    Total Energy =                       -227.7693983456012461

    Alert: EFP and PCM quantities not currently incorporated into SCF psivars.

Properties will be evaluated at   0.000000,   0.000000,   0.000000 Bohr
  ==> Properties <==


Properties computed using the SCF density matrix

  Nuclear Dipole Moment: (a.u.)
     X:     4.2661      Y:     0.4523      Z:     2.9607

  Electronic Dipole Moment: (a.u.)
     X:    -3.0611      Y:     0.0644      Z:    -2.3072

  Dipole Moment: (a.u.)
     X:     1.2050      Y:     0.5167      Z:     0.6535     Total:     1.4649

  Dipole Moment: (Debye)
     X:     3.0628      Y:     1.3132      Z:     1.6611     Total:     3.7235


  Saving occupied orbitals to File 180.

*** tstop() called on cx1-3-15-4.cx1.hpc.ic.ac.uk at Tue Jul  5 16:29:46 2016
Module time:
	user time   =       1.76 seconds =       0.03 minutes
	system time =       0.02 seconds =       0.00 minutes
	total time  =          2 seconds =       0.03 minutes
Total time:
	user time   =       1.76 seconds =       0.03 minutes
	system time =       0.02 seconds =       0.00 minutes
	total time  =          2 seconds =       0.03 minutes


Properties will be evaluated at   0.000000,   0.000000,   0.000000 Bohr

Properties computed using the  density matrix

  Nuclear Dipole Moment: (a.u.)
     X:     4.2661      Y:     0.4523      Z:     2.9607

  Electronic Dipole Moment: (a.u.)
     X:    -3.0611      Y:     0.0644      Z:    -2.3072

  Dipole Moment: (a.u.)
     X:     1.2050      Y:     0.5167      Z:     0.6535     Total:     1.4649

  Dipole Moment: (Debye)
     X:     3.0628      Y:     1.3132      Z:     1.6611     Total:     3.7235

  Quadrupole Moment: (Debye Ang)
    XX:   -26.3993     YY:   -22.0371     ZZ:   -22.1692
    XY:    -0.7116     XZ:     1.3058     YZ:    -1.2230

  Traceless Quadrupole Moment: (Debye Ang)
    XX:    -2.8641     YY:     1.4981     ZZ:     1.3660
    XY:    -0.7116     XZ:     1.3058     YZ:    -1.2230

  Mulliken Charges: (a.u.)
   Center  Symbol    Alpha    Beta     Spin     Total
       1     H     0.39863  0.39863  0.00000  0.20273
       2     C     3.09443  3.09443  0.00000 -0.18886
       3     O     4.28774  4.28774  0.00000 -0.57548
       4     H     0.41898  0.41898  0.00000  0.16205
       5     H     0.40932  0.40932  0.00000  0.18135
       6     C     2.73665  2.73665  0.00000  0.52671
       7     O     4.22722  4.22722  0.00000 -0.45444
       8     H     0.42703  0.42703  0.00000  0.14594

   Total alpha = 16.00000, Total beta = 16.00000, Total charge = -0.00000


*** PSI4 exiting successfully. Buy a developer a beer!
