    -----------------------------------------------------------------------
          Psi4: An Open-Source Ab Initio Electronic Structure Package
                              Psi4 (no tag) Driver

                          Git: Rev {detached?}  

    J. M. Turney, A. C. Simmonett, R. M. Parrish, E. G. Hohenstein,
    F. A. Evangelista, J. T. Fermann, B. J. Mintz, L. A. Burns, J. J. Wilke,
    M. L. Abrams, N. J. Russ, M. L. Leininger, C. L. Janssen, E. T. Seidl,
    W. D. Allen, H. F. Schaefer, R. A. King, E. F. Valeev, C. D. Sherrill,
    and T. D. Crawford, WIREs Comput. Mol. Sci. 2, 556-565 (2012)
    (doi: 10.1002/wcms.93)

                         Additional Contributions by
    A. E. DePrince, M. Saitow, U. Bozkaya, A. Yu. Sokolov
    -----------------------------------------------------------------------


    Psi4 started on: Tue Jul  5 16:21:09 2016

    Process ID:  19149
    PSI4DATADIR: /export131/home/mjharvey/miniconda3/share
    Memory level set to 256.000 MB

  ==> Input File <==

--------------------------------------------------------------------------
set {
	reference rhf
	basis 6-31G*
}


set_num_threads( 1 )
memory 2 gb

molecule MOL {
0 1

H	 -1.020291	 0.811564	 -0.595770
N	 -0.712432	 0.000013	 -0.096310
C	 0.734192	 -0.000004	 0.040609
H	 -1.018030	 -0.796882	 -0.620167
H	 1.139899	 -0.873598	 -0.456463
H	 1.139939	 0.873831	 -0.456100
H	 1.096456	 -0.000300	 1.069655

	symmetry c1
}
ee = energy('scf')
oeprop('DIPOLE', 'QUADRUPOLE', 'MULLIKEN_CHARGES')
f=open( 'psi4out.xyz', 'w' )
f.write( "7  " )
f.write( str(ee) + "\n" )
f.write( MOL.save_string_xyz() )
f.close()
--------------------------------------------------------------------------

  Memory set to   2.000 GiB by Python script.

*** tstart() called on cx1-3-15-2.cx1.hpc.ic.ac.uk
*** at Tue Jul  5 16:21:10 2016


         ---------------------------------------------------------
                                   SCF
            by Justin Turney, Rob Parrish, and Andy Simmonett
                              RHF Reference
                        1 Threads,   2000 MiB Core
         ---------------------------------------------------------

  ==> Geometry <==

    Molecular point group: c1
    Full point group: C1

    Geometry (in Angstrom), charge = 0, multiplicity = 1:

       Center              X                  Y                   Z               Mass       
    ------------   -----------------  -----------------  -----------------  -----------------
           H         -1.026170372827     0.811085187184    -0.533646226384     1.007825032070
           N         -0.718311372827    -0.000465812816    -0.034186226384    14.003074004780
           C          0.728312627173    -0.000482812816     0.102732773616    12.000000000000
           H         -1.023909372827    -0.797360812816    -0.558043226384     1.007825032070
           H          1.134019627173    -0.874076812816    -0.394339226384     1.007825032070
           H          1.134059627173     0.873352187184    -0.393976226384     1.007825032070
           H          1.090576627173    -0.000778812816     1.131778773616     1.007825032070

  Running in c1 symmetry.

  Rotational constants: A =      3.53285  B =      0.77162  C =      0.74065 [cm^-1]
  Rotational constants: A = 105912.16344  B =  23132.69015  C =  22204.08193 [MHz]
  Nuclear repulsion =   42.350518108335962

  Charge       = 0
  Multiplicity = 1
  Electrons    = 18
  Nalpha       = 9
  Nbeta        = 9

  ==> Algorithm <==

  SCF Algorithm Type is DF.
  DIIS enabled.
  MOM disabled.
  Fractional occupation disabled.
  Guess Type is CORE.
  Energy threshold   = 1.00e-06
  Density threshold  = 1.00e-06
  Integral threshold = 0.00e+00

  ==> Primary Basis <==

  Basis Set: 6-31G*
    Number of shells: 22
    Number of basis function: 40
    Number of Cartesian functions: 40
    Spherical Harmonics?: false
    Max angular momentum: 2

  ==> Pre-Iterations <==

   -------------------------------------------------------
    Irrep   Nso     Nmo     Nalpha   Nbeta   Ndocc  Nsocc
   -------------------------------------------------------
     A         40      40       0       0       0       0
   -------------------------------------------------------
    Total      40      40       9       9       9       0
   -------------------------------------------------------

 OEINTS: Overlap, kinetic, potential, dipole, and quadrupole integrals
         stored in file 35.

  ==> Integral Setup <==

  ==> DFJK: Density-Fitted J/K Matrices <==

    J tasked:                  Yes
    K tasked:                  Yes
    wK tasked:                  No
    OpenMP threads:              1
    Integrals threads:           1
    Memory (MB):              1430
    Algorithm:                Core
    Integral Cache:           NONE
    Schwarz Cutoff:          1E-12
    Fitting Condition:       1E-12

   => Auxiliary Basis Set <=

  Basis Set: 
    Number of shells: 93
    Number of basis function: 287
    Number of Cartesian functions: 287
    Spherical Harmonics?: false
    Max angular momentum: 3

  Minimum eigenvalue in the overlap matrix is 8.6732644441E-03.
  Using Symmetric Orthogonalization.
  SCF Guess: Core (One-Electron) Hamiltonian.

  ==> Iterations <==

                           Total Energy        Delta E     RMS |[F,P]|

   @DF-RHF iter   1:   -79.80982981051150   -7.98098e+01   1.10402e-01 
   @DF-RHF iter   2:   -82.97160745344760   -3.16178e+00   7.34722e-02 DIIS
   @DF-RHF iter   3:   -93.88907791518182   -1.09175e+01   4.23831e-02 DIIS
   @DF-RHF iter   4:   -94.99339753292881   -1.10432e+00   1.58226e-02 DIIS
   @DF-RHF iter   5:   -95.17613702548934   -1.82739e-01   5.95122e-03 DIIS
   @DF-RHF iter   6:   -95.20411191683758   -2.79749e-02   6.01799e-04 DIIS
   @DF-RHF iter   7:   -95.20467785317749   -5.65936e-04   2.40480e-04 DIIS
   @DF-RHF iter   8:   -95.20474741091141   -6.95577e-05   3.51916e-05 DIIS
   @DF-RHF iter   9:   -95.20474938077064   -1.96986e-06   7.39776e-06 DIIS
   @DF-RHF iter  10:   -95.20474947300963   -9.22390e-08   1.62355e-06 DIIS
   @DF-RHF iter  11:   -95.20474947772129   -4.71167e-09   3.21929e-07 DIIS

  ==> Post-Iterations <==

    Orbital Energies (a.u.)
    -----------------------

    Doubly Occupied:                                                      

       1A    -15.532449     2A    -11.237659     3A     -1.170397  
       4A     -0.895636     5A     -0.666145     6A     -0.595937  
       7A     -0.565194     8A     -0.516504     9A     -0.379763  

    Virtual:                                                              

      10A      0.224712    11A      0.276254    12A      0.286757  
      13A      0.341429    14A      0.384930    15A      0.424192  
      16A      0.758360    17A      0.780484    18A      0.786208  
      19A      0.994330    20A      1.027280    21A      1.069435  
      22A      1.149899    23A      1.165566    24A      1.216828  
      25A      1.245438    26A      1.252654    27A      1.278989  
      28A      1.642883    29A      1.761486    30A      1.773331  
      31A      2.297769    32A      2.401734    33A      2.434135  
      34A      2.474596    35A      2.542822    36A      2.743962  
      37A      2.901186    38A      3.020046    39A      4.201586  
      40A      4.683664  

    Final Occupation by Irrep:
              A 
    DOCC [     9 ]

  Energy converged.

  @DF-RHF Final Energy:   -95.20474947772129

   => Energetics <=

    Nuclear Repulsion Energy =             42.3505181083359616
    One-Electron Energy =                -211.9911292657028525
    Two-Electron Energy =                  74.4358616796455408
    DFT Exchange-Correlation Energy =       0.0000000000000000
    Empirical Dispersion Energy =           0.0000000000000000
    PCM Polarization Energy =               0.0000000000000000
    EFP Energy =                            0.0000000000000000
    Total Energy =                        -95.2047494777213501

    Alert: EFP and PCM quantities not currently incorporated into SCF psivars.

Properties will be evaluated at   0.000000,   0.000000,   0.000000 Bohr
  ==> Properties <==


Properties computed using the SCF density matrix

  Nuclear Dipole Moment: (a.u.)
     X:     1.2288      Y:     0.0115      Z:    -0.7013

  Electronic Dipole Moment: (a.u.)
     X:    -1.0037      Y:    -0.0027      Z:     0.0797

  Dipole Moment: (a.u.)
     X:     0.2251      Y:     0.0088      Z:    -0.6216     Total:     0.6612

  Dipole Moment: (Debye)
     X:     0.5722      Y:     0.0224      Z:    -1.5799     Total:     1.6805


  Saving occupied orbitals to File 180.

*** tstop() called on cx1-3-15-2.cx1.hpc.ic.ac.uk at Tue Jul  5 16:21:11 2016
Module time:
	user time   =       0.94 seconds =       0.02 minutes
	system time =       0.01 seconds =       0.00 minutes
	total time  =          1 seconds =       0.02 minutes
Total time:
	user time   =       0.94 seconds =       0.02 minutes
	system time =       0.01 seconds =       0.00 minutes
	total time  =          1 seconds =       0.02 minutes


Properties will be evaluated at   0.000000,   0.000000,   0.000000 Bohr

Properties computed using the  density matrix

  Nuclear Dipole Moment: (a.u.)
     X:     1.2288      Y:     0.0115      Z:    -0.7013

  Electronic Dipole Moment: (a.u.)
     X:    -1.0037      Y:    -0.0027      Z:     0.0797

  Dipole Moment: (a.u.)
     X:     0.2251      Y:     0.0088      Z:    -0.6216     Total:     0.6612

  Dipole Moment: (Debye)
     X:     0.5722      Y:     0.0224      Z:    -1.5799     Total:     1.6805

  Quadrupole Moment: (Debye Ang)
    XX:   -14.5390     YY:   -12.5435     ZZ:   -14.3012
    XY:    -0.0399     XZ:     2.1776     YZ:     0.0318

  Traceless Quadrupole Moment: (Debye Ang)
    XX:    -0.7444     YY:     1.2511     ZZ:    -0.5067
    XY:    -0.0399     XZ:     2.1776     YZ:     0.0318

  Mulliken Charges: (a.u.)
   Center  Symbol    Alpha    Beta     Spin     Total
       1     H     0.33160  0.33160  0.00000  0.33681
       2     N     3.92280  3.92280  0.00000 -0.84560
       3     C     3.14374  3.14374  0.00000 -0.28748
       4     H     0.33158  0.33158  0.00000  0.33684
       5     H     0.42604  0.42604  0.00000  0.14791
       6     H     0.42638  0.42638  0.00000  0.14724
       7     H     0.41786  0.41786  0.00000  0.16428

   Total alpha =  9.00000, Total beta =  9.00000, Total charge =  0.00000


*** PSI4 exiting successfully. Buy a developer a beer!
