    -----------------------------------------------------------------------
          Psi4: An Open-Source Ab Initio Electronic Structure Package
                              Psi4 (no tag) Driver

                          Git: Rev {detached?}  

    J. M. Turney, A. C. Simmonett, R. M. Parrish, E. G. Hohenstein,
    F. A. Evangelista, J. T. Fermann, B. J. Mintz, L. A. Burns, J. J. Wilke,
    M. L. Abrams, N. J. Russ, M. L. Leininger, C. L. Janssen, E. T. Seidl,
    W. D. Allen, H. F. Schaefer, R. A. King, E. F. Valeev, C. D. Sherrill,
    and T. D. Crawford, WIREs Comput. Mol. Sci. 2, 556-565 (2012)
    (doi: 10.1002/wcms.93)

                         Additional Contributions by
    A. E. DePrince, M. Saitow, U. Bozkaya, A. Yu. Sokolov
    -----------------------------------------------------------------------


    Psi4 started on: Tue Jul  5 16:36:09 2016

    Process ID:  20446
    PSI4DATADIR: /export131/home/mjharvey/miniconda3/share
    Memory level set to 256.000 MB

  ==> Input File <==

--------------------------------------------------------------------------
set {
	reference rhf
	basis 6-31G*
}


set_num_threads( 1 )
memory 2 gb

molecule MOL {
0 1

H	 -2.202823	 -1.015365	 0.671801
O	 -2.347518	 -0.290803	 0.079804
C	 -1.184022	 0.487508	 -0.006784
C	 0.062599	 -0.378592	 0.031606
H	 -1.176523	 1.099369	 -0.904519
H	 -1.187323	 1.153111	 0.844927
O	 -0.043959	 -1.331029	 -0.978982
H	 0.152937	 -0.862108	 1.006301
H	 0.944499	 0.244194	 -0.106143
C	 1.051901	 -2.183439	 -1.086827
H	 1.203606	 -2.754072	 -0.172501
H	 0.853769	 -2.869137	 -1.898901
H	 1.964096	 -1.631937	 -1.304857

	symmetry c1
}
set optking {
	frozen_dihedral = ("
		8 4 3 5,
		10 7 4 8,
		4 7 10 13
	")
}

ee = energy('scf')
oeprop('DIPOLE', 'QUADRUPOLE', 'MULLIKEN_CHARGES')
f=open( 'psi4out.xyz', 'w' )
f.write( "13  " )
f.write( str(ee) + "\n" )
f.write( MOL.save_string_xyz() )
f.close()
--------------------------------------------------------------------------

  Memory set to   2.000 GiB by Python script.

*** tstart() called on cx1-49-4-2.cx1.hpc.ic.ac.uk
*** at Tue Jul  5 16:36:10 2016


         ---------------------------------------------------------
                                   SCF
            by Justin Turney, Rob Parrish, and Andy Simmonett
                              RHF Reference
                        1 Threads,   2000 MiB Core
         ---------------------------------------------------------

  ==> Geometry <==

    Molecular point group: c1
    Full point group: C1

    Geometry (in Angstrom), charge = 0, multiplicity = 1:

       Center              X                  Y                   Z               Mass       
    ------------   -----------------  -----------------  -----------------  -----------------
           H         -1.696209662266    -0.259002419197     1.053180168881     1.007825032070
           O         -1.840904662266     0.465559580803     0.461183168881    15.994914619560
           C         -0.677408662266     1.243870580803     0.374595168881    12.000000000000
           C          0.569212337734     0.377770580803     0.412985168881    12.000000000000
           H         -0.669909662266     1.855731580803    -0.523139831119     1.007825032070
           H         -0.680709662266     1.909473580803     1.226306168881     1.007825032070
           O          0.462654337734    -0.574666419197    -0.597602831119    15.994914619560
           H          0.659550337734    -0.105745419197     1.387680168881     1.007825032070
           H          1.451112337734     1.000556580803     0.275236168881     1.007825032070
           C          1.558514337734    -1.427076419197    -0.705447831119    12.000000000000
           H          1.710219337734    -1.997709419197     0.208878168881     1.007825032070
           H          1.360382337734    -2.112774419197    -1.517521831119     1.007825032070
           H          2.470709337734    -0.875574419197    -0.923477831119     1.007825032070

  Running in c1 symmetry.

  Rotational constants: A =      0.44563  B =      0.09239  C =      0.08318 [cm^-1]
  Rotational constants: A =  13359.55895  B =   2769.65814  C =   2493.79494 [MHz]
  Nuclear repulsion =  194.423270289217129

  Charge       = 0
  Multiplicity = 1
  Electrons    = 42
  Nalpha       = 21
  Nbeta        = 21

  ==> Algorithm <==

  SCF Algorithm Type is DF.
  DIIS enabled.
  MOM disabled.
  Fractional occupation disabled.
  Guess Type is CORE.
  Energy threshold   = 1.00e-06
  Density threshold  = 1.00e-06
  Integral threshold = 0.00e+00

  ==> Primary Basis <==

  Basis Set: 6-31G*
    Number of shells: 46
    Number of basis function: 91
    Number of Cartesian functions: 91
    Spherical Harmonics?: false
    Max angular momentum: 2

  ==> Pre-Iterations <==

   -------------------------------------------------------
    Irrep   Nso     Nmo     Nalpha   Nbeta   Ndocc  Nsocc
   -------------------------------------------------------
     A         91      91       0       0       0       0
   -------------------------------------------------------
    Total      91      91      21      21      21       0
   -------------------------------------------------------

 OEINTS: Overlap, kinetic, potential, dipole, and quadrupole integrals
         stored in file 35.

  ==> Integral Setup <==

  ==> DFJK: Density-Fitted J/K Matrices <==

    J tasked:                  Yes
    K tasked:                  Yes
    wK tasked:                  No
    OpenMP threads:              1
    Integrals threads:           1
    Memory (MB):              1430
    Algorithm:                Core
    Integral Cache:           NONE
    Schwarz Cutoff:          1E-12
    Fitting Condition:       1E-12

   => Auxiliary Basis Set <=

  Basis Set: 
    Number of shells: 192
    Number of basis function: 605
    Number of Cartesian functions: 605
    Spherical Harmonics?: false
    Max angular momentum: 3

  Minimum eigenvalue in the overlap matrix is 4.4944550768E-03.
  Using Symmetric Orthogonalization.
  SCF Guess: Core (One-Electron) Hamiltonian.

  ==> Iterations <==

                           Total Energy        Delta E     RMS |[F,P]|

   @DF-RHF iter   1:  -223.66275561311861   -2.23663e+02   7.94096e-02 
   @DF-RHF iter   2:  -167.73161884306163    5.59311e+01   6.78526e-02 DIIS
   @DF-RHF iter   3:  -228.54397846477750   -6.08124e+01   6.87651e-02 DIIS
   @DF-RHF iter   4:  -256.48992305870888   -2.79459e+01   3.92405e-02 DIIS
   @DF-RHF iter   5:  -267.54483034809846   -1.10549e+01   9.59347e-03 DIIS
   @DF-RHF iter   6:  -267.88128985127037   -3.36460e-01   3.94091e-03 DIIS
   @DF-RHF iter   7:  -267.93800010727955   -5.67103e-02   1.22389e-03 DIIS
   @DF-RHF iter   8:  -267.94406729815182   -6.06719e-03   4.68011e-04 DIIS
   @DF-RHF iter   9:  -267.94515279803511   -1.08550e-03   1.68861e-04 DIIS
   @DF-RHF iter  10:  -267.94530704174019   -1.54244e-04   5.11868e-05 DIIS
   @DF-RHF iter  11:  -267.94532395152362   -1.69098e-05   1.81000e-05 DIIS
   @DF-RHF iter  12:  -267.94532569083253   -1.73931e-06   3.93549e-06 DIIS
   @DF-RHF iter  13:  -267.94532580073394   -1.09901e-07   7.07664e-07 DIIS

  ==> Post-Iterations <==

    Orbital Energies (a.u.)
    -----------------------

    Doubly Occupied:                                                      

       1A    -20.562832     2A    -20.547877     3A    -11.278196  
       4A    -11.271054     5A    -11.270133     6A     -1.392212  
       7A     -1.352734     8A     -1.020596     9A     -0.919649  
      10A     -0.841433    11A     -0.689768    12A     -0.679460  
      13A     -0.672496    14A     -0.624571    15A     -0.610988  
      16A     -0.569167    17A     -0.540895    18A     -0.500664  
      19A     -0.465709    20A     -0.434637    21A     -0.424345  

    Virtual:                                                              

      22A      0.220083    23A      0.256803    24A      0.274338  
      25A      0.299052    26A      0.311261    27A      0.317967  
      28A      0.328127    29A      0.334434    30A      0.352849  
      31A      0.412777    32A      0.442771    33A      0.446955  
      34A      0.722768    35A      0.758094    36A      0.766897  
      37A      0.806334    38A      0.822367    39A      0.838270  
      40A      0.884489    41A      0.941067    42A      0.986909  
      43A      1.065524    44A      1.090328    45A      1.105157  
      46A      1.142992    47A      1.151947    48A      1.155324  
      49A      1.182677    50A      1.206865    51A      1.230166  
      52A      1.260400    53A      1.298338    54A      1.325017  
      55A      1.361804    56A      1.400050    57A      1.464322  
      58A      1.603291    59A      1.675195    60A      1.702969  
      61A      1.706413    62A      1.753836    63A      1.820671  
      64A      1.941163    65A      1.969545    66A      2.037611  
      67A      2.163735    68A      2.237573    69A      2.256083  
      70A      2.384211    71A      2.412065    72A      2.432390  
      73A      2.462676    74A      2.473894    75A      2.517640  
      76A      2.590283    77A      2.633428    78A      2.739559  
      79A      2.765413    80A      2.817305    81A      2.853785  
      82A      2.901199    83A      3.045126    84A      3.187531  
      85A      3.206446    86A      3.337415    87A      4.182720  
      88A      4.361774    89A      4.634734    90A      4.676779  
      91A      4.870031  

    Final Occupation by Irrep:
              A 
    DOCC [    21 ]

  Energy converged.

  @DF-RHF Final Energy:  -267.94532580073394

   => Energetics <=

    Nuclear Repulsion Energy =            194.4232702892171289
    One-Electron Energy =                -751.3983481392875774
    Two-Electron Energy =                 289.0297520493367642
    DFT Exchange-Correlation Energy =       0.0000000000000000
    Empirical Dispersion Energy =           0.0000000000000000
    PCM Polarization Energy =               0.0000000000000000
    EFP Energy =                            0.0000000000000000
    Total Energy =                       -267.9453258007336558

    Alert: EFP and PCM quantities not currently incorporated into SCF psivars.

Properties will be evaluated at   0.000000,   0.000000,   0.000000 Bohr
  ==> Properties <==


Properties computed using the SCF density matrix

  Nuclear Dipole Moment: (a.u.)
     X:     4.3106      Y:    -0.5490      Z:     1.1123

  Electronic Dipole Moment: (a.u.)
     X:    -3.2185      Y:     0.4045      Z:    -0.4944

  Dipole Moment: (a.u.)
     X:     1.0921      Y:    -0.1445      Z:     0.6179     Total:     1.2630

  Dipole Moment: (Debye)
     X:     2.7758      Y:    -0.3674      Z:     1.5705     Total:     3.2103


  Saving occupied orbitals to File 180.

*** tstop() called on cx1-49-4-2.cx1.hpc.ic.ac.uk at Tue Jul  5 16:36:17 2016
Module time:
	user time   =       7.19 seconds =       0.12 minutes
	system time =       0.05 seconds =       0.00 minutes
	total time  =          7 seconds =       0.12 minutes
Total time:
	user time   =       7.19 seconds =       0.12 minutes
	system time =       0.05 seconds =       0.00 minutes
	total time  =          7 seconds =       0.12 minutes


Properties will be evaluated at   0.000000,   0.000000,   0.000000 Bohr

Properties computed using the  density matrix

  Nuclear Dipole Moment: (a.u.)
     X:     4.3106      Y:    -0.5490      Z:     1.1123

  Electronic Dipole Moment: (a.u.)
     X:    -3.2185      Y:     0.4045      Z:    -0.4944

  Dipole Moment: (a.u.)
     X:     1.0921      Y:    -0.1445      Z:     0.6179     Total:     1.2630

  Dipole Moment: (Debye)
     X:     2.7758      Y:    -0.3674      Z:     1.5705     Total:     3.2103

  Quadrupole Moment: (Debye Ang)
    XX:   -34.6056     YY:   -28.4594     ZZ:   -30.1231
    XY:     0.6462     XZ:    -1.7324     YZ:    -0.5035

  Traceless Quadrupole Moment: (Debye Ang)
    XX:    -3.5429     YY:     2.6033     ZZ:     0.9396
    XY:     0.6462     XZ:    -1.7324     YZ:    -0.5035

  Mulliken Charges: (a.u.)
   Center  Symbol    Alpha    Beta     Spin     Total
       1     H     0.28030  0.28030  0.00000  0.43940
       2     O     4.36711  4.36711  0.00000 -0.73423
       3     C     2.98848  2.98848  0.00000  0.02305
       4     C     3.01656  3.01656  0.00000 -0.03311
       5     H     0.41133  0.41133  0.00000  0.17734
       6     H     0.42897  0.42897  0.00000  0.14207
       7     O     4.29669  4.29669  0.00000 -0.59338
       8     H     0.43444  0.43444  0.00000  0.13113
       9     H     0.42714  0.42714  0.00000  0.14572
      10     C     3.08042  3.08042  0.00000 -0.16084
      11     H     0.43052  0.43052  0.00000  0.13897
      12     H     0.40894  0.40894  0.00000  0.18211
      13     H     0.42911  0.42911  0.00000  0.14178

   Total alpha = 21.00000, Total beta = 21.00000, Total charge = -0.00000


*** PSI4 exiting successfully. Buy a developer a beer!
