    -----------------------------------------------------------------------
          Psi4: An Open-Source Ab Initio Electronic Structure Package
                              Psi4 (no tag) Driver

                          Git: Rev {detached?}  

    J. M. Turney, A. C. Simmonett, R. M. Parrish, E. G. Hohenstein,
    F. A. Evangelista, J. T. Fermann, B. J. Mintz, L. A. Burns, J. J. Wilke,
    M. L. Abrams, N. J. Russ, M. L. Leininger, C. L. Janssen, E. T. Seidl,
    W. D. Allen, H. F. Schaefer, R. A. King, E. F. Valeev, C. D. Sherrill,
    and T. D. Crawford, WIREs Comput. Mol. Sci. 2, 556-565 (2012)
    (doi: 10.1002/wcms.93)

                         Additional Contributions by
    A. E. DePrince, M. Saitow, U. Bozkaya, A. Yu. Sokolov
    -----------------------------------------------------------------------


    Psi4 started on: Tue Jul  5 16:37:32 2016

    Process ID:  30225
    PSI4DATADIR: /export131/home/mjharvey/miniconda3/share
    Memory level set to 256.000 MB

  ==> Input File <==

--------------------------------------------------------------------------
set {
	reference rhf
	basis 6-31G*
}


set_num_threads( 1 )
memory 2 gb

molecule MOL {
0 1

O	 0.785804	 1.237737	 -0.381960
C	 0.576249	 0.131685	 -0.000108
C	 -0.766779	 -0.556801	 -0.000461
O	 1.522506	 -0.659986	 0.488274
C	 -1.945214	 0.412366	 0.000161
H	 -0.796911	 -1.211249	 -0.867467
H	 -0.796854	 -1.212390	 0.865687
C	 -3.287791	 -0.317055	 0.000105
H	 -1.876087	 1.060580	 -0.866812
H	 -1.875822	 1.059691	 0.867761
H	 -3.394745	 -0.949193	 -0.877058
H	 -4.111778	 0.388953	 0.000015
H	 -3.394954	 -0.949187	 0.877259
C	 2.835626	 -0.132953	 0.544482
H	 3.183502	 0.126690	 -0.445018
H	 3.449599	 -0.914796	 0.963558
H	 2.866146	 0.745043	 1.173531

	symmetry c1
}
set optking {
	frozen_dihedral = ("
		9 5 3 6,
		14 4 2 1
	")
}

ee = energy('scf')
oeprop('DIPOLE', 'QUADRUPOLE', 'MULLIKEN_CHARGES')
f=open( 'psi4out.xyz', 'w' )
f.write( "17  " )
f.write( str(ee) + "\n" )
f.write( MOL.save_string_xyz() )
f.close()
--------------------------------------------------------------------------

  Memory set to   2.000 GiB by Python script.

*** tstart() called on cx1-3-2-3.cx1.hpc.ic.ac.uk
*** at Tue Jul  5 16:37:33 2016


         ---------------------------------------------------------
                                   SCF
            by Justin Turney, Rob Parrish, and Andy Simmonett
                              RHF Reference
                        1 Threads,   2000 MiB Core
         ---------------------------------------------------------

  ==> Geometry <==

    Molecular point group: c1
    Full point group: C1

    Geometry (in Angstrom), charge = 0, multiplicity = 1:

       Center              X                  Y                   Z               Mass       
    ------------   -----------------  -----------------  -----------------  -----------------
           O          0.794958607432     1.219929260540    -0.479300158580    15.994914619560
           C          0.585403607432     0.113877260540    -0.097448158580    12.000000000000
           C         -0.757624392568    -0.574608739460    -0.097801158580    12.000000000000
           O          1.531660607432    -0.677793739460     0.390933841420    15.994914619560
           C         -1.936059392568     0.394558260540    -0.097179158580    12.000000000000
           H         -0.787756392568    -1.229056739460    -0.964807158580     1.007825032070
           H         -0.787699392568    -1.230197739460     0.768346841420     1.007825032070
           C         -3.278636392568    -0.334862739460    -0.097235158580    12.000000000000
           H         -1.866932392568     1.042772260540    -0.964152158580     1.007825032070
           H         -1.866667392568     1.041883260540     0.770420841420     1.007825032070
           H         -3.385590392568    -0.967000739460    -0.974398158580     1.007825032070
           H         -4.102623392568     0.371145260540    -0.097325158580     1.007825032070
           H         -3.385799392568    -0.966994739460     0.779918841420     1.007825032070
           C          2.844780607432    -0.150760739460     0.447141841420    12.000000000000
           H          3.192656607432     0.108882260540    -0.542358158580     1.007825032070
           H          3.458753607432    -0.932603739460     0.866217841420     1.007825032070
           H          2.875300607432     0.727235260540     1.076190841420     1.007825032070

  Running in c1 symmetry.

  Rotational constants: A =      0.27736  B =      0.04019  C =      0.03635 [cm^-1]
  Rotational constants: A =   8315.10937  B =   1204.87760  C =   1089.68124 [MHz]
  Nuclear repulsion =  312.487495631996524

  Charge       = 0
  Multiplicity = 1
  Electrons    = 56
  Nalpha       = 28
  Nbeta        = 28

  ==> Algorithm <==

  SCF Algorithm Type is DF.
  DIIS enabled.
  MOM disabled.
  Fractional occupation disabled.
  Guess Type is CORE.
  Energy threshold   = 1.00e-06
  Density threshold  = 1.00e-06
  Integral threshold = 0.00e+00

  ==> Primary Basis <==

  Basis Set: 6-31G*
    Number of shells: 62
    Number of basis function: 125
    Number of Cartesian functions: 125
    Spherical Harmonics?: false
    Max angular momentum: 2

  ==> Pre-Iterations <==

   -------------------------------------------------------
    Irrep   Nso     Nmo     Nalpha   Nbeta   Ndocc  Nsocc
   -------------------------------------------------------
     A        125     125       0       0       0       0
   -------------------------------------------------------
    Total     125     125      28      28      28       0
   -------------------------------------------------------

 OEINTS: Overlap, kinetic, potential, dipole, and quadrupole integrals
         stored in file 35.

  ==> Integral Setup <==

  ==> DFJK: Density-Fitted J/K Matrices <==

    J tasked:                  Yes
    K tasked:                  Yes
    wK tasked:                  No
    OpenMP threads:              1
    Integrals threads:           1
    Memory (MB):              1430
    Algorithm:                Core
    Integral Cache:           NONE
    Schwarz Cutoff:          1E-12
    Fitting Condition:       1E-12

   => Auxiliary Basis Set <=

  Basis Set: 
    Number of shells: 258
    Number of basis function: 817
    Number of Cartesian functions: 817
    Spherical Harmonics?: false
    Max angular momentum: 3

  Minimum eigenvalue in the overlap matrix is 2.7983560655E-03.
  Using Symmetric Orthogonalization.
  SCF Guess: Core (One-Electron) Hamiltonian.

  ==> Iterations <==

                           Total Energy        Delta E     RMS |[F,P]|

   @DF-RHF iter   1:  -231.56052297802063   -2.31561e+02   7.94531e-02 
   @DF-RHF iter   2:  -131.22233171407129    1.00338e+02   8.97175e-02 DIIS
   @DF-RHF iter   3:  -222.08114645267011   -9.08588e+01   7.52109e-02 DIIS
   @DF-RHF iter   4:  -286.98384016340907   -6.49027e+01   6.45599e-02 DIIS
   @DF-RHF iter   5:  -339.57176077814376   -5.25879e+01   2.20911e-02 DIIS
   @DF-RHF iter   6:  -344.17506390110651   -4.60330e+00   1.00533e-02 DIIS
   @DF-RHF iter   7:  -344.81129253076580   -6.36229e-01   3.12407e-03 DIIS
   @DF-RHF iter   8:  -344.88394925355573   -7.26567e-02   1.54063e-03 DIIS
   @DF-RHF iter   9:  -344.90391100367611   -1.99618e-02   4.07185e-04 DIIS
   @DF-RHF iter  10:  -344.90596167688255   -2.05067e-03   1.40194e-04 DIIS
   @DF-RHF iter  11:  -344.90624428478264   -2.82608e-04   6.90940e-05 DIIS
   @DF-RHF iter  12:  -344.90631250280063   -6.82180e-05   1.82440e-05 DIIS
   @DF-RHF iter  13:  -344.90631862829349   -6.12549e-06   8.23793e-06 DIIS
   @DF-RHF iter  14:  -344.90631996171368   -1.33342e-06   2.14575e-06 DIIS
   @DF-RHF iter  15:  -344.90632005403739   -9.23237e-08   6.13686e-07 DIIS

  ==> Post-Iterations <==

    Orbital Energies (a.u.)
    -----------------------

    Doubly Occupied:                                                      

       1A    -20.604654     2A    -20.545312     3A    -11.372631  
       4A    -11.281043     5A    -11.235536     6A    -11.223392  
       7A    -11.215203     8A     -1.469840     9A     -1.363073  
      10A     -1.081096    11A     -1.001585    12A     -0.939970  
      13A     -0.827904    14A     -0.768397    15A     -0.699855  
      16A     -0.683070    17A     -0.672286    18A     -0.636716  
      19A     -0.595169    20A     -0.577925    21A     -0.565741  
      22A     -0.529268    23A     -0.522251    24A     -0.500089  
      25A     -0.487339    26A     -0.478399    27A     -0.456542  
      28A     -0.437214  

    Virtual:                                                              

      29A      0.197215    30A      0.232379    31A      0.261303  
      32A      0.284127    33A      0.289953    34A      0.302870  
      35A      0.311805    36A      0.317653    37A      0.327901  
      38A      0.333713    39A      0.342488    40A      0.364930  
      41A      0.404804    42A      0.425615    43A      0.468341  
      44A      0.522677    45A      0.567110    46A      0.722288  
      47A      0.729940    48A      0.741211    49A      0.744129  
      50A      0.768116    51A      0.771446    52A      0.793520  
      53A      0.846218    54A      0.875923    55A      0.900011  
      56A      0.945384    57A      0.964075    58A      1.002377  
      59A      1.052590    60A      1.072074    61A      1.091577  
      62A      1.110134    63A      1.128070    64A      1.136719  
      65A      1.142346    66A      1.171337    67A      1.174349  
      68A      1.203966    69A      1.207651    70A      1.218776  
      71A      1.228716    72A      1.249102    73A      1.260886  
      74A      1.291639    75A      1.339568    76A      1.381557  
      77A      1.402309    78A      1.535771    79A      1.585377  
      80A      1.631899    81A      1.671871    82A      1.718790  
      83A      1.760080    84A      1.803603    85A      1.878738  
      86A      1.886056    87A      1.953459    88A      2.023768  
      89A      2.050439    90A      2.131467    91A      2.140133  
      92A      2.157657    93A      2.207492    94A      2.265848  
      95A      2.279702    96A      2.292296    97A      2.343336  
      98A      2.362677    99A      2.397325   100A      2.427701  
     101A      2.448226   102A      2.497900   103A      2.570900  
     104A      2.654342   105A      2.665022   106A      2.679156  
     107A      2.685474   108A      2.743443   109A      2.798051  
     110A      2.843979   111A      2.897039   112A      2.960263  
     113A      3.042487   114A      3.100787   115A      3.153559  
     116A      3.348852   117A      3.442611   118A      3.569400  
     119A      4.416450   120A      4.552059   121A      4.635004  
     122A      4.674859   123A      4.743954   124A      4.847495  
     125A      4.991795  

    Final Occupation by Irrep:
              A 
    DOCC [    28 ]

  Energy converged.

  @DF-RHF Final Energy:  -344.90632005403739

   => Energetics <=

    Nuclear Repulsion Energy =            312.4874956319965236
    One-Electron Energy =               -1089.2443936332308567
    Two-Electron Energy =                 431.8505779471960295
    DFT Exchange-Correlation Energy =       0.0000000000000000
    Empirical Dispersion Energy =           0.0000000000000000
    PCM Polarization Energy =               0.0000000000000000
    EFP Energy =                            0.0000000000000000
    Total Energy =                       -344.9063200540382468

    Alert: EFP and PCM quantities not currently incorporated into SCF psivars.

Properties will be evaluated at   0.000000,   0.000000,   0.000000 Bohr
  ==> Properties <==


Properties computed using the SCF density matrix

  Nuclear Dipole Moment: (a.u.)
     X:    -6.2290      Y:    -1.9041      Z:     0.6727

  Electronic Dipole Moment: (a.u.)
     X:     6.3014      Y:     1.2622      Z:    -0.4098

  Dipole Moment: (a.u.)
     X:     0.0724      Y:    -0.6420      Z:     0.2629     Total:     0.6975

  Dipole Moment: (Debye)
     X:     0.1840      Y:    -1.6318      Z:     0.6682     Total:     1.7729


  Saving occupied orbitals to File 180.

*** tstop() called on cx1-3-2-3.cx1.hpc.ic.ac.uk at Tue Jul  5 16:37:45 2016
Module time:
	user time   =      11.97 seconds =       0.20 minutes
	system time =       0.06 seconds =       0.00 minutes
	total time  =         12 seconds =       0.20 minutes
Total time:
	user time   =      11.97 seconds =       0.20 minutes
	system time =       0.06 seconds =       0.00 minutes
	total time  =         12 seconds =       0.20 minutes


Properties will be evaluated at   0.000000,   0.000000,   0.000000 Bohr

Properties computed using the  density matrix

  Nuclear Dipole Moment: (a.u.)
     X:    -6.2290      Y:    -1.9041      Z:     0.6727

  Electronic Dipole Moment: (a.u.)
     X:     6.3014      Y:     1.2622      Z:    -0.4098

  Dipole Moment: (a.u.)
     X:     0.0724      Y:    -0.6420      Z:     0.2629     Total:     0.6975

  Dipole Moment: (Debye)
     X:     0.1840      Y:    -1.6318      Z:     0.6682     Total:     1.7729

  Quadrupole Moment: (Debye Ang)
    XX:   -36.7190     YY:   -47.7830     ZZ:   -42.7255
    XY:    -1.0376     XZ:     1.4267     YZ:     2.2694

  Traceless Quadrupole Moment: (Debye Ang)
    XX:     5.6902     YY:    -5.3738     ZZ:    -0.3164
    XY:    -1.0376     XZ:     1.4267     YZ:     2.2694

  Mulliken Charges: (a.u.)
   Center  Symbol    Alpha    Beta     Spin     Total
       1     O     4.28587  4.28587  0.00000 -0.57175
       2     C     2.60518  2.60518  0.00000  0.78963
       3     C     3.20737  3.20737  0.00000 -0.41475
       4     O     4.30647  4.30647  0.00000 -0.61294
       5     C     3.15403  3.15403  0.00000 -0.30806
       6     H     0.39995  0.39995  0.00000  0.20009
       7     H     0.40141  0.40141  0.00000  0.19718
       8     C     3.24256  3.24256  0.00000 -0.48512
       9     H     0.40640  0.40640  0.00000  0.18719
      10     H     0.41470  0.41470  0.00000  0.17060
      11     H     0.42078  0.42078  0.00000  0.15844
      12     H     0.41510  0.41510  0.00000  0.16981
      13     H     0.42110  0.42110  0.00000  0.15780
      14     C     3.09289  3.09289  0.00000 -0.18577
      15     H     0.40901  0.40901  0.00000  0.18198
      16     H     0.40835  0.40835  0.00000  0.18329
      17     H     0.40882  0.40882  0.00000  0.18237

   Total alpha = 28.00000, Total beta = 28.00000, Total charge = -0.00000


*** PSI4 exiting successfully. Buy a developer a beer!
