    -----------------------------------------------------------------------
          Psi4: An Open-Source Ab Initio Electronic Structure Package
                              Psi4 (no tag) Driver

                          Git: Rev {detached?}  

    J. M. Turney, A. C. Simmonett, R. M. Parrish, E. G. Hohenstein,
    F. A. Evangelista, J. T. Fermann, B. J. Mintz, L. A. Burns, J. J. Wilke,
    M. L. Abrams, N. J. Russ, M. L. Leininger, C. L. Janssen, E. T. Seidl,
    W. D. Allen, H. F. Schaefer, R. A. King, E. F. Valeev, C. D. Sherrill,
    and T. D. Crawford, WIREs Comput. Mol. Sci. 2, 556-565 (2012)
    (doi: 10.1002/wcms.93)

                         Additional Contributions by
    A. E. DePrince, M. Saitow, U. Bozkaya, A. Yu. Sokolov
    -----------------------------------------------------------------------


    Psi4 started on: Tue Jul  5 17:40:30 2016

    Process ID:   5880
    PSI4DATADIR: /export131/home/mjharvey/miniconda3/share
    Memory level set to 256.000 MB

  ==> Input File <==

--------------------------------------------------------------------------
set {
	reference rhf
	basis 6-31G*
}


set_num_threads( 1 )
memory 2 gb

molecule MOL {
0 1

O	 3.225979	 0.970355	 -0.599647
C	 2.701189	 0.057885	 -0.047330
C	 1.245376	 -0.013843	 0.345420
O	 3.347903	 -1.046386	 0.304773
C	 0.455112	 1.231400	 -0.050772
H	 0.838542	 -0.913825	 -0.103701
H	 1.208210	 -0.175333	 1.419774
C	 -0.998893	 1.219485	 0.433193
H	 0.482531	 1.345121	 -1.130325
H	 0.957290	 2.103070	 0.354729
C	 -1.883438	 0.145884	 -0.207175
H	 -1.431207	 2.195402	 0.224832
H	 -1.019646	 1.105716	 1.516076
C	 -3.347647	 0.245583	 0.225435
H	 -1.822183	 0.231698	 -1.291012
H	 -1.510341	 -0.844814	 0.042401
C	 -3.917385	 -1.075519	 0.745262
H	 -3.948468	 0.589144	 -0.614931
H	 -3.443685	 1.006241	 0.998659
C	 -3.006562	 -1.759062	 1.764512
H	 -4.891055	 -0.894968	 1.195830
H	 -4.089331	 -1.748135	 -0.092475
H	 -3.437318	 -2.692278	 2.114032
H	 -2.843209	 -1.125116	 2.631475
H	 -2.035145	 -1.984252	 1.333338
C	 4.728119	 -1.109107	 -0.004993
H	 4.882018	 -1.033965	 -1.071845
H	 5.068212	 -2.067527	 0.355250
H	 5.265056	 -0.311663	 0.488280

	symmetry c1
}
set optking {
	frozen_dihedral = ("
		21 17 14 11,
		15 11 8 5,
		6 3 5 9,
		11 8 5 9,
		2 4 26 27,
		1 2 4 26,
		6 3 2 1
	")
}

ee = energy('scf')
oeprop('DIPOLE', 'QUADRUPOLE', 'MULLIKEN_CHARGES')
f=open( 'psi4out.xyz', 'w' )
f.write( "29  " )
f.write( str(ee) + "\n" )
f.write( MOL.save_string_xyz() )
f.close()
--------------------------------------------------------------------------

  Memory set to   2.000 GiB by Python script.

*** tstart() called on cx1-3-14-1.cx1.hpc.ic.ac.uk
*** at Tue Jul  5 17:40:31 2016


         ---------------------------------------------------------
                                   SCF
            by Justin Turney, Rob Parrish, and Andy Simmonett
                              RHF Reference
                        1 Threads,   2000 MiB Core
         ---------------------------------------------------------

  ==> Geometry <==

    Molecular point group: c1
    Full point group: C1

    Geometry (in Angstrom), charge = 0, multiplicity = 1:

       Center              X                  Y                   Z               Mass       
    ------------   -----------------  -----------------  -----------------  -----------------
           O          2.941421279421     1.091520182527    -0.866274735631    15.994914619560
           C          2.416631279421     0.179050182527    -0.313957735631    12.000000000000
           C          0.960818279421     0.107322182527     0.078792264369    12.000000000000
           O          3.063345279421    -0.925220817473     0.038145264369    15.994914619560
           C          0.170554279421     1.352565182527    -0.317399735631    12.000000000000
           H          0.553984279421    -0.792659817473    -0.370328735631     1.007825032070
           H          0.923652279421    -0.054167817473     1.153146264369     1.007825032070
           C         -1.283450720579     1.340650182527     0.166565264369    12.000000000000
           H          0.197973279421     1.466286182527    -1.396952735631     1.007825032070
           H          0.672732279421     2.224235182527     0.088101264369     1.007825032070
           C         -2.167995720579     0.267049182527    -0.473802735631    12.000000000000
           H         -1.715764720579     2.316567182527    -0.041795735631     1.007825032070
           H         -1.304203720579     1.226881182527     1.249448264369     1.007825032070
           C         -3.632204720579     0.366748182527    -0.041192735631    12.000000000000
           H         -2.106740720579     0.352863182527    -1.557639735631     1.007825032070
           H         -1.794898720579    -0.723648817473    -0.224226735631     1.007825032070
           C         -4.201942720579    -0.954353817473     0.478634264369    12.000000000000
           H         -4.233025720579     0.710309182527    -0.881558735631     1.007825032070
           H         -3.728242720579     1.127406182527     0.732031264369     1.007825032070
           C         -3.291119720579    -1.637896817473     1.497884264369    12.000000000000
           H         -5.175612720579    -0.773802817473     0.929202264369     1.007825032070
           H         -4.373888720579    -1.626969817473    -0.359102735631     1.007825032070
           H         -3.721875720579    -2.571112817473     1.847404264369     1.007825032070
           H         -3.127766720579    -1.003950817473     2.364847264369     1.007825032070
           H         -2.319702720579    -1.863086817473     1.066710264369     1.007825032070
           C          4.443561279421    -0.987941817473    -0.271620735631    12.000000000000
           H          4.597460279421    -0.912799817473    -1.338472735631     1.007825032070
           H          4.783654279421    -1.946361817473     0.088622264369     1.007825032070
           H          4.980498279421    -0.190497817473     0.221652264369     1.007825032070

  Running in c1 symmetry.

  Rotational constants: A =      0.07632  B =      0.01185  C =      0.01063 [cm^-1]
  Rotational constants: A =   2288.15652  B =    355.14639  C =    318.73963 [MHz]
  Nuclear repulsion =  625.827909204639127

  Charge       = 0
  Multiplicity = 1
  Electrons    = 88
  Nalpha       = 44
  Nbeta        = 44

  ==> Algorithm <==

  SCF Algorithm Type is DF.
  DIIS enabled.
  MOM disabled.
  Fractional occupation disabled.
  Guess Type is CORE.
  Energy threshold   = 1.00e-06
  Density threshold  = 1.00e-06
  Integral threshold = 0.00e+00

  ==> Primary Basis <==

  Basis Set: 6-31G*
    Number of shells: 102
    Number of basis function: 201
    Number of Cartesian functions: 201
    Spherical Harmonics?: false
    Max angular momentum: 2

  ==> Pre-Iterations <==

   -------------------------------------------------------
    Irrep   Nso     Nmo     Nalpha   Nbeta   Ndocc  Nsocc
   -------------------------------------------------------
     A        201     201       0       0       0       0
   -------------------------------------------------------
    Total     201     201      44      44      44       0
   -------------------------------------------------------

 OEINTS: Overlap, kinetic, potential, dipole, and quadrupole integrals
         stored in file 35.

  ==> Integral Setup <==

  ==> DFJK: Density-Fitted J/K Matrices <==

    J tasked:                  Yes
    K tasked:                  Yes
    wK tasked:                  No
    OpenMP threads:              1
    Integrals threads:           1
    Memory (MB):              1430
    Algorithm:                Core
    Integral Cache:           NONE
    Schwarz Cutoff:          1E-12
    Fitting Condition:       1E-12

   => Auxiliary Basis Set <=

  Basis Set: 
    Number of shells: 426
    Number of basis function: 1341
    Number of Cartesian functions: 1341
    Spherical Harmonics?: false
    Max angular momentum: 3

  Minimum eigenvalue in the overlap matrix is 2.5179873928E-03.
  Using Symmetric Orthogonalization.
  SCF Guess: Core (One-Electron) Hamiltonian.

  ==> Iterations <==

                           Total Energy        Delta E     RMS |[F,P]|

   @DF-RHF iter   1:  -327.96720400774973   -3.27967e+02   5.95126e-02 
   @DF-RHF iter   2:    24.96752537341717    3.52935e+02   8.34728e-02 DIIS
   @DF-RHF iter   3:  -266.77502407091413   -2.91743e+02   6.42476e-02 DIIS
   @DF-RHF iter   4:  -331.26192549301527   -6.44869e+01   5.03335e-02 DIIS
   @DF-RHF iter   5:  -329.78367132115795    1.47825e+00   5.41975e-02 DIIS
   @DF-RHF iter   6:  -492.75949994037637   -1.62976e+02   1.12381e-02 DIIS
   @DF-RHF iter   7:  -475.78679727978169    1.69727e+01   2.12218e-02 DIIS
   @DF-RHF iter   8:  -500.82617601500488   -2.50394e+01   3.44654e-03 DIIS
   @DF-RHF iter   9:  -501.01166065352163   -1.85485e-01   9.52901e-04 DIIS
   @DF-RHF iter  10:  -501.03029331539915   -1.86327e-02   2.38779e-04 DIIS
   @DF-RHF iter  11:  -501.03179135042456   -1.49804e-03   9.38677e-05 DIIS
   @DF-RHF iter  12:  -501.03198448227886   -1.93132e-04   3.55463e-05 DIIS
   @DF-RHF iter  13:  -501.03201528473073   -3.08025e-05   1.47992e-05 DIIS
   @DF-RHF iter  14:  -501.03202306916955   -7.78444e-06   6.54842e-06 DIIS
   @DF-RHF iter  15:  -501.03202453966401   -1.47049e-06   2.51464e-06 DIIS
   @DF-RHF iter  16:  -501.03202476305023   -2.23386e-07   9.13750e-07 DIIS

  ==> Post-Iterations <==

    Orbital Energies (a.u.)
    -----------------------

    Doubly Occupied:                                                      

       1A    -20.603263     2A    -20.545059     3A    -11.371872  
       4A    -11.280596     5A    -11.234649     6A    -11.218335  
       7A    -11.217491     8A    -11.216304     9A    -11.212939  
      10A    -11.212000    11A    -11.209559    12A     -1.468955  
      13A     -1.362382    14A     -1.099401    15A     -1.067968  
      16A     -1.016722    17A     -0.974544    18A     -0.928626  
      19A     -0.873231    20A     -0.804370    21A     -0.776354  
      22A     -0.763598    23A     -0.700334    24A     -0.682263  
      25A     -0.671947    26A     -0.646591    27A     -0.628686  
      28A     -0.614656    29A     -0.599088    30A     -0.579494  
      31A     -0.565852    32A     -0.555160    33A     -0.531438  
      34A     -0.524985    35A     -0.523025    36A     -0.505684  
      37A     -0.501252    38A     -0.477673    39A     -0.473442  
      40A     -0.456554    41A     -0.453578    42A     -0.448905  
      43A     -0.442709    44A     -0.435412  

    Virtual:                                                              

      45A      0.199082    46A      0.221950    47A      0.238357  
      48A      0.255445    49A      0.262400    50A      0.263984  
      51A      0.291317    52A      0.292873    53A      0.305426  
      54A      0.308490    55A      0.313831    56A      0.319092  
      57A      0.326447    58A      0.330516    59A      0.339102  
      60A      0.348523    61A      0.352683    62A      0.367393  
      63A      0.368869    64A      0.392285    65A      0.403107  
      66A      0.414509    67A      0.429419    68A      0.445814  
      69A      0.462755    70A      0.492426    71A      0.512771  
      72A      0.546297    73A      0.586123    74A      0.695471  
      75A      0.712915    76A      0.726523    77A      0.733240  
      78A      0.737475    79A      0.755940    80A      0.766398  
      81A      0.782078    82A      0.786526    83A      0.800605  
      84A      0.803012    85A      0.849104    86A      0.888275  
      87A      0.897876    88A      0.910509    89A      0.922069  
      90A      0.936989    91A      0.955440    92A      0.971760  
      93A      0.990129    94A      1.001617    95A      1.006728  
      96A      1.041494    97A      1.070608    98A      1.085412  
      99A      1.113638   100A      1.124915   101A      1.129530  
     102A      1.130534   103A      1.141192   104A      1.148803  
     105A      1.152726   106A      1.166461   107A      1.171804  
     108A      1.173963   109A      1.185949   110A      1.197134  
     111A      1.208182   112A      1.216034   113A      1.224321  
     114A      1.236167   115A      1.242489   116A      1.246378  
     117A      1.257771   118A      1.267708   119A      1.274333  
     120A      1.286851   121A      1.307924   122A      1.335360  
     123A      1.373622   124A      1.396010   125A      1.415742  
     126A      1.435136   127A      1.537683   128A      1.588196  
     129A      1.633363   130A      1.664645   131A      1.703497  
     132A      1.725543   133A      1.753339   134A      1.781746  
     135A      1.804712   136A      1.851106   137A      1.864014  
     138A      1.891462   139A      1.901780   140A      1.947943  
     141A      1.992611   142A      2.015606   143A      2.025234  
     144A      2.050227   145A      2.097751   146A      2.120995  
     147A      2.156014   148A      2.169209   149A      2.215955  
     150A      2.223446   151A      2.230706   152A      2.256186  
     153A      2.278439   154A      2.295566   155A      2.313483  
     156A      2.337946   157A      2.343596   158A      2.369028  
     159A      2.395715   160A      2.398939   161A      2.423980  
     162A      2.434969   163A      2.448719   164A      2.482246  
     165A      2.535630   166A      2.565535   167A      2.615083  
     168A      2.644283   169A      2.666690   170A      2.672937  
     171A      2.688480   172A      2.715636   173A      2.730167  
     174A      2.754071   175A      2.769508   176A      2.792359  
     177A      2.827574   178A      2.845563   179A      2.903690  
     180A      2.940610   181A      2.960663   182A      3.032356  
     183A      3.037704   184A      3.067917   185A      3.111002  
     186A      3.163391   187A      3.179576   188A      3.350025  
     189A      3.451129   190A      3.581550   191A      4.417132  
     192A      4.541325   193A      4.585667   194A      4.628053  
     195A      4.681851   196A      4.731331   197A      4.793344  
     198A      4.843401   199A      4.902962   200A      4.986029  
     201A      5.040962  

    Final Occupation by Irrep:
              A 
    DOCC [    44 ]

  Energy converged.

  @DF-RHF Final Energy:  -501.03202476305023

   => Energetics <=

    Nuclear Repulsion Energy =            625.8279092046391270
    One-Electron Energy =               -1922.7657055238421435
    Two-Electron Energy =                 795.9057715561543773
    DFT Exchange-Correlation Energy =       0.0000000000000000
    Empirical Dispersion Energy =           0.0000000000000000
    PCM Polarization Energy =               0.0000000000000000
    EFP Energy =                            0.0000000000000000
    Total Energy =                       -501.0320247630486392

    Alert: EFP and PCM quantities not currently incorporated into SCF psivars.

Properties will be evaluated at   0.000000,   0.000000,   0.000000 Bohr
  ==> Properties <==


Properties computed using the SCF density matrix

  Nuclear Dipole Moment: (a.u.)
     X:   -15.8067      Y:    -2.8440      Z:     3.3438

  Electronic Dipole Moment: (a.u.)
     X:    15.6164      Y:     2.2305      Z:    -3.0421

  Dipole Moment: (a.u.)
     X:    -0.1902      Y:    -0.6135      Z:     0.3017     Total:     0.7096

  Dipole Moment: (Debye)
     X:    -0.4835      Y:    -1.5593      Z:     0.7669     Total:     1.8037


  Saving occupied orbitals to File 180.

*** tstop() called on cx1-3-14-1.cx1.hpc.ic.ac.uk at Tue Jul  5 17:41:31 2016
Module time:
	user time   =      59.49 seconds =       0.99 minutes
	system time =       0.43 seconds =       0.01 minutes
	total time  =         60 seconds =       1.00 minutes
Total time:
	user time   =      59.49 seconds =       0.99 minutes
	system time =       0.43 seconds =       0.01 minutes
	total time  =         60 seconds =       1.00 minutes


Properties will be evaluated at   0.000000,   0.000000,   0.000000 Bohr

Properties computed using the  density matrix

  Nuclear Dipole Moment: (a.u.)
     X:   -15.8067      Y:    -2.8440      Z:     3.3438

  Electronic Dipole Moment: (a.u.)
     X:    15.6164      Y:     2.2305      Z:    -3.0421

  Dipole Moment: (a.u.)
     X:    -0.1902      Y:    -0.6135      Z:     0.3017     Total:     0.7096

  Dipole Moment: (Debye)
     X:    -0.4835      Y:    -1.5593      Z:     0.7669     Total:     1.8037

  Quadrupole Moment: (Debye Ang)
    XX:   -66.0526     YY:   -73.1486     ZZ:   -70.7185
    XY:    -7.2929     XZ:     2.7124     YZ:     3.2210

  Traceless Quadrupole Moment: (Debye Ang)
    XX:     3.9207     YY:    -3.1754     ZZ:    -0.7453
    XY:    -7.2929     XZ:     2.7124     YZ:     3.2210

  Mulliken Charges: (a.u.)
   Center  Symbol    Alpha    Beta     Spin     Total
       1     O     4.28591  4.28591  0.00000 -0.57181
       2     C     2.60462  2.60462  0.00000  0.79075
       3     C     3.20977  3.20977  0.00000 -0.41954
       4     O     4.30747  4.30747  0.00000 -0.61494
       5     C     3.15414  3.15414  0.00000 -0.30827
       6     H     0.39942  0.39942  0.00000  0.20115
       7     H     0.40120  0.40120  0.00000  0.19760
       8     C     3.15856  3.15856  0.00000 -0.31712
       9     H     0.41310  0.41310  0.00000  0.17380
      10     H     0.40903  0.40903  0.00000  0.18195
      11     C     3.15976  3.15976  0.00000 -0.31952
      12     H     0.41748  0.41748  0.00000  0.16503
      13     H     0.42355  0.42355  0.00000  0.15290
      14     C     3.15531  3.15531  0.00000 -0.31061
      15     H     0.42008  0.42008  0.00000  0.15984
      16     H     0.42112  0.42112  0.00000  0.15777
      17     C     3.15446  3.15446  0.00000 -0.30893
      18     H     0.41871  0.41871  0.00000  0.16258
      19     H     0.42095  0.42095  0.00000  0.15811
      20     C     3.24314  3.24314  0.00000 -0.48628
      21     H     0.42027  0.42027  0.00000  0.15947
      22     H     0.42280  0.42280  0.00000  0.15439
      23     H     0.41792  0.41792  0.00000  0.16416
      24     H     0.42177  0.42177  0.00000  0.15647
      25     H     0.42032  0.42032  0.00000  0.15936
      26     C     3.09241  3.09241  0.00000 -0.18482
      27     H     0.40910  0.40910  0.00000  0.18181
      28     H     0.40853  0.40853  0.00000  0.18295
      29     H     0.40912  0.40912  0.00000  0.18176

   Total alpha = 44.00000, Total beta = 44.00000, Total charge =  0.00000


*** PSI4 exiting successfully. Buy a developer a beer!
