    -----------------------------------------------------------------------
          Psi4: An Open-Source Ab Initio Electronic Structure Package
                              Psi4 (no tag) Driver

                          Git: Rev {detached?}  

    J. M. Turney, A. C. Simmonett, R. M. Parrish, E. G. Hohenstein,
    F. A. Evangelista, J. T. Fermann, B. J. Mintz, L. A. Burns, J. J. Wilke,
    M. L. Abrams, N. J. Russ, M. L. Leininger, C. L. Janssen, E. T. Seidl,
    W. D. Allen, H. F. Schaefer, R. A. King, E. F. Valeev, C. D. Sherrill,
    and T. D. Crawford, WIREs Comput. Mol. Sci. 2, 556-565 (2012)
    (doi: 10.1002/wcms.93)

                         Additional Contributions by
    A. E. DePrince, M. Saitow, U. Bozkaya, A. Yu. Sokolov
    -----------------------------------------------------------------------


    Psi4 started on: Tue Jul  5 17:49:38 2016

    Process ID:  27503
    PSI4DATADIR: /export131/home/mjharvey/miniconda3/share
    Memory level set to 256.000 MB

  ==> Input File <==

--------------------------------------------------------------------------
set {
	reference rhf
	basis 6-31G*
}


set_num_threads( 1 )
memory 2 gb

molecule MOL {
0 1

H	 6.249680	 -0.195876	 0.699949
C	 6.054271	 -1.155692	 1.168021
C	 7.091756	 -2.196259	 0.748472
H	 6.064724	 -1.007298	 2.243759
H	 5.051067	 -1.463357	 0.885668
C	 6.841329	 -3.564718	 1.385983
H	 8.081704	 -1.845604	 1.021686
H	 7.081555	 -2.297225	 -0.335684
C	 5.391537	 -4.037839	 1.278628
H	 7.488006	 -4.303837	 0.926465
H	 7.109243	 -3.520357	 2.439214
C	 4.964761	 -4.436609	 -0.126394
H	 5.243460	 -4.914140	 1.907866
H	 4.707201	 -3.283253	 1.660021
C	 3.475324	 -4.538016	 -0.405696
O	 5.765727	 -4.680326	 -0.978133
C	 3.142513	 -5.197708	 -1.752249
H	 3.077758	 -3.530724	 -0.373804
H	 3.010537	 -5.105855	 0.398180
C	 3.906992	 -6.506058	 -1.962969
H	 2.073565	 -5.394231	 -1.800676
H	 3.371148	 -4.517137	 -2.568350
C	 3.584233	 -7.172245	 -3.299729
H	 3.675183	 -7.191428	 -1.151430
H	 4.975620	 -6.311267	 -1.903941
H	 2.526789	 -7.408725	 -3.374670
H	 3.837980	 -6.523738	 -4.133494
H	 4.139105	 -8.097216	 -3.419829

	symmetry c1
}
set optking {
	frozen_dihedral = ("
		10 6 3 2,
		12 15 17 21
	")
}

ee = energy('scf')
oeprop('DIPOLE', 'QUADRUPOLE', 'MULLIKEN_CHARGES')
f=open( 'psi4out.xyz', 'w' )
f.write( "28  " )
f.write( str(ee) + "\n" )
f.write( MOL.save_string_xyz() )
f.close()
--------------------------------------------------------------------------

  Memory set to   2.000 GiB by Python script.

*** tstart() called on cx1-3-4-4.cx1.hpc.ic.ac.uk
*** at Tue Jul  5 17:49:39 2016


         ---------------------------------------------------------
                                   SCF
            by Justin Turney, Rob Parrish, and Andy Simmonett
                              RHF Reference
                        1 Threads,   2000 MiB Core
         ---------------------------------------------------------

  ==> Geometry <==

    Molecular point group: c1
    Full point group: C1

    Geometry (in Angstrom), charge = 0, multiplicity = 1:

       Center              X                  Y                   Z               Mass       
    ------------   -----------------  -----------------  -----------------  -----------------
           H          1.225568118282     4.152334621335     1.109200314645     1.007825032070
           C          1.030159118282     3.192518621335     1.577272314645    12.000000000000
           C          2.067644118282     2.151951621335     1.157723314645    12.000000000000
           H          1.040612118282     3.340912621335     2.653010314645     1.007825032070
           H          0.026955118282     2.884853621335     1.294919314645     1.007825032070
           C          1.817217118282     0.783492621335     1.795234314645    12.000000000000
           H          3.057592118282     2.502606621335     1.430937314645     1.007825032070
           H          2.057443118282     2.050985621335     0.073567314645     1.007825032070
           C          0.367425118282     0.310371621335     1.687879314645    12.000000000000
           H          2.463894118282     0.044373621335     1.335716314645     1.007825032070
           H          2.085131118282     0.827853621335     2.848465314645     1.007825032070
           C         -0.059350881718    -0.088398378665     0.282857314645    12.000000000000
           H          0.219348118282    -0.565929378665     2.317117314645     1.007825032070
           H         -0.316910881718     1.064957621335     2.069272314645     1.007825032070
           C         -1.548787881718    -0.189805378665     0.003555314645    12.000000000000
           O          0.741615118282    -0.332115378665    -0.568881685355    15.994914619560
           C         -1.881598881718    -0.849497378665    -1.342997685355    12.000000000000
           H         -1.946353881718     0.817486621335     0.035447314645     1.007825032070
           H         -2.013574881718    -0.757644378665     0.807431314645     1.007825032070
           C         -1.117119881718    -2.157847378665    -1.553717685355    12.000000000000
           H         -2.950546881718    -1.046020378665    -1.391424685355     1.007825032070
           H         -1.652963881718    -0.168926378665    -2.159098685355     1.007825032070
           C         -1.439878881718    -2.824034378665    -2.890477685355    12.000000000000
           H         -1.348928881718    -2.843217378665    -0.742178685355     1.007825032070
           H         -0.048491881718    -1.963056378665    -1.494689685355     1.007825032070
           H         -2.497322881718    -3.060514378665    -2.965418685355     1.007825032070
           H         -1.186131881718    -2.175527378665    -3.724242685355     1.007825032070
           H         -0.885006881718    -3.749005378665    -3.010577685355     1.007825032070

  Running in c1 symmetry.

  Rotational constants: A =      0.10315  B =      0.01732  C =      0.01670 [cm^-1]
  Rotational constants: A =   3092.44323  B =    519.32867  C =    500.57282 [MHz]
  Nuclear repulsion =  552.454886959711075

  Charge       = 0
  Multiplicity = 1
  Electrons    = 80
  Nalpha       = 40
  Nbeta        = 40

  ==> Algorithm <==

  SCF Algorithm Type is DF.
  DIIS enabled.
  MOM disabled.
  Fractional occupation disabled.
  Guess Type is CORE.
  Energy threshold   = 1.00e-06
  Density threshold  = 1.00e-06
  Integral threshold = 0.00e+00

  ==> Primary Basis <==

  Basis Set: 6-31G*
    Number of shells: 96
    Number of basis function: 186
    Number of Cartesian functions: 186
    Spherical Harmonics?: false
    Max angular momentum: 2

  ==> Pre-Iterations <==

   -------------------------------------------------------
    Irrep   Nso     Nmo     Nalpha   Nbeta   Ndocc  Nsocc
   -------------------------------------------------------
     A        186     186       0       0       0       0
   -------------------------------------------------------
    Total     186     186      40      40      40       0
   -------------------------------------------------------

 OEINTS: Overlap, kinetic, potential, dipole, and quadrupole integrals
         stored in file 35.

  ==> Integral Setup <==

  ==> DFJK: Density-Fitted J/K Matrices <==

    J tasked:                  Yes
    K tasked:                  Yes
    wK tasked:                  No
    OpenMP threads:              1
    Integrals threads:           1
    Memory (MB):              1430
    Algorithm:                Core
    Integral Cache:           NONE
    Schwarz Cutoff:          1E-12
    Fitting Condition:       1E-12

   => Auxiliary Basis Set <=

  Basis Set: 
    Number of shells: 402
    Number of basis function: 1260
    Number of Cartesian functions: 1260
    Spherical Harmonics?: false
    Max angular momentum: 3

  Minimum eigenvalue in the overlap matrix is 3.0793279183E-03.
  Using Symmetric Orthogonalization.
  SCF Guess: Core (One-Electron) Hamiltonian.

  ==> Iterations <==

                           Total Energy        Delta E     RMS |[F,P]|

   @DF-RHF iter   1:  -236.67361483829927   -2.36674e+02   6.91097e-02 
   @DF-RHF iter   2:  -150.61375076773902    8.60599e+01   7.20574e-02 DIIS
   @DF-RHF iter   3:  -372.22605330674901   -2.21612e+02   3.37444e-02 DIIS
   @DF-RHF iter   4:  -325.86859946308050    4.63575e+01   4.98036e-02 DIIS
   @DF-RHF iter   5:  -397.70016476704996   -7.18316e+01   3.02328e-02 DIIS
   @DF-RHF iter   6:  -404.74089287433753   -7.04073e+00   2.13158e-02 DIIS
   @DF-RHF iter   7:  -425.49672736964089   -2.07558e+01   5.55995e-03 DIIS
   @DF-RHF iter   8:  -426.09677904950468   -6.00052e-01   1.51836e-03 DIIS
   @DF-RHF iter   9:  -426.14697704982871   -5.01980e-02   6.11089e-04 DIIS
   @DF-RHF iter  10:  -426.15719534377797   -1.02183e-02   1.99031e-04 DIIS
   @DF-RHF iter  11:  -426.15829839800358   -1.10305e-03   7.58631e-05 DIIS
   @DF-RHF iter  12:  -426.15846536672007   -1.66969e-04   3.17567e-05 DIIS
   @DF-RHF iter  13:  -426.15849726876809   -3.19020e-05   7.62166e-06 DIIS
   @DF-RHF iter  14:  -426.15850001180684   -2.74304e-06   3.05232e-06 DIIS
   @DF-RHF iter  15:  -426.15850041845624   -4.06649e-07   9.63108e-07 DIIS

  ==> Post-Iterations <==

    Orbital Energies (a.u.)
    -----------------------

    Doubly Occupied:                                                      

       1A    -20.550700     2A    -11.326219     3A    -11.231976  
       4A    -11.231070     5A    -11.218450     6A    -11.216933  
       7A    -11.214267     8A    -11.211644     9A    -11.200139  
      10A    -11.199378    11A     -1.399660    12A     -1.088789  
      13A     -1.075571    14A     -1.016979    15A     -0.985392  
      16A     -0.914055    17A     -0.871532    18A     -0.803168  
      19A     -0.783189    20A     -0.721435    21A     -0.675843  
      22A     -0.652097    23A     -0.633639    24A     -0.614914  
      25A     -0.607957    26A     -0.592157    27A     -0.570310  
      28A     -0.549263    29A     -0.547690    30A     -0.539227  
      31A     -0.522166    32A     -0.510473    33A     -0.500446  
      34A     -0.472559    35A     -0.467703    36A     -0.465887  
      37A     -0.462860    38A     -0.458095    39A     -0.453757  
      40A     -0.390325  

    Virtual:                                                              

      41A      0.165529    42A      0.210157    43A      0.245660  
      44A      0.255261    45A      0.271130    46A      0.284807  
      47A      0.290701    48A      0.297646    49A      0.309541  
      50A      0.320138    51A      0.321522    52A      0.329569  
      53A      0.337695    54A      0.339135    55A      0.350777  
      56A      0.357383    57A      0.364981    58A      0.376542  
      59A      0.383749    60A      0.389110    61A      0.399700  
      62A      0.408253    63A      0.436121    64A      0.439678  
      65A      0.458861    66A      0.485647    67A      0.498052  
      68A      0.556821    69A      0.690897    70A      0.709385  
      71A      0.718443    72A      0.725711    73A      0.747399  
      74A      0.752457    75A      0.762738    76A      0.786356  
      77A      0.801939    78A      0.829317    79A      0.851149  
      80A      0.872036    81A      0.892779    82A      0.918381  
      83A      0.928865    84A      0.945758    85A      0.962637  
      86A      0.973727    87A      0.981402    88A      1.011471  
      89A      1.037207    90A      1.038992    91A      1.069160  
      92A      1.099009    93A      1.107385    94A      1.122146  
      95A      1.124425    96A      1.142896    97A      1.149932  
      98A      1.162260    99A      1.168141   100A      1.181420  
     101A      1.186742   102A      1.195101   103A      1.199781  
     104A      1.208916   105A      1.221250   106A      1.222788  
     107A      1.233123   108A      1.237566   109A      1.250751  
     110A      1.257915   111A      1.273294   112A      1.286600  
     113A      1.301571   114A      1.311029   115A      1.328119  
     116A      1.338642   117A      1.423076   118A      1.461579  
     119A      1.509357   120A      1.607646   121A      1.656770  
     122A      1.694903   123A      1.710302   124A      1.739145  
     125A      1.762869   126A      1.767983   127A      1.828025  
     128A      1.859722   129A      1.869847   130A      1.934390  
     131A      1.963839   132A      2.015941   133A      2.041007  
     134A      2.092419   135A      2.109566   136A      2.124748  
     137A      2.149904   138A      2.178562   139A      2.198844  
     140A      2.212887   141A      2.233274   142A      2.249856  
     143A      2.279228   144A      2.299062   145A      2.304834  
     146A      2.322129   147A      2.341051   148A      2.375726  
     149A      2.387355   150A      2.405468   151A      2.435979  
     152A      2.492628   153A      2.531927   154A      2.561596  
     155A      2.617293   156A      2.639596   157A      2.658355  
     158A      2.677779   159A      2.700561   160A      2.723168  
     161A      2.726329   162A      2.731055   163A      2.765984  
     164A      2.775770   165A      2.810494   166A      2.827231  
     167A      2.907400   168A      2.934211   169A      2.963281  
     170A      2.985299   171A      3.030381   172A      3.081126  
     173A      3.138675   174A      3.226646   175A      3.415265  
     176A      3.431214   177A      4.474535   178A      4.535631  
     179A      4.593670   180A      4.645339   181A      4.735886  
     182A      4.814754   183A      4.851524   184A      4.933875  
     185A      4.967026   186A      5.020774  

    Final Occupation by Irrep:
              A 
    DOCC [    40 ]

  Energy converged.

  @DF-RHF Final Energy:  -426.15850041845624

   => Energetics <=

    Nuclear Repulsion Energy =            552.4548869597110752
    One-Electron Energy =               -1673.3313202726601503
    Two-Electron Energy =                 694.7179328944931740
    DFT Exchange-Correlation Energy =       0.0000000000000000
    Empirical Dispersion Energy =           0.0000000000000000
    PCM Polarization Energy =               0.0000000000000000
    EFP Energy =                            0.0000000000000000
    Total Energy =                       -426.1585004184559011

    Alert: EFP and PCM quantities not currently incorporated into SCF psivars.

Properties will be evaluated at   0.000000,   0.000000,   0.000000 Bohr
  ==> Properties <==


Properties computed using the SCF density matrix

  Nuclear Dipole Moment: (a.u.)
     X:    -2.4992      Y:     1.2701      Z:     0.4542

  Electronic Dipole Moment: (a.u.)
     X:     1.9376      Y:    -0.9931      Z:     0.3465

  Dipole Moment: (a.u.)
     X:    -0.5616      Y:     0.2770      Z:     0.8007     Total:     1.0165

  Dipole Moment: (Debye)
     X:    -1.4274      Y:     0.7040      Z:     2.0352     Total:     2.5836


  Saving occupied orbitals to File 180.

*** tstop() called on cx1-3-4-4.cx1.hpc.ic.ac.uk at Tue Jul  5 17:50:16 2016
Module time:
	user time   =      36.52 seconds =       0.61 minutes
	system time =       0.32 seconds =       0.01 minutes
	total time  =         37 seconds =       0.62 minutes
Total time:
	user time   =      36.52 seconds =       0.61 minutes
	system time =       0.32 seconds =       0.01 minutes
	total time  =         37 seconds =       0.62 minutes


Properties will be evaluated at   0.000000,   0.000000,   0.000000 Bohr

Properties computed using the  density matrix

  Nuclear Dipole Moment: (a.u.)
     X:    -2.4992      Y:     1.2701      Z:     0.4542

  Electronic Dipole Moment: (a.u.)
     X:     1.9376      Y:    -0.9931      Z:     0.3465

  Dipole Moment: (a.u.)
     X:    -0.5616      Y:     0.2770      Z:     0.8007     Total:     1.0165

  Dipole Moment: (Debye)
     X:    -1.4274      Y:     0.7040      Z:     2.0352     Total:     2.5836

  Quadrupole Moment: (Debye Ang)
    XX:   -65.4954     YY:   -65.6281     ZZ:   -65.4339
    XY:     0.4400     XZ:     0.9456     YZ:    -1.4758

  Traceless Quadrupole Moment: (Debye Ang)
    XX:     0.0238     YY:    -0.1090     ZZ:     0.0852
    XY:     0.4400     XZ:     0.9456     YZ:    -1.4758

  Mulliken Charges: (a.u.)
   Center  Symbol    Alpha    Beta     Spin     Total
       1     H     0.41644  0.41644  0.00000  0.16712
       2     C     3.24341  3.24341  0.00000 -0.48683
       3     C     3.15840  3.15840  0.00000 -0.31681
       4     H     0.42231  0.42231  0.00000  0.15539
       5     H     0.42636  0.42636  0.00000  0.14727
       6     C     3.15032  3.15032  0.00000 -0.30063
       7     H     0.41894  0.41894  0.00000  0.16212
       8     H     0.40940  0.40940  0.00000  0.18119
       9     C     3.21533  3.21533  0.00000 -0.43066
      10     H     0.40479  0.40479  0.00000  0.19042
      11     H     0.42133  0.42133  0.00000  0.15733
      12     C     2.73088  2.73088  0.00000  0.53823
      13     H     0.40341  0.40341  0.00000  0.19317
      14     H     0.40808  0.40808  0.00000  0.18384
      15     C     3.20976  3.20976  0.00000 -0.41951
      16     O     4.26998  4.26998  0.00000 -0.53995
      17     C     3.14740  3.14740  0.00000 -0.29480
      18     H     0.40421  0.40421  0.00000  0.19159
      19     H     0.41013  0.41013  0.00000  0.17974
      20     C     3.16685  3.16685  0.00000 -0.33369
      21     H     0.42071  0.42071  0.00000  0.15858
      22     H     0.41583  0.41583  0.00000  0.16834
      23     C     3.23856  3.23856  0.00000 -0.47713
      24     H     0.43203  0.43203  0.00000  0.13593
      25     H     0.38670  0.38670  0.00000  0.22660
      26     H     0.42668  0.42668  0.00000  0.14664
      27     H     0.42154  0.42154  0.00000  0.15691
      28     H     0.42021  0.42021  0.00000  0.15959

   Total alpha = 40.00000, Total beta = 40.00000, Total charge =  0.00000


*** PSI4 exiting successfully. Buy a developer a beer!
