    -----------------------------------------------------------------------
          Psi4: An Open-Source Ab Initio Electronic Structure Package
                              Psi4 (no tag) Driver

                          Git: Rev {detached?}  

    J. M. Turney, A. C. Simmonett, R. M. Parrish, E. G. Hohenstein,
    F. A. Evangelista, J. T. Fermann, B. J. Mintz, L. A. Burns, J. J. Wilke,
    M. L. Abrams, N. J. Russ, M. L. Leininger, C. L. Janssen, E. T. Seidl,
    W. D. Allen, H. F. Schaefer, R. A. King, E. F. Valeev, C. D. Sherrill,
    and T. D. Crawford, WIREs Comput. Mol. Sci. 2, 556-565 (2012)
    (doi: 10.1002/wcms.93)

                         Additional Contributions by
    A. E. DePrince, M. Saitow, U. Bozkaya, A. Yu. Sokolov
    -----------------------------------------------------------------------


    Psi4 started on: Tue Jul  5 16:37:20 2016

    Process ID:  23231
    PSI4DATADIR: /export131/home/mjharvey/miniconda3/share
    Memory level set to 256.000 MB

  ==> Input File <==

--------------------------------------------------------------------------
set {
	reference rhf
	basis 6-31G*
}


set_num_threads( 1 )
memory 2 gb

molecule MOL {
0 1

H	 -2.258317	 -0.920211	 0.781428
O	 -2.347518	 -0.290803	 0.079804
C	 -1.184022	 0.487508	 -0.006784
C	 0.062599	 -0.378592	 0.031606
H	 -1.176523	 1.099369	 -0.904519
H	 -1.187323	 1.153111	 0.844927
O	 -0.043959	 -1.331029	 -0.978982
H	 0.152937	 -0.862108	 1.006301
H	 0.944499	 0.244194	 -0.106143
C	 1.071181	 -1.420142	 -1.808236
H	 1.962294	 -1.697540	 -1.248237
H	 0.869310	 -2.184014	 -2.546241
H	 1.263205	 -0.478378	 -2.318136

	symmetry c1
}
set optking {
	frozen_dihedral = ("
		8 4 3 5,
		1 2 3 5,
		4 7 10 13
	")
}

ee = energy('scf')
oeprop('DIPOLE', 'QUADRUPOLE', 'MULLIKEN_CHARGES')
f=open( 'psi4out.xyz', 'w' )
f.write( "13  " )
f.write( str(ee) + "\n" )
f.write( MOL.save_string_xyz() )
f.close()
--------------------------------------------------------------------------

  Memory set to   2.000 GiB by Python script.

*** tstart() called on cx1-49-4-2.cx1.hpc.ic.ac.uk
*** at Tue Jul  5 16:37:20 2016


         ---------------------------------------------------------
                                   SCF
            by Justin Turney, Rob Parrish, and Andy Simmonett
                              RHF Reference
                        1 Threads,   2000 MiB Core
         ---------------------------------------------------------

  ==> Geometry <==

    Molecular point group: c1
    Full point group: C1

    Geometry (in Angstrom), charge = 0, multiplicity = 1:

       Center              X                  Y                   Z               Mass       
    ------------   -----------------  -----------------  -----------------  -----------------
           H         -1.754982237737    -0.323913413915     1.311443975171     1.007825032070
           O         -1.844183237737     0.305494586085     0.609819975171    15.994914619560
           C         -0.680687237737     1.083805586085     0.523231975171    12.000000000000
           C          0.565933762263     0.217705586085     0.561621975171    12.000000000000
           H         -0.673188237737     1.695666586085    -0.374503024829     1.007825032070
           H         -0.683988237737     1.749408586085     1.374942975171     1.007825032070
           O          0.459375762263    -0.734731413915    -0.448966024829    15.994914619560
           H          0.656271762263    -0.265810413915     1.536316975171     1.007825032070
           H          1.447833762263     0.840491586085     0.423872975171     1.007825032070
           C          1.574515762263    -0.823844413915    -1.278220024829    12.000000000000
           H          2.465628762263    -1.101242413915    -0.718221024829     1.007825032070
           H          1.372644762263    -1.587716413915    -2.016225024829     1.007825032070
           H          1.766539762263     0.117919586085    -1.788120024829     1.007825032070

  Running in c1 symmetry.

  Rotational constants: A =      0.43534  B =      0.09309  C =      0.08567 [cm^-1]
  Rotational constants: A =  13051.17547  B =   2790.89726  C =   2568.33304 [MHz]
  Nuclear repulsion =  194.783245116982982

  Charge       = 0
  Multiplicity = 1
  Electrons    = 42
  Nalpha       = 21
  Nbeta        = 21

  ==> Algorithm <==

  SCF Algorithm Type is DF.
  DIIS enabled.
  MOM disabled.
  Fractional occupation disabled.
  Guess Type is CORE.
  Energy threshold   = 1.00e-06
  Density threshold  = 1.00e-06
  Integral threshold = 0.00e+00

  ==> Primary Basis <==

  Basis Set: 6-31G*
    Number of shells: 46
    Number of basis function: 91
    Number of Cartesian functions: 91
    Spherical Harmonics?: false
    Max angular momentum: 2

  ==> Pre-Iterations <==

   -------------------------------------------------------
    Irrep   Nso     Nmo     Nalpha   Nbeta   Ndocc  Nsocc
   -------------------------------------------------------
     A         91      91       0       0       0       0
   -------------------------------------------------------
    Total      91      91      21      21      21       0
   -------------------------------------------------------

 OEINTS: Overlap, kinetic, potential, dipole, and quadrupole integrals
         stored in file 35.

  ==> Integral Setup <==

  ==> DFJK: Density-Fitted J/K Matrices <==

    J tasked:                  Yes
    K tasked:                  Yes
    wK tasked:                  No
    OpenMP threads:              1
    Integrals threads:           1
    Memory (MB):              1430
    Algorithm:                Core
    Integral Cache:           NONE
    Schwarz Cutoff:          1E-12
    Fitting Condition:       1E-12

   => Auxiliary Basis Set <=

  Basis Set: 
    Number of shells: 192
    Number of basis function: 605
    Number of Cartesian functions: 605
    Spherical Harmonics?: false
    Max angular momentum: 3

  Minimum eigenvalue in the overlap matrix is 4.8652006058E-03.
  Using Symmetric Orthogonalization.
  SCF Guess: Core (One-Electron) Hamiltonian.

  ==> Iterations <==

                           Total Energy        Delta E     RMS |[F,P]|

   @DF-RHF iter   1:  -223.65970381064750   -2.23660e+02   7.94083e-02 
   @DF-RHF iter   2:  -167.42689674888578    5.62328e+01   6.66843e-02 DIIS
   @DF-RHF iter   3:  -230.35722393403211   -6.29303e+01   6.99974e-02 DIIS
   @DF-RHF iter   4:  -252.61161044882391   -2.22544e+01   3.77572e-02 DIIS
   @DF-RHF iter   5:  -267.12204793252909   -1.45104e+01   1.40906e-02 DIIS
   @DF-RHF iter   6:  -267.90298733442035   -7.80939e-01   3.25559e-03 DIIS
   @DF-RHF iter   7:  -267.93820596084169   -3.52186e-02   8.70780e-04 DIIS
   @DF-RHF iter   8:  -267.94095134940932   -2.74539e-03   2.72034e-04 DIIS
   @DF-RHF iter   9:  -267.94126306227940   -3.11713e-04   1.04038e-04 DIIS
   @DF-RHF iter  10:  -267.94130326162247   -4.01993e-05   6.58738e-05 DIIS
   @DF-RHF iter  11:  -267.94131889139447   -1.56298e-05   3.38289e-05 DIIS
   @DF-RHF iter  12:  -267.94132440778986   -5.51640e-06   8.09916e-06 DIIS
   @DF-RHF iter  13:  -267.94132475178020   -3.43990e-07   2.65650e-06 DIIS
   @DF-RHF iter  14:  -267.94132479286867   -4.10885e-08   4.37080e-07 DIIS

  ==> Post-Iterations <==

    Orbital Energies (a.u.)
    -----------------------

    Doubly Occupied:                                                      

       1A    -20.557983     2A    -20.548159     3A    -11.275773  
       4A    -11.269876     5A    -11.268874     6A     -1.389361  
       7A     -1.352551     8A     -1.017905     9A     -0.921449  
      10A     -0.838531    11A     -0.691601    12A     -0.674221  
      13A     -0.670484    14A     -0.626332    15A     -0.607170  
      16A     -0.574554    17A     -0.531955    18A     -0.497465  
      19A     -0.473954    20A     -0.441233    21A     -0.409193  

    Virtual:                                                              

      22A      0.222891    23A      0.251482    24A      0.280666  
      25A      0.295156    26A      0.312405    27A      0.317071  
      28A      0.327751    29A      0.330463    30A      0.349721  
      31A      0.410163    32A      0.439207    33A      0.451586  
      34A      0.733282    35A      0.772234    36A      0.787060  
      37A      0.811485    38A      0.832259    39A      0.839629  
      40A      0.850697    41A      0.910091    42A      0.986499  
      43A      1.062777    44A      1.091393    45A      1.122822  
      46A      1.132536    47A      1.154172    48A      1.160434  
      49A      1.176598    50A      1.213588    51A      1.227638  
      52A      1.242445    53A      1.269519    54A      1.329984  
      55A      1.359239    56A      1.411591    57A      1.451554  
      58A      1.599733    59A      1.647402    60A      1.701385  
      61A      1.730373    62A      1.782853    63A      1.859705  
      64A      1.880386    65A      1.997638    66A      2.063921  
      67A      2.135038    68A      2.211184    69A      2.276928  
      70A      2.403869    71A      2.411796    72A      2.430300  
      73A      2.450079    74A      2.504498    75A      2.530218  
      76A      2.570333    77A      2.655084    78A      2.740455  
      79A      2.786013    80A      2.823665    81A      2.863248  
      82A      2.915406    83A      3.031122    84A      3.179519  
      85A      3.205379    86A      3.323999    87A      4.181510  
      88A      4.365543    89A      4.628583    90A      4.686838  
      91A      4.866891  

    Final Occupation by Irrep:
              A 
    DOCC [    21 ]

  Energy converged.

  @DF-RHF Final Energy:  -267.94132479286867

   => Energetics <=

    Nuclear Repulsion Energy =            194.7832451169829824
    One-Electron Energy =                -752.1719237587755060
    Two-Electron Energy =                 289.4473538489252178
    DFT Exchange-Correlation Energy =       0.0000000000000000
    Empirical Dispersion Energy =           0.0000000000000000
    PCM Polarization Energy =               0.0000000000000000
    EFP Energy =                            0.0000000000000000
    Total Energy =                       -267.9413247928672490

    Alert: EFP and PCM quantities not currently incorporated into SCF psivars.

Properties will be evaluated at   0.000000,   0.000000,   0.000000 Bohr
  ==> Properties <==


Properties computed using the SCF density matrix

  Nuclear Dipole Moment: (a.u.)
     X:     4.3027      Y:     1.0524      Z:    -0.2341

  Electronic Dipole Moment: (a.u.)
     X:    -3.2253      Y:    -0.8307      Z:     0.6422

  Dipole Moment: (a.u.)
     X:     1.0773      Y:     0.2217      Z:     0.4082     Total:     1.1732

  Dipole Moment: (Debye)
     X:     2.7383      Y:     0.5635      Z:     1.0374     Total:     2.9820


  Saving occupied orbitals to File 180.

*** tstop() called on cx1-49-4-2.cx1.hpc.ic.ac.uk at Tue Jul  5 16:37:25 2016
Module time:
	user time   =       4.69 seconds =       0.08 minutes
	system time =       0.05 seconds =       0.00 minutes
	total time  =          5 seconds =       0.08 minutes
Total time:
	user time   =       4.69 seconds =       0.08 minutes
	system time =       0.05 seconds =       0.00 minutes
	total time  =          5 seconds =       0.08 minutes


Properties will be evaluated at   0.000000,   0.000000,   0.000000 Bohr

Properties computed using the  density matrix

  Nuclear Dipole Moment: (a.u.)
     X:     4.3027      Y:     1.0524      Z:    -0.2341

  Electronic Dipole Moment: (a.u.)
     X:    -3.2253      Y:    -0.8307      Z:     0.6422

  Dipole Moment: (a.u.)
     X:     1.0773      Y:     0.2217      Z:     0.4082     Total:     1.1732

  Dipole Moment: (Debye)
     X:     2.7383      Y:     0.5635      Z:     1.0374     Total:     2.9820

  Quadrupole Moment: (Debye Ang)
    XX:   -34.1933     YY:   -30.7996     ZZ:   -27.4407
    XY:     1.0675     XZ:    -2.7542     YZ:    -0.6353

  Traceless Quadrupole Moment: (Debye Ang)
    XX:    -3.3821     YY:     0.0116     ZZ:     3.3705
    XY:     1.0675     XZ:    -2.7542     YZ:    -0.6353

  Mulliken Charges: (a.u.)
   Center  Symbol    Alpha    Beta     Spin     Total
       1     H     0.28100  0.28100  0.00000  0.43799
       2     O     4.36532  4.36532  0.00000 -0.73064
       3     C     2.98870  2.98870  0.00000  0.02261
       4     C     3.01661  3.01661  0.00000 -0.03321
       5     H     0.41443  0.41443  0.00000  0.17114
       6     H     0.43237  0.43237  0.00000  0.13527
       7     O     4.29574  4.29574  0.00000 -0.59148
       8     H     0.42785  0.42785  0.00000  0.14430
       9     H     0.42724  0.42724  0.00000  0.14552
      10     C     3.08161  3.08161  0.00000 -0.16322
      11     H     0.42958  0.42958  0.00000  0.14085
      12     H     0.41011  0.41011  0.00000  0.17979
      13     H     0.42945  0.42945  0.00000  0.14110

   Total alpha = 21.00000, Total beta = 21.00000, Total charge = -0.00000


*** PSI4 exiting successfully. Buy a developer a beer!
