    -----------------------------------------------------------------------
          Psi4: An Open-Source Ab Initio Electronic Structure Package
                              Psi4 (no tag) Driver

                          Git: Rev {detached?}  

    J. M. Turney, A. C. Simmonett, R. M. Parrish, E. G. Hohenstein,
    F. A. Evangelista, J. T. Fermann, B. J. Mintz, L. A. Burns, J. J. Wilke,
    M. L. Abrams, N. J. Russ, M. L. Leininger, C. L. Janssen, E. T. Seidl,
    W. D. Allen, H. F. Schaefer, R. A. King, E. F. Valeev, C. D. Sherrill,
    and T. D. Crawford, WIREs Comput. Mol. Sci. 2, 556-565 (2012)
    (doi: 10.1002/wcms.93)

                         Additional Contributions by
    A. E. DePrince, M. Saitow, U. Bozkaya, A. Yu. Sokolov
    -----------------------------------------------------------------------


    Psi4 started on: Tue Jul  5 16:24:12 2016

    Process ID:  26435
    PSI4DATADIR: /export131/home/mjharvey/miniconda3/share
    Memory level set to 256.000 MB

  ==> Input File <==

--------------------------------------------------------------------------
set {
	reference rhf
	basis 6-31G*
}


set_num_threads( 1 )
memory 2 gb

molecule MOL {
0 1

H	 -0.216825	 0.021369	 -3.357402
C	 0.374198	 0.036393	 -2.447010
C	 -0.521757	 -0.028637	 -1.217342
H	 0.969602	 0.942322	 -2.434777
H	 1.053364	 -0.811668	 -2.481329
N	 0.263400	 0.031178	 0.000000
H	 -1.199035	 0.820290	 -1.219355
H	 -1.147901	 -0.924895	 -1.265384
C	 -0.521757	 -0.028637	 1.217342
H	 0.935769	 -0.712709	 0.000000
C	 -2.006973	 -0.146470	 0.902226
H	 -0.201696	 -0.901917	 1.777994
H	 -0.350798	 0.836020	 1.866021
H	 -2.197304	 -1.024584	 0.295552
H	 -2.591100	 -0.220964	 1.814143
H	 -2.360805	 0.723396	 0.354697

	symmetry c1
}
ee = energy('scf')
oeprop('DIPOLE', 'QUADRUPOLE', 'MULLIKEN_CHARGES')
f=open( 'psi4out.xyz', 'w' )
f.write( "16  " )
f.write( str(ee) + "\n" )
f.write( MOL.save_string_xyz() )
f.close()
--------------------------------------------------------------------------

  Memory set to   2.000 GiB by Python script.

*** tstart() called on cx1-3-1-3.cx1.hpc.ic.ac.uk
*** at Tue Jul  5 16:24:13 2016


         ---------------------------------------------------------
                                   SCF
            by Justin Turney, Rob Parrish, and Andy Simmonett
                              RHF Reference
                        1 Threads,   2000 MiB Core
         ---------------------------------------------------------

  ==> Geometry <==

    Molecular point group: c1
    Full point group: C1

    Geometry (in Angstrom), charge = 0, multiplicity = 1:

       Center              X                  Y                   Z               Mass       
    ------------   -----------------  -----------------  -----------------  -----------------
           H          0.272864140050     0.060154122132    -3.039658075611     1.007825032070
           C          0.863887140050     0.075178122132    -2.129266075611    12.000000000000
           C         -0.032067859950     0.010148122132    -0.899598075611    12.000000000000
           H          1.459291140050     0.981107122132    -2.117033075611     1.007825032070
           H          1.543053140050    -0.772882877868    -2.163585075611     1.007825032070
           N          0.753089140050     0.069963122132     0.317743924389    14.003074004780
           H         -0.709345859950     0.859075122132    -0.901611075611     1.007825032070
           H         -0.658211859950    -0.886109877868    -0.947640075611     1.007825032070
           C         -0.032067859950     0.010148122132     1.535085924389    12.000000000000
           H          1.425458140050    -0.673923877868     0.317743924389     1.007825032070
           C         -1.517283859950    -0.107684877868     1.219969924389    12.000000000000
           H          0.287993140050    -0.863131877868     2.095737924389     1.007825032070
           H          0.138891140050     0.874805122132     2.183764924389     1.007825032070
           H         -1.707614859950    -0.985798877868     0.613295924389     1.007825032070
           H         -2.101410859950    -0.182178877868     2.131886924389     1.007825032070
           H         -1.871115859950     0.762181122132     0.672440924389     1.007825032070

  Running in c1 symmetry.

  Rotational constants: A =      0.37874  B =      0.09413  C =      0.08025 [cm^-1]
  Rotational constants: A =  11354.35544  B =   2821.91259  C =   2405.73400 [MHz]
  Nuclear repulsion =  194.893054386377742

  Charge       = 0
  Multiplicity = 1
  Electrons    = 42
  Nalpha       = 21
  Nbeta        = 21

  ==> Algorithm <==

  SCF Algorithm Type is DF.
  DIIS enabled.
  MOM disabled.
  Fractional occupation disabled.
  Guess Type is CORE.
  Energy threshold   = 1.00e-06
  Density threshold  = 1.00e-06
  Integral threshold = 0.00e+00

  ==> Primary Basis <==

  Basis Set: 6-31G*
    Number of shells: 52
    Number of basis function: 97
    Number of Cartesian functions: 97
    Spherical Harmonics?: false
    Max angular momentum: 2

  ==> Pre-Iterations <==

   -------------------------------------------------------
    Irrep   Nso     Nmo     Nalpha   Nbeta   Ndocc  Nsocc
   -------------------------------------------------------
     A         97      97       0       0       0       0
   -------------------------------------------------------
    Total      97      97      21      21      21       0
   -------------------------------------------------------

 OEINTS: Overlap, kinetic, potential, dipole, and quadrupole integrals
         stored in file 35.

  ==> Integral Setup <==

  ==> DFJK: Density-Fitted J/K Matrices <==

    J tasked:                  Yes
    K tasked:                  Yes
    wK tasked:                  No
    OpenMP threads:              1
    Integrals threads:           1
    Memory (MB):              1430
    Algorithm:                Core
    Integral Cache:           NONE
    Schwarz Cutoff:          1E-12
    Fitting Condition:       1E-12

   => Auxiliary Basis Set <=

  Basis Set: 
    Number of shells: 219
    Number of basis function: 680
    Number of Cartesian functions: 680
    Spherical Harmonics?: false
    Max angular momentum: 3

  Minimum eigenvalue in the overlap matrix is 3.4558583309E-03.
  Using Symmetric Orthogonalization.
  SCF Guess: Core (One-Electron) Hamiltonian.

  ==> Iterations <==

                           Total Energy        Delta E     RMS |[F,P]|

   @DF-RHF iter   1:  -162.85553658469826   -1.62856e+02   7.78593e-02 
   @DF-RHF iter   2:  -125.42067358649854    3.74349e+01   7.18972e-02 DIIS
   @DF-RHF iter   3:  -180.31897610232835   -5.48983e+01   4.66883e-02 DIIS
   @DF-RHF iter   4:  -180.08119749255690    2.37779e-01   5.82783e-02 DIIS
   @DF-RHF iter   5:  -212.19873167846953   -3.21175e+01   4.05184e-03 DIIS
   @DF-RHF iter   6:  -212.28146385757043   -8.27322e-02   1.46481e-03 DIIS
   @DF-RHF iter   7:  -212.29043431422468   -8.97046e-03   5.49748e-04 DIIS
   @DF-RHF iter   8:  -212.29208380542997   -1.64949e-03   1.81674e-04 DIIS
   @DF-RHF iter   9:  -212.29227672321508   -1.92918e-04   8.02693e-05 DIIS
   @DF-RHF iter  10:  -212.29231517499102   -3.84518e-05   3.31654e-05 DIIS
   @DF-RHF iter  11:  -212.29232173164661   -6.55666e-06   9.73114e-06 DIIS
   @DF-RHF iter  12:  -212.29232232914285   -5.97496e-07   2.60557e-06 DIIS
   @DF-RHF iter  13:  -212.29232238938499   -6.02421e-08   5.36739e-07 DIIS

  ==> Post-Iterations <==

    Orbital Energies (a.u.)
    -----------------------

    Doubly Occupied:                                                      

       1A    -15.530542     2A    -11.240364     3A    -11.237901  
       4A    -11.207827     5A    -11.206090     6A     -1.207267  
       7A     -1.020179     8A     -0.970759     9A     -0.860158  
      10A     -0.787358    11A     -0.668756    12A     -0.636290  
      13A     -0.601599    14A     -0.591911    15A     -0.539174  
      16A     -0.524948    17A     -0.504509    18A     -0.495828  
      19A     -0.486201    20A     -0.469745    21A     -0.349754  

    Virtual:                                                              

      22A      0.224617    23A      0.252825    24A      0.264443  
      25A      0.285120    26A      0.313253    27A      0.317050  
      28A      0.330755    29A      0.335002    30A      0.352366  
      31A      0.371141    32A      0.390127    33A      0.419310  
      34A      0.434323    35A      0.465246    36A      0.491138  
      37A      0.716412    38A      0.737292    39A      0.740739  
      40A      0.744834    41A      0.775146    42A      0.867775  
      43A      0.877310    44A      0.885627    45A      0.938039  
      46A      0.957541    47A      0.980350    48A      1.052776  
      49A      1.116552    50A      1.126249    51A      1.164986  
      52A      1.168067    53A      1.174814    54A      1.198622  
      55A      1.201033    56A      1.206878    57A      1.227288  
      58A      1.231466    59A      1.250040    60A      1.269050  
      61A      1.289335    62A      1.336774    63A      1.364520  
      64A      1.578762    65A      1.658012    66A      1.682851  
      67A      1.731287    68A      1.772888    69A      1.884306  
      70A      2.012604    71A      2.078646    72A      2.182412  
      73A      2.213876    74A      2.222978    75A      2.274627  
      76A      2.312349    77A      2.350022    78A      2.441576  
      79A      2.467847    80A      2.533696    81A      2.537092  
      82A      2.626354    83A      2.640653    84A      2.665574  
      85A      2.684187    86A      2.784485    87A      2.786731  
      88A      2.839634    89A      2.950659    90A      3.018709  
      91A      3.160315    92A      3.227995    93A      4.388024  
      94A      4.631799    95A      4.659668    96A      4.826864  
      97A      4.961616  

    Final Occupation by Irrep:
              A 
    DOCC [    21 ]

  Energy converged.

  @DF-RHF Final Energy:  -212.29232238938499

   => Energetics <=

    Nuclear Repulsion Energy =            194.8930543863777416
    One-Electron Energy =                -672.0963966818987956
    Two-Electron Energy =                 264.9110199061360618
    DFT Exchange-Correlation Energy =       0.0000000000000000
    Empirical Dispersion Energy =           0.0000000000000000
    PCM Polarization Energy =               0.0000000000000000
    EFP Energy =                            0.0000000000000000
    Total Energy =                       -212.2923223893849922

    Alert: EFP and PCM quantities not currently incorporated into SCF psivars.

Properties will be evaluated at   0.000000,   0.000000,   0.000000 Bohr
  ==> Properties <==


Properties computed using the SCF density matrix

  Nuclear Dipole Moment: (a.u.)
     X:    -1.8023      Y:    -0.7752      Z:    -1.0834

  Electronic Dipole Moment: (a.u.)
     X:     1.5861      Y:     0.3406      Z:     1.0894

  Dipole Moment: (a.u.)
     X:    -0.2162      Y:    -0.4346      Z:     0.0060     Total:     0.4855

  Dipole Moment: (Debye)
     X:    -0.5496      Y:    -1.1047      Z:     0.0153     Total:     1.2340


  Saving occupied orbitals to File 180.

*** tstop() called on cx1-3-1-3.cx1.hpc.ic.ac.uk at Tue Jul  5 16:24:18 2016
Module time:
	user time   =       5.07 seconds =       0.08 minutes
	system time =       0.03 seconds =       0.00 minutes
	total time  =          5 seconds =       0.08 minutes
Total time:
	user time   =       5.07 seconds =       0.08 minutes
	system time =       0.03 seconds =       0.00 minutes
	total time  =          5 seconds =       0.08 minutes


Properties will be evaluated at   0.000000,   0.000000,   0.000000 Bohr

Properties computed using the  density matrix

  Nuclear Dipole Moment: (a.u.)
     X:    -1.8023      Y:    -0.7752      Z:    -1.0834

  Electronic Dipole Moment: (a.u.)
     X:     1.5861      Y:     0.3406      Z:     1.0894

  Dipole Moment: (a.u.)
     X:    -0.2162      Y:    -0.4346      Z:     0.0060     Total:     0.4855

  Dipole Moment: (Debye)
     X:    -0.5496      Y:    -1.1047      Z:     0.0153     Total:     1.2340

  Quadrupole Moment: (Debye Ang)
    XX:   -34.9545     YY:   -34.0159     ZZ:   -33.6269
    XY:    -2.2543     XZ:     0.1004     YZ:    -0.5937

  Traceless Quadrupole Moment: (Debye Ang)
    XX:    -0.7554     YY:     0.1832     ZZ:     0.5722
    XY:    -2.2543     XZ:     0.1004     YZ:    -0.5937

  Mulliken Charges: (a.u.)
   Center  Symbol    Alpha    Beta     Spin     Total
       1     H     0.42125  0.42125  0.00000  0.15749
       2     C     3.23798  3.23798  0.00000 -0.47595
       3     C     3.06030  3.06030  0.00000 -0.12059
       4     H     0.41268  0.41268  0.00000  0.17464
       5     H     0.42608  0.42608  0.00000  0.14784
       6     N     3.85428  3.85428  0.00000 -0.70856
       7     H     0.41785  0.41785  0.00000  0.16429
       8     H     0.43354  0.43354  0.00000  0.13293
       9     C     3.04442  3.04442  0.00000 -0.08884
      10     H     0.33286  0.33286  0.00000  0.33428
      11     C     3.25964  3.25964  0.00000 -0.51927
      12     H     0.42841  0.42841  0.00000  0.14319
      13     H     0.42143  0.42143  0.00000  0.15714
      14     H     0.41741  0.41741  0.00000  0.16518
      15     H     0.41595  0.41595  0.00000  0.16811
      16     H     0.41593  0.41593  0.00000  0.16813

   Total alpha = 21.00000, Total beta = 21.00000, Total charge =  0.00000


*** PSI4 exiting successfully. Buy a developer a beer!
