    -----------------------------------------------------------------------
          Psi4: An Open-Source Ab Initio Electronic Structure Package
                              Psi4 (no tag) Driver

                          Git: Rev {detached?}  

    J. M. Turney, A. C. Simmonett, R. M. Parrish, E. G. Hohenstein,
    F. A. Evangelista, J. T. Fermann, B. J. Mintz, L. A. Burns, J. J. Wilke,
    M. L. Abrams, N. J. Russ, M. L. Leininger, C. L. Janssen, E. T. Seidl,
    W. D. Allen, H. F. Schaefer, R. A. King, E. F. Valeev, C. D. Sherrill,
    and T. D. Crawford, WIREs Comput. Mol. Sci. 2, 556-565 (2012)
    (doi: 10.1002/wcms.93)

                         Additional Contributions by
    A. E. DePrince, M. Saitow, U. Bozkaya, A. Yu. Sokolov
    -----------------------------------------------------------------------


    Psi4 started on: Tue Jul  5 17:04:01 2016

    Process ID:  16899
    PSI4DATADIR: /export131/home/mjharvey/miniconda3/share
    Memory level set to 256.000 MB

  ==> Input File <==

--------------------------------------------------------------------------
set {
	reference rhf
	basis 6-31G*
}


set_num_threads( 1 )
memory 2 gb

molecule MOL {
0 1

H	 -2.646374	 -0.642757	 1.268656
C	 -2.083525	 -0.384536	 0.393091
O	 -0.807605	 -0.127164	 0.768327
F	 -2.118945	 -1.383102	 -0.486752
F	 -2.621877	 0.670592	 -0.209486
C	 0.084052	 0.273579	 -0.209957
C	 1.434196	 0.462625	 0.469405
Cl	 -0.448614	 1.782223	 -0.969876
H	 0.196587	 -0.461595	 -0.987535
F	 1.399677	 1.498923	 1.279981
F	 2.345081	 0.695808	 -0.454365
F	 1.796917	 -0.595699	 1.152310

	symmetry c1
}
set optking {
	frozen_dihedral = ("
		10 7 6 9,
		6 3 2 4
	")
}

ee = energy('scf')
oeprop('DIPOLE', 'QUADRUPOLE', 'MULLIKEN_CHARGES')
f=open( 'psi4out.xyz', 'w' )
f.write( "12  " )
f.write( str(ee) + "\n" )
f.write( MOL.save_string_xyz() )
f.close()
--------------------------------------------------------------------------

  Memory set to   2.000 GiB by Python script.

*** tstart() called on cx1-3-4-4.cx1.hpc.ic.ac.uk
*** at Tue Jul  5 17:04:01 2016


         ---------------------------------------------------------
                                   SCF
            by Justin Turney, Rob Parrish, and Andy Simmonett
                              RHF Reference
                        1 Threads,   2000 MiB Core
         ---------------------------------------------------------

  ==> Geometry <==

    Molecular point group: c1
    Full point group: C1

    Geometry (in Angstrom), charge = 0, multiplicity = 1:

       Center              X                  Y                   Z               Mass       
    ------------   -----------------  -----------------  -----------------  -----------------
           H         -2.523298140264    -1.078899935475     1.209746375783     1.007825032070
           C         -1.960449140264    -0.820678935475     0.334181375783    12.000000000000
           O         -0.684529140264    -0.563306935475     0.709417375783    15.994914619560
           F         -1.995869140264    -1.819244935475    -0.545661624217    18.998403224000
           F         -2.498801140264     0.234449064525    -0.268395624217    18.998403224000
           C          0.207127859736    -0.162563935475    -0.268866624217    12.000000000000
           C          1.557271859736     0.026482064525     0.410495375783    12.000000000000
          CL         -0.325538140264     1.346080064525    -1.028785624217    34.968852682000
           H          0.319662859736    -0.897737935475    -1.046444624217     1.007825032070
           F          1.522752859736     1.062780064525     1.221071375783    18.998403224000
           F          2.468156859736     0.259665064525    -0.513274624217    18.998403224000
           F          1.919992859736    -1.031841935475     1.093400375783    18.998403224000

  Running in c1 symmetry.

  Rotational constants: A =      0.06215  B =      0.02729  C =      0.02255 [cm^-1]
  Rotational constants: A =   1863.13538  B =    818.11432  C =    676.09168 [MHz]
  Nuclear repulsion =  744.396379188457331

  Charge       = 0
  Multiplicity = 1
  Electrons    = 90
  Nalpha       = 45
  Nbeta        = 45

  ==> Algorithm <==

  SCF Algorithm Type is DF.
  DIIS enabled.
  MOM disabled.
  Fractional occupation disabled.
  Guess Type is CORE.
  Energy threshold   = 1.00e-06
  Density threshold  = 1.00e-06
  Integral threshold = 0.00e+00

  ==> Primary Basis <==

  Basis Set: 6-31G*
    Number of shells: 66
    Number of basis function: 158
    Number of Cartesian functions: 158
    Spherical Harmonics?: false
    Max angular momentum: 2

  ==> Pre-Iterations <==

   -------------------------------------------------------
    Irrep   Nso     Nmo     Nalpha   Nbeta   Ndocc  Nsocc
   -------------------------------------------------------
     A        158     158       0       0       0       0
   -------------------------------------------------------
    Total     158     158      45      45      45       0
   -------------------------------------------------------

 OEINTS: Overlap, kinetic, potential, dipole, and quadrupole integrals
         stored in file 35.

  ==> Integral Setup <==

  ==> DFJK: Density-Fitted J/K Matrices <==

    J tasked:                  Yes
    K tasked:                  Yes
    wK tasked:                  No
    OpenMP threads:              1
    Integrals threads:           1
    Memory (MB):              1430
    Algorithm:                Core
    Integral Cache:           NONE
    Schwarz Cutoff:          1E-12
    Fitting Condition:       1E-12

   => Auxiliary Basis Set <=

  Basis Set: 
    Number of shells: 270
    Number of basis function: 909
    Number of Cartesian functions: 909
    Spherical Harmonics?: false
    Max angular momentum: 3

  Minimum eigenvalue in the overlap matrix is 1.4656560641E-03.
  Using Symmetric Orthogonalization.
  SCF Guess: Core (One-Electron) Hamiltonian.

  ==> Iterations <==

                           Total Energy        Delta E     RMS |[F,P]|

   @DF-RHF iter   1: -1056.77873419995967   -1.05678e+03   6.70445e-02 
   @DF-RHF iter   2:  -820.46009811376484    2.36319e+02   8.27006e-02 DIIS
   @DF-RHF iter   3:  -962.35846455327487   -1.41898e+02   6.80047e-02 DIIS
   @DF-RHF iter   4: -1045.46635788200570   -8.31079e+01   5.80063e-02 DIIS
   @DF-RHF iter   5: -1134.49729120322422   -8.90309e+01   2.64566e-02 DIIS
   @DF-RHF iter   6: -1137.56676053215574   -3.06947e+00   2.09510e-02 DIIS
   @DF-RHF iter   7: -1145.81526351393063   -8.24850e+00   7.32838e-03 DIIS
   @DF-RHF iter   8: -1146.25183440440765   -4.36571e-01   2.14418e-03 DIIS
   @DF-RHF iter   9: -1146.28455358966607   -3.27192e-02   1.23331e-03 DIIS
   @DF-RHF iter  10: -1146.29928956604795   -1.47360e-02   3.19688e-04 DIIS
   @DF-RHF iter  11: -1146.30040723546745   -1.11767e-03   1.39173e-04 DIIS
   @DF-RHF iter  12: -1146.30064917274854   -2.41937e-04   5.75860e-05 DIIS
   @DF-RHF iter  13: -1146.30069432172354   -4.51490e-05   1.55610e-05 DIIS
   @DF-RHF iter  14: -1146.30069766394013   -3.34222e-06   4.28837e-06 DIIS
   @DF-RHF iter  15: -1146.30069804978007   -3.85840e-07   1.14565e-06 DIIS
   @DF-RHF iter  16: -1146.30069808405710   -3.42770e-08   2.83621e-07 DIIS

  ==> Post-Iterations <==

    Orbital Energies (a.u.)
    -----------------------

    Doubly Occupied:                                                      

       1A   -104.835533     2A    -26.363982     3A    -26.358416  
       4A    -26.353509     5A    -26.344422     6A    -26.337946  
       7A    -20.649399     8A    -11.528626     9A    -11.487344  
      10A    -11.398460    11A    -10.571127    12A     -8.040445  
      13A     -8.036852    14A     -8.036746    15A     -1.761167  
      16A     -1.714681    17A     -1.659813    18A     -1.653590  
      19A     -1.635156    20A     -1.485430    21A     -1.176964  
      22A     -1.053507    23A     -0.984139    24A     -0.918579  
      25A     -0.856647    26A     -0.851750    27A     -0.845926  
      28A     -0.813743    29A     -0.809197    30A     -0.789820  
      31A     -0.730784    32A     -0.725843    33A     -0.709925  
      34A     -0.694121    35A     -0.681310    36A     -0.673037  
      37A     -0.657710    38A     -0.655602    39A     -0.643740  
      40A     -0.636409    41A     -0.599170    42A     -0.568661  
      43A     -0.526080    44A     -0.467210    45A     -0.460585  

    Virtual:                                                              

      46A      0.175638    47A      0.245738    48A      0.259563  
      49A      0.279418    50A      0.355640    51A      0.359564  
      52A      0.405683    53A      0.427873    54A      0.447502  
      55A      0.457602    56A      0.488490    57A      0.564761  
      58A      0.627751    59A      0.638811    60A      0.664445  
      61A      0.677150    62A      0.695719    63A      0.706277  
      64A      0.740915    65A      0.759971    66A      0.776129  
      67A      0.784686    68A      0.865407    69A      0.925641  
      70A      0.963477    71A      1.032632    72A      1.058795  
      73A      1.060910    74A      1.124427    75A      1.145335  
      76A      1.184403    77A      1.227164    78A      1.256341  
      79A      1.280853    80A      1.308786    81A      1.316230  
      82A      1.320520    83A      1.372400    84A      1.392325  
      85A      1.423008    86A      1.459377    87A      1.477113  
      88A      1.511687    89A      1.548654    90A      1.597304  
      91A      1.618866    92A      1.625834    93A      1.636701  
      94A      1.642408    95A      1.658400    96A      1.658846  
      97A      1.662575    98A      1.674609    99A      1.704281  
     100A      1.738784   101A      1.791895   102A      1.815149  
     103A      1.924169   104A      1.941562   105A      1.960277  
     106A      1.978682   107A      2.012807   108A      2.042493  
     109A      2.092033   110A      2.095007   111A      2.107393  
     112A      2.118409   113A      2.129296   114A      2.140121  
     115A      2.143875   116A      2.226233   117A      2.278246  
     118A      2.306172   119A      2.312119   120A      2.344938  
     121A      2.348148   122A      2.379960   123A      2.397057  
     124A      2.399105   125A      2.425371   126A      2.443850  
     127A      2.474252   128A      2.497235   129A      2.550886  
     130A      2.572654   131A      2.666785   132A      2.703011  
     133A      2.706762   134A      2.791607   135A      2.859616  
     136A      2.920000   137A      3.003077   138A      3.018451  
     139A      3.116603   140A      3.161020   141A      3.187770  
     142A      3.311479   143A      3.315834   144A      3.407968  
     145A      3.412970   146A      3.421069   147A      3.469775  
     148A      3.490616   149A      4.365121   150A      4.555379  
     151A      4.600568   152A      4.699659   153A      4.744867  
     154A      4.900403   155A      4.968569   156A      5.265915  
     157A      5.621795   158A      6.045703  

    Final Occupation by Irrep:
              A 
    DOCC [    45 ]

  Energy converged.

  @DF-RHF Final Energy: -1146.30069808405710

   => Energetics <=

    Nuclear Repulsion Energy =            744.3963791884573311
    One-Electron Energy =               -3071.8280094526244284
    Two-Electron Energy =                1181.1309321801104488
    DFT Exchange-Correlation Energy =       0.0000000000000000
    Empirical Dispersion Energy =           0.0000000000000000
    PCM Polarization Energy =               0.0000000000000000
    EFP Energy =                            0.0000000000000000
    Total Energy =                      -1146.3006980840568758

    Alert: EFP and PCM quantities not currently incorporated into SCF psivars.

Properties will be evaluated at   0.000000,   0.000000,   0.000000 Bohr
  ==> Properties <==


Properties computed using the SCF density matrix

  Nuclear Dipole Moment: (a.u.)
     X:    -3.1071      Y:    -1.8671      Z:     0.1671

  Electronic Dipole Moment: (a.u.)
     X:     2.7045      Y:     1.2558      Z:    -0.0018

  Dipole Moment: (a.u.)
     X:    -0.4026      Y:    -0.6113      Z:     0.1653     Total:     0.7504

  Dipole Moment: (Debye)
     X:    -1.0234      Y:    -1.5538      Z:     0.4200     Total:     1.9074


  Saving occupied orbitals to File 180.

*** tstop() called on cx1-3-4-4.cx1.hpc.ic.ac.uk at Tue Jul  5 17:04:27 2016
Module time:
	user time   =      25.44 seconds =       0.42 minutes
	system time =       0.27 seconds =       0.00 minutes
	total time  =         26 seconds =       0.43 minutes
Total time:
	user time   =      25.44 seconds =       0.42 minutes
	system time =       0.27 seconds =       0.00 minutes
	total time  =         26 seconds =       0.43 minutes


Properties will be evaluated at   0.000000,   0.000000,   0.000000 Bohr

Properties computed using the  density matrix

  Nuclear Dipole Moment: (a.u.)
     X:    -3.1071      Y:    -1.8671      Z:     0.1671

  Electronic Dipole Moment: (a.u.)
     X:     2.7045      Y:     1.2558      Z:    -0.0018

  Dipole Moment: (a.u.)
     X:    -0.4026      Y:    -0.6113      Z:     0.1653     Total:     0.7504

  Dipole Moment: (Debye)
     X:    -1.0234      Y:    -1.5538      Z:     0.4200     Total:     1.9074

  Quadrupole Moment: (Debye Ang)
    XX:   -59.9418     YY:   -61.3711     ZZ:   -59.8626
    XY:     0.7415     XZ:    -4.5807     YZ:    -0.3801

  Traceless Quadrupole Moment: (Debye Ang)
    XX:     0.4500     YY:    -0.9793     ZZ:     0.5293
    XY:     0.7415     XZ:    -4.5807     YZ:    -0.3801

  Mulliken Charges: (a.u.)
   Center  Symbol    Alpha    Beta     Spin     Total
       1     H     0.40194  0.40194  0.00000  0.19613
       2     C     2.55282  2.55282  0.00000  0.89435
       3     O     4.30782  4.30782  0.00000 -0.61564
       4     F     4.68922  4.68922  0.00000 -0.37844
       5     F     4.68120  4.68120  0.00000 -0.36240
       6     C     3.04816  3.04816  0.00000 -0.09632
       7     C     2.43042  2.43042  0.00000  1.13917
       8    CL     8.49907  8.49907  0.00000  0.00186
       9     H     0.37028  0.37028  0.00000  0.25944
      10     F     4.67126  4.67126  0.00000 -0.34252
      11     F     4.67706  4.67706  0.00000 -0.35413
      12     F     4.67075  4.67075  0.00000 -0.34150

   Total alpha = 45.00000, Total beta = 45.00000, Total charge =  0.00000


*** PSI4 exiting successfully. Buy a developer a beer!
