    -----------------------------------------------------------------------
          Psi4: An Open-Source Ab Initio Electronic Structure Package
                              Psi4 (no tag) Driver

                          Git: Rev {detached?}  

    J. M. Turney, A. C. Simmonett, R. M. Parrish, E. G. Hohenstein,
    F. A. Evangelista, J. T. Fermann, B. J. Mintz, L. A. Burns, J. J. Wilke,
    M. L. Abrams, N. J. Russ, M. L. Leininger, C. L. Janssen, E. T. Seidl,
    W. D. Allen, H. F. Schaefer, R. A. King, E. F. Valeev, C. D. Sherrill,
    and T. D. Crawford, WIREs Comput. Mol. Sci. 2, 556-565 (2012)
    (doi: 10.1002/wcms.93)

                         Additional Contributions by
    A. E. DePrince, M. Saitow, U. Bozkaya, A. Yu. Sokolov
    -----------------------------------------------------------------------


    Psi4 started on: Tue Jul  5 16:54:45 2016

    Process ID:   1285
    PSI4DATADIR: /export131/home/mjharvey/miniconda3/share
    Memory level set to 256.000 MB

  ==> Input File <==

--------------------------------------------------------------------------
set {
	reference rhf
	basis 6-31G*
}


set_num_threads( 1 )
memory 2 gb

molecule MOL {
0 1

O	 1.147227	 1.407224	 -0.812524
C	 0.140502	 1.681556	 -1.381988
C	 -1.132561	 0.871331	 -1.354793
O	 0.004331	 2.765460	 -2.135371
C	 -1.412532	 0.227344	 -0.000452
H	 -1.943418	 1.530676	 -1.652331
H	 -1.057793	 0.122680	 -2.138812
C	 -2.706999	 -0.587347	 -0.000541
H	 -1.464140	 1.000268	 0.760093
H	 -0.576961	 -0.409417	 0.273154
C	 -3.956778	 0.291888	 0.000910
H	 -2.726114	 -1.239230	 -0.871609
H	 -2.725217	 -1.240844	 0.869333
H	 -3.985213	 0.933254	 -0.875158
H	 -4.860123	 -0.309979	 0.000519
H	 -3.984618	 0.931166	 0.878514
C	 1.130499	 3.616697	 -2.246191
H	 1.417197	 3.995878	 -1.275875
H	 0.825458	 4.427446	 -2.889298
H	 1.965712	 3.087204	 -2.681580

	symmetry c1
}
set optking {
	frozen_dihedral = ("
		9 5 8 12,
		9 5 3 6,
		1 2 4 17
	")
}

ee = energy('scf')
oeprop('DIPOLE', 'QUADRUPOLE', 'MULLIKEN_CHARGES')
f=open( 'psi4out.xyz', 'w' )
f.write( "20  " )
f.write( str(ee) + "\n" )
f.write( MOL.save_string_xyz() )
f.close()
--------------------------------------------------------------------------

  Memory set to   2.000 GiB by Python script.

*** tstart() called on cx1-3-16-2.cx1.hpc.ic.ac.uk
*** at Tue Jul  5 16:54:46 2016


         ---------------------------------------------------------
                                   SCF
            by Justin Turney, Rob Parrish, and Andy Simmonett
                              RHF Reference
                        1 Threads,   2000 MiB Core
         ---------------------------------------------------------

  ==> Geometry <==

    Molecular point group: c1
    Full point group: C1

    Geometry (in Angstrom), charge = 0, multiplicity = 1:

       Center              X                  Y                   Z               Mass       
    ------------   -----------------  -----------------  -----------------  -----------------
           O          1.975079134917     0.090167398319     0.192148949297    15.994914619560
           C          0.968354134917     0.364499398319    -0.377315050703    12.000000000000
           C         -0.304708865083    -0.445725601681    -0.350120050703    12.000000000000
           O          0.832183134917     1.448403398319    -1.130698050703    15.994914619560
           C         -0.584679865083    -1.089712601681     1.004220949297    12.000000000000
           H         -1.115565865083     0.213619398319    -0.647658050703     1.007825032070
           H         -0.229940865083    -1.194376601681    -1.134139050703     1.007825032070
           C         -1.879146865083    -1.904403601681     1.004131949297    12.000000000000
           H         -0.636287865083    -0.316788601681     1.764765949297     1.007825032070
           H          0.250891134917    -1.726473601681     1.277826949297     1.007825032070
           C         -3.128925865083    -1.025168601681     1.005582949297    12.000000000000
           H         -1.898261865083    -2.556286601681     0.133063949297     1.007825032070
           H         -1.897364865083    -2.557900601681     1.874005949297     1.007825032070
           H         -3.157360865083    -0.383802601681     0.129514949297     1.007825032070
           H         -4.032270865083    -1.627035601681     1.005191949297     1.007825032070
           H         -3.156765865083    -0.385890601681     1.883186949297     1.007825032070
           C          1.958351134917     2.299640398319    -1.241518050703    12.000000000000
           H          2.245049134917     2.678821398319    -0.271202050703     1.007825032070
           H          1.653310134917     3.110389398319    -1.884625050703     1.007825032070
           H          2.793564134917     1.770147398319    -1.676907050703     1.007825032070

  Running in c1 symmetry.

  Rotational constants: A =      0.17339  B =      0.02859  C =      0.02584 [cm^-1]
  Rotational constants: A =   5198.09830  B =    857.11660  C =    774.64848 [MHz]
  Nuclear repulsion =  385.569441354612763

  Charge       = 0
  Multiplicity = 1
  Electrons    = 64
  Nalpha       = 32
  Nbeta        = 32

  ==> Algorithm <==

  SCF Algorithm Type is DF.
  DIIS enabled.
  MOM disabled.
  Fractional occupation disabled.
  Guess Type is CORE.
  Energy threshold   = 1.00e-06
  Density threshold  = 1.00e-06
  Integral threshold = 0.00e+00

  ==> Primary Basis <==

  Basis Set: 6-31G*
    Number of shells: 72
    Number of basis function: 144
    Number of Cartesian functions: 144
    Spherical Harmonics?: false
    Max angular momentum: 2

  ==> Pre-Iterations <==

   -------------------------------------------------------
    Irrep   Nso     Nmo     Nalpha   Nbeta   Ndocc  Nsocc
   -------------------------------------------------------
     A        144     144       0       0       0       0
   -------------------------------------------------------
    Total     144     144      32      32      32       0
   -------------------------------------------------------

 OEINTS: Overlap, kinetic, potential, dipole, and quadrupole integrals
         stored in file 35.

  ==> Integral Setup <==

  ==> DFJK: Density-Fitted J/K Matrices <==

    J tasked:                  Yes
    K tasked:                  Yes
    wK tasked:                  No
    OpenMP threads:              1
    Integrals threads:           1
    Memory (MB):              1430
    Algorithm:                Core
    Integral Cache:           NONE
    Schwarz Cutoff:          1E-12
    Fitting Condition:       1E-12

   => Auxiliary Basis Set <=

  Basis Set: 
    Number of shells: 300
    Number of basis function: 948
    Number of Cartesian functions: 948
    Spherical Harmonics?: false
    Max angular momentum: 3

  Minimum eigenvalue in the overlap matrix is 2.6362830976E-03.
  Using Symmetric Orthogonalization.
  SCF Guess: Core (One-Electron) Hamiltonian.

  ==> Iterations <==

                           Total Energy        Delta E     RMS |[F,P]|

   @DF-RHF iter   1:  -251.72031944729497   -2.51720e+02   7.43084e-02 
   @DF-RHF iter   2:   -31.31553876332737    2.20405e+02   8.53937e-02 DIIS
   @DF-RHF iter   3:  -190.85907269011022   -1.59544e+02   6.86298e-02 DIIS
   @DF-RHF iter   4:  -275.46128844661496   -8.46022e+01   6.21127e-02 DIIS
   @DF-RHF iter   5:  -361.66903912568819   -8.62078e+01   3.71034e-02 DIIS
   @DF-RHF iter   6:  -383.26414601443048   -2.15951e+01   8.01325e-03 DIIS
   @DF-RHF iter   7:  -383.81089954455865   -5.46754e-01   3.86213e-03 DIIS
   @DF-RHF iter   8:  -383.90806116260819   -9.71616e-02   1.51892e-03 DIIS
   @DF-RHF iter   9:  -383.93603163829914   -2.79705e-02   3.95073e-04 DIIS
   @DF-RHF iter  10:  -383.93796013879398   -1.92850e-03   1.54844e-04 DIIS
   @DF-RHF iter  11:  -383.93828823887964   -3.28100e-04   5.46275e-05 DIIS
   @DF-RHF iter  12:  -383.93833141109189   -4.31722e-05   1.46624e-05 DIIS
   @DF-RHF iter  13:  -383.93833536787588   -3.95678e-06   4.62990e-06 DIIS
   @DF-RHF iter  14:  -383.93833584046240   -4.72587e-07   1.14529e-06 DIIS
   @DF-RHF iter  15:  -383.93833587304243   -3.25800e-08   4.02591e-07 DIIS

  ==> Post-Iterations <==

    Orbital Energies (a.u.)
    -----------------------

    Doubly Occupied:                                                      

       1A    -20.604937     2A    -20.544341     3A    -11.372170  
       4A    -11.280684     5A    -11.234228     6A    -11.222519  
       7A    -11.221345     8A    -11.212860     9A     -1.469524  
      10A     -1.362478    11A     -1.091715    12A     -1.022895  
      13A     -0.967834    14A     -0.893936    15A     -0.801488  
      16A     -0.768370    17A     -0.701024    18A     -0.681289  
      19A     -0.672428    20A     -0.631661    21A     -0.614516  
      22A     -0.594709    23A     -0.571019    24A     -0.546603  
      25A     -0.538247    26A     -0.523737    27A     -0.508730  
      28A     -0.477836    29A     -0.474431    30A     -0.465284  
      31A     -0.455743    32A     -0.435552  

    Virtual:                                                              

      33A      0.195301    34A      0.229955    35A      0.260350  
      36A      0.268068    37A      0.273815    38A      0.293557  
      39A      0.309632    40A      0.316614    41A      0.320129  
      42A      0.324876    43A      0.334015    44A      0.337156  
      45A      0.353765    46A      0.386136    47A      0.395939  
      48A      0.432161    49A      0.448801    50A      0.470928  
      51A      0.530035    52A      0.576273    53A      0.713139  
      54A      0.717522    55A      0.728187    56A      0.736301  
      57A      0.754061    58A      0.769571    59A      0.786022  
      60A      0.793438    61A      0.831072    62A      0.888082  
      63A      0.912320    64A      0.936835    65A      0.959538  
      66A      0.968814    67A      0.984329    68A      1.017801  
      69A      1.081507    70A      1.095092    71A      1.109542  
      72A      1.128773    73A      1.134751    74A      1.146501  
      75A      1.154157    76A      1.155662    77A      1.181677  
      78A      1.191733    79A      1.211030    80A      1.216710  
      81A      1.229896    82A      1.238907    83A      1.248427  
      84A      1.273431    85A      1.292478    86A      1.303130  
      87A      1.355264    88A      1.389132    89A      1.403167  
      90A      1.477327    91A      1.538505    92A      1.630571  
      93A      1.654451    94A      1.706426    95A      1.736845  
      96A      1.802836    97A      1.844021    98A      1.865058  
      99A      1.914192   100A      1.944660   101A      1.973406  
     102A      2.014176   103A      2.065512   104A      2.106087  
     105A      2.149850   106A      2.153672   107A      2.194582  
     108A      2.246220   109A      2.249033   110A      2.303072  
     111A      2.308726   112A      2.343915   113A      2.351038  
     114A      2.402385   115A      2.433256   116A      2.437786  
     117A      2.464340   118A      2.512001   119A      2.615794  
     120A      2.635438   121A      2.662546   122A      2.675565  
     123A      2.689676   124A      2.757428   125A      2.775418  
     126A      2.806145   127A      2.829044   128A      2.899538  
     129A      2.967170   130A      2.993090   131A      3.061406  
     132A      3.131724   133A      3.149066   134A      3.350145  
     135A      3.435070   136A      3.563752   137A      4.423267  
     138A      4.543411   139A      4.640218   140A      4.663307  
     141A      4.713723   142A      4.830806   143A      4.895748  
     144A      5.011560  

    Final Occupation by Irrep:
              A 
    DOCC [    32 ]

  Energy converged.

  @DF-RHF Final Energy:  -383.93833587304243

   => Energetics <=

    Nuclear Repulsion Energy =            385.5694413546127635
    One-Electron Energy =               -1287.0874106716623828
    Two-Electron Energy =                 517.5796334440077544
    DFT Exchange-Correlation Energy =       0.0000000000000000
    Empirical Dispersion Energy =           0.0000000000000000
    PCM Polarization Energy =               0.0000000000000000
    EFP Energy =                            0.0000000000000000
    Total Energy =                       -383.9383358730418649

    Alert: EFP and PCM quantities not currently incorporated into SCF psivars.

Properties will be evaluated at   0.000000,   0.000000,   0.000000 Bohr
  ==> Properties <==


Properties computed using the SCF density matrix

  Nuclear Dipole Moment: (a.u.)
     X:    -8.5934      Y:    -2.7821      Z:     2.2951

  Electronic Dipole Moment: (a.u.)
     X:     8.0832      Y:     3.0771      Z:    -2.6706

  Dipole Moment: (a.u.)
     X:    -0.5102      Y:     0.2950      Z:    -0.3755     Total:     0.6988

  Dipole Moment: (Debye)
     X:    -1.2968      Y:     0.7498      Z:    -0.9543     Total:     1.7761


  Saving occupied orbitals to File 180.

*** tstop() called on cx1-3-16-2.cx1.hpc.ic.ac.uk at Tue Jul  5 16:55:02 2016
Module time:
	user time   =      15.39 seconds =       0.26 minutes
	system time =       0.16 seconds =       0.00 minutes
	total time  =         16 seconds =       0.27 minutes
Total time:
	user time   =      15.39 seconds =       0.26 minutes
	system time =       0.16 seconds =       0.00 minutes
	total time  =         16 seconds =       0.27 minutes


Properties will be evaluated at   0.000000,   0.000000,   0.000000 Bohr

Properties computed using the  density matrix

  Nuclear Dipole Moment: (a.u.)
     X:    -8.5934      Y:    -2.7821      Z:     2.2951

  Electronic Dipole Moment: (a.u.)
     X:     8.0832      Y:     3.0771      Z:    -2.6706

  Dipole Moment: (a.u.)
     X:    -0.5102      Y:     0.2950      Z:    -0.3755     Total:     0.6988

  Dipole Moment: (Debye)
     X:    -1.2968      Y:     0.7498      Z:    -0.9543     Total:     1.7761

  Quadrupole Moment: (Debye Ang)
    XX:   -53.3458     YY:   -45.4894     ZZ:   -49.0961
    XY:     4.7483     XZ:    -3.9168     YZ:    -0.9231

  Traceless Quadrupole Moment: (Debye Ang)
    XX:    -4.0354     YY:     3.8211     ZZ:     0.2143
    XY:     4.7483     XZ:    -3.9168     YZ:    -0.9231

  Mulliken Charges: (a.u.)
   Center  Symbol    Alpha    Beta     Spin     Total
       1     O     4.28592  4.28592  0.00000 -0.57185
       2     C     2.60355  2.60355  0.00000  0.79291
       3     C     3.21256  3.21256  0.00000 -0.42513
       4     O     4.30556  4.30556  0.00000 -0.61111
       5     C     3.15771  3.15771  0.00000 -0.31543
       6     H     0.39904  0.39904  0.00000  0.20191
       7     H     0.40005  0.40005  0.00000  0.19989
       8     C     3.15666  3.15666  0.00000 -0.31331
       9     H     0.41666  0.41666  0.00000  0.16667
      10     H     0.40365  0.40365  0.00000  0.19270
      11     C     3.24196  3.24196  0.00000 -0.48392
      12     H     0.42209  0.42209  0.00000  0.15583
      13     H     0.41644  0.41644  0.00000  0.16712
      14     H     0.42119  0.42119  0.00000  0.15763
      15     H     0.41750  0.41750  0.00000  0.16501
      16     H     0.42008  0.42008  0.00000  0.15984
      17     C     3.09325  3.09325  0.00000 -0.18650
      18     H     0.40876  0.40876  0.00000  0.18248
      19     H     0.40842  0.40842  0.00000  0.18315
      20     H     0.40894  0.40894  0.00000  0.18212

   Total alpha = 32.00000, Total beta = 32.00000, Total charge =  0.00000


*** PSI4 exiting successfully. Buy a developer a beer!
