    -----------------------------------------------------------------------
          Psi4: An Open-Source Ab Initio Electronic Structure Package
                              Psi4 (no tag) Driver

                          Git: Rev {detached?}  

    J. M. Turney, A. C. Simmonett, R. M. Parrish, E. G. Hohenstein,
    F. A. Evangelista, J. T. Fermann, B. J. Mintz, L. A. Burns, J. J. Wilke,
    M. L. Abrams, N. J. Russ, M. L. Leininger, C. L. Janssen, E. T. Seidl,
    W. D. Allen, H. F. Schaefer, R. A. King, E. F. Valeev, C. D. Sherrill,
    and T. D. Crawford, WIREs Comput. Mol. Sci. 2, 556-565 (2012)
    (doi: 10.1002/wcms.93)

                         Additional Contributions by
    A. E. DePrince, M. Saitow, U. Bozkaya, A. Yu. Sokolov
    -----------------------------------------------------------------------


    Psi4 started on: Tue Jul  5 16:42:44 2016

    Process ID:  27369
    PSI4DATADIR: /export131/home/mjharvey/miniconda3/share
    Memory level set to 256.000 MB

  ==> Input File <==

--------------------------------------------------------------------------
set {
	reference rhf
	basis 6-31G*
}


set_num_threads( 1 )
memory 2 gb

molecule MOL {
0 1

H	 0.121013	 -0.949501	 -2.768224
O	 -0.693165	 -1.018407	 -2.279191
C	 -0.424494	 -1.592694	 -1.107166
C	 -0.318135	 -0.576402	 0.000164
O	 -0.292714	 -2.767802	 -0.994247
C	 -1.454360	 0.441875	 -0.000474
H	 -0.278694	 -1.122640	 0.938818
H	 0.648115	 -0.089019	 -0.098941
C	 -2.826123	 -0.230780	 0.000056
H	 -1.357605	 1.085198	 -0.868380
H	 -1.357504	 1.086451	 0.866496
H	 -2.959731	 -0.858053	 -0.876869
H	 -3.619374	 0.509403	 -0.000080
H	 -2.959371	 -0.857318	 0.877556

	symmetry c1
}
set optking {
	frozen_dihedral = ("
		7 4 6 10,
		2 3 4 7
	")
}

ee = energy('scf')
oeprop('DIPOLE', 'QUADRUPOLE', 'MULLIKEN_CHARGES')
f=open( 'psi4out.xyz', 'w' )
f.write( "14  " )
f.write( str(ee) + "\n" )
f.write( MOL.save_string_xyz() )
f.close()
--------------------------------------------------------------------------

  Memory set to   2.000 GiB by Python script.

*** tstart() called on cx1-3-16-4.cx1.hpc.ic.ac.uk
*** at Tue Jul  5 16:42:44 2016


         ---------------------------------------------------------
                                   SCF
            by Justin Turney, Rob Parrish, and Andy Simmonett
                              RHF Reference
                        1 Threads,   2000 MiB Core
         ---------------------------------------------------------

  ==> Geometry <==

    Molecular point group: c1
    Full point group: C1

    Geometry (in Angstrom), charge = 0, multiplicity = 1:

       Center              X                  Y                   Z               Mass       
    ------------   -----------------  -----------------  -----------------  -----------------
           H          1.119299963432     0.018796363703    -2.000589022984     1.007825032070
           O          0.305121963432    -0.050109636297    -1.511556022984    15.994914619560
           C          0.573792963432    -0.624396636297    -0.339531022984    12.000000000000
           C          0.680151963432     0.391895363703     0.767798977016    12.000000000000
           O          0.705572963432    -1.799504636297    -0.226612022984    15.994914619560
           C         -0.456073036568     1.410172363703     0.767160977016    12.000000000000
           H          0.719592963432    -0.154342636297     1.706452977016     1.007825032070
           H          1.646401963432     0.879278363703     0.668693977016     1.007825032070
           C         -1.827836036568     0.737517363703     0.767690977016    12.000000000000
           H         -0.359318036568     2.053495363703    -0.100745022984     1.007825032070
           H         -0.359217036568     2.054748363703     1.634130977016     1.007825032070
           H         -1.961444036568     0.110244363703    -0.109234022984     1.007825032070
           H         -2.621087036568     1.477700363703     0.767554977016     1.007825032070
           H         -1.961084036568     0.110979363703     1.645190977016     1.007825032070

  Running in c1 symmetry.

  Rotational constants: A =      0.19517  B =      0.08105  C =      0.07840 [cm^-1]
  Rotational constants: A =   5851.11606  B =   2429.95903  C =   2350.30688 [MHz]
  Nuclear repulsion =  247.707770657467506

  Charge       = 0
  Multiplicity = 1
  Electrons    = 48
  Nalpha       = 24
  Nbeta        = 24

  ==> Algorithm <==

  SCF Algorithm Type is DF.
  DIIS enabled.
  MOM disabled.
  Fractional occupation disabled.
  Guess Type is CORE.
  Energy threshold   = 1.00e-06
  Density threshold  = 1.00e-06
  Integral threshold = 0.00e+00

  ==> Primary Basis <==

  Basis Set: 6-31G*
    Number of shells: 52
    Number of basis function: 106
    Number of Cartesian functions: 106
    Spherical Harmonics?: false
    Max angular momentum: 2

  ==> Pre-Iterations <==

   -------------------------------------------------------
    Irrep   Nso     Nmo     Nalpha   Nbeta   Ndocc  Nsocc
   -------------------------------------------------------
     A        106     106       0       0       0       0
   -------------------------------------------------------
    Total     106     106      24      24      24       0
   -------------------------------------------------------

 OEINTS: Overlap, kinetic, potential, dipole, and quadrupole integrals
         stored in file 35.

  ==> Integral Setup <==

  ==> DFJK: Density-Fitted J/K Matrices <==

    J tasked:                  Yes
    K tasked:                  Yes
    wK tasked:                  No
    OpenMP threads:              1
    Integrals threads:           1
    Memory (MB):              1430
    Algorithm:                Core
    Integral Cache:           NONE
    Schwarz Cutoff:          1E-12
    Fitting Condition:       1E-12

   => Auxiliary Basis Set <=

  Basis Set: 
    Number of shells: 216
    Number of basis function: 686
    Number of Cartesian functions: 686
    Spherical Harmonics?: false
    Max angular momentum: 3

  Minimum eigenvalue in the overlap matrix is 3.5943908904E-03.
  Using Symmetric Orthogonalization.
  SCF Guess: Core (One-Electron) Hamiltonian.

  ==> Iterations <==

                           Total Energy        Delta E     RMS |[F,P]|

   @DF-RHF iter   1:  -244.31238058523633   -2.44312e+02   7.47794e-02 
   @DF-RHF iter   2:  -164.90985699504256    7.94025e+01   8.49041e-02 DIIS
   @DF-RHF iter   3:  -279.59101118647783   -1.14681e+02   3.83190e-02 DIIS
   @DF-RHF iter   4:  -239.30034905638792    4.02907e+01   7.76147e-02 DIIS
   @DF-RHF iter   5:  -280.36503537073810   -4.10647e+01   4.93354e-02 DIIS
   @DF-RHF iter   6:  -300.60572617809481   -2.02407e+01   2.50922e-02 DIIS
   @DF-RHF iter   7:  -305.25642749819286   -4.65070e+00   1.02045e-02 DIIS
   @DF-RHF iter   8:  -305.74354060108959   -4.87113e-01   4.71682e-03 DIIS
   @DF-RHF iter   9:  -305.84493781104703   -1.01397e-01   1.13425e-03 DIIS
   @DF-RHF iter  10:  -305.85379889176869   -8.86108e-03   4.81536e-04 DIIS
   @DF-RHF iter  11:  -305.85545658053258   -1.65769e-03   1.44228e-04 DIIS
   @DF-RHF iter  12:  -305.85561639606527   -1.59816e-04   4.74920e-05 DIIS
   @DF-RHF iter  13:  -305.85563857171252   -2.21756e-05   1.36672e-05 DIIS
   @DF-RHF iter  14:  -305.85564091885050   -2.34714e-06   4.80873e-06 DIIS
   @DF-RHF iter  15:  -305.85564137376997   -4.54919e-07   1.94097e-06 DIIS
   @DF-RHF iter  16:  -305.85564148877353   -1.15004e-07   7.09869e-07 DIIS

  ==> Post-Iterations <==

    Orbital Energies (a.u.)
    -----------------------

    Doubly Occupied:                                                      

       1A    -20.599219     2A    -20.559071     3A    -11.379487  
       4A    -11.239463     5A    -11.231694     6A    -11.215582  
       7A     -1.469921     8A     -1.368217     9A     -1.086163  
      10A     -0.970570    11A     -0.854602    12A     -0.811903  
      13A     -0.695642    14A     -0.682174    15A     -0.666861  
      16A     -0.619293    17A     -0.604928    18A     -0.560665  
      19A     -0.518545    20A     -0.511481    21A     -0.503220  
      22A     -0.484809    23A     -0.480284    24A     -0.439658  

    Virtual:                                                              

      25A      0.164683    26A      0.214647    27A      0.252083  
      28A      0.281537    29A      0.288295    30A      0.308395  
      31A      0.323122    32A      0.335104    33A      0.348928  
      34A      0.389941    35A      0.417057    36A      0.443857  
      37A      0.508972    38A      0.574427    39A      0.705987  
      40A      0.716426    41A      0.739133    42A      0.789670  
      43A      0.838066    44A      0.848799    45A      0.874957  
      46A      0.900890    47A      0.933173    48A      0.961678  
      49A      1.016756    50A      1.049509    51A      1.062076  
      52A      1.097696    53A      1.127314    54A      1.146264  
      55A      1.160242    56A      1.186600    57A      1.194124  
      58A      1.207998    59A      1.227478    60A      1.251083  
      61A      1.273829    62A      1.299226    63A      1.322721  
      64A      1.357644    65A      1.400078    66A      1.431133  
      67A      1.563447    68A      1.634894    69A      1.703630  
      70A      1.804327    71A      1.833317    72A      1.902898  
      73A      1.962874    74A      1.998643    75A      2.019573  
      76A      2.064244    77A      2.116277    78A      2.129494  
      79A      2.134835    80A      2.206370    81A      2.256287  
      82A      2.276736    83A      2.331350    84A      2.385613  
      85A      2.420751    86A      2.472831    87A      2.602318  
      88A      2.647102    89A      2.679003    90A      2.697471  
      91A      2.755598    92A      2.799239    93A      2.835126  
      94A      2.913572    95A      3.005796    96A      3.045044  
      97A      3.163695    98A      3.241047    99A      3.380264  
     100A      3.483211   101A      4.252334   102A      4.514623  
     103A      4.614973   104A      4.709227   105A      4.856030  
     106A      4.964593  

    Final Occupation by Irrep:
              A 
    DOCC [    24 ]

  Energy converged.

  @DF-RHF Final Energy:  -305.85564148877353

   => Energetics <=

    Nuclear Repulsion Energy =            247.7077706574675062
    One-Electron Energy =                -908.0200884902185408
    Two-Electron Energy =                 354.4566763439772785
    DFT Exchange-Correlation Energy =       0.0000000000000000
    Empirical Dispersion Energy =           0.0000000000000000
    PCM Polarization Energy =               0.0000000000000000
    EFP Energy =                            0.0000000000000000
    Total Energy =                       -305.8556414887736992

    Alert: EFP and PCM quantities not currently incorporated into SCF psivars.

Properties will be evaluated at   0.000000,   0.000000,   0.000000 Bohr
  ==> Properties <==


Properties computed using the SCF density matrix

  Nuclear Dipole Moment: (a.u.)
     X:    -3.5358      Y:     6.1324      Z:     3.9398

  Electronic Dipole Moment: (a.u.)
     X:     4.0311      Y:    -4.9518      Z:    -3.9274

  Dipole Moment: (a.u.)
     X:     0.4953      Y:     1.1806      Z:     0.0124     Total:     1.2804

  Dipole Moment: (Debye)
     X:     1.2590      Y:     3.0008      Z:     0.0315     Total:     3.2543


  Saving occupied orbitals to File 180.

*** tstop() called on cx1-3-16-4.cx1.hpc.ic.ac.uk at Tue Jul  5 16:42:52 2016
Module time:
	user time   =       7.03 seconds =       0.12 minutes
	system time =       0.06 seconds =       0.00 minutes
	total time  =          8 seconds =       0.13 minutes
Total time:
	user time   =       7.03 seconds =       0.12 minutes
	system time =       0.06 seconds =       0.00 minutes
	total time  =          8 seconds =       0.13 minutes


Properties will be evaluated at   0.000000,   0.000000,   0.000000 Bohr

Properties computed using the  density matrix

  Nuclear Dipole Moment: (a.u.)
     X:    -3.5358      Y:     6.1324      Z:     3.9398

  Electronic Dipole Moment: (a.u.)
     X:     4.0311      Y:    -4.9518      Z:    -3.9274

  Dipole Moment: (a.u.)
     X:     0.4953      Y:     1.1806      Z:     0.0124     Total:     1.2804

  Dipole Moment: (Debye)
     X:     1.2590      Y:     3.0008      Z:     0.0315     Total:     3.2543

  Quadrupole Moment: (Debye Ang)
    XX:   -33.7456     YY:   -43.2037     ZZ:   -34.3852
    XY:     2.2425     XZ:    -3.6926     YZ:    -0.3892

  Traceless Quadrupole Moment: (Debye Ang)
    XX:     3.3659     YY:    -6.0922     ZZ:     2.7263
    XY:     2.2425     XZ:    -3.6926     YZ:    -0.3892

  Mulliken Charges: (a.u.)
   Center  Symbol    Alpha    Beta     Spin     Total
       1     H     0.26425  0.26425  0.00000  0.47149
       2     O     4.35394  4.35394  0.00000 -0.70787
       3     C     2.64483  2.64483  0.00000  0.71034
       4     C     3.20514  3.20514  0.00000 -0.41027
       5     O     4.25260  4.25260  0.00000 -0.50519
       6     C     3.15454  3.15454  0.00000 -0.30908
       7     H     0.39993  0.39993  0.00000  0.20015
       8     H     0.40720  0.40720  0.00000  0.18560
       9     C     3.25075  3.25075  0.00000 -0.50151
      10     H     0.41119  0.41119  0.00000  0.17762
      11     H     0.41459  0.41459  0.00000  0.17083
      12     H     0.40857  0.40857  0.00000  0.18286
      13     H     0.41521  0.41521  0.00000  0.16958
      14     H     0.41727  0.41727  0.00000  0.16546

   Total alpha = 24.00000, Total beta = 24.00000, Total charge =  0.00000


*** PSI4 exiting successfully. Buy a developer a beer!
