    -----------------------------------------------------------------------
          Psi4: An Open-Source Ab Initio Electronic Structure Package
                              Psi4 (no tag) Driver

                          Git: Rev {detached?}  

    J. M. Turney, A. C. Simmonett, R. M. Parrish, E. G. Hohenstein,
    F. A. Evangelista, J. T. Fermann, B. J. Mintz, L. A. Burns, J. J. Wilke,
    M. L. Abrams, N. J. Russ, M. L. Leininger, C. L. Janssen, E. T. Seidl,
    W. D. Allen, H. F. Schaefer, R. A. King, E. F. Valeev, C. D. Sherrill,
    and T. D. Crawford, WIREs Comput. Mol. Sci. 2, 556-565 (2012)
    (doi: 10.1002/wcms.93)

                         Additional Contributions by
    A. E. DePrince, M. Saitow, U. Bozkaya, A. Yu. Sokolov
    -----------------------------------------------------------------------


    Psi4 started on: Tue Jul  5 16:36:11 2016

    Process ID:  26481
    PSI4DATADIR: /export131/home/mjharvey/miniconda3/share
    Memory level set to 256.000 MB

  ==> Input File <==

--------------------------------------------------------------------------
set {
	reference rhf
	basis 6-31G*
}


set_num_threads( 1 )
memory 2 gb

molecule MOL {
0 1

H	 -1.684854	 1.667710	 0.056877
N	 -1.411972	 0.729529	 0.276710
C	 0.028465	 0.575103	 0.174736
H	 -1.860448	 0.125394	 -0.384350
C	 0.455173	 0.651305	 -1.276211
H	 0.590864	 1.320952	 0.738134
H	 0.301185	 -0.400990	 0.564155
O	 -0.088814	 -0.446451	 -1.951562
H	 0.101433	 1.579477	 -1.724545
H	 1.540941	 0.633028	 -1.339530
C	 0.295968	 -0.548357	 -3.285402
H	 1.077210	 -1.293847	 -3.345427
H	 -0.534823	 -0.858547	 -3.916710
H	 0.680852	 0.397273	 -3.661511

	symmetry c1
}
set optking {
	frozen_dihedral = ("
		8 5 3 6,
		6 3 2 4,
		11 8 5 3
	")
}

ee = energy('scf')
oeprop('DIPOLE', 'QUADRUPOLE', 'MULLIKEN_CHARGES')
f=open( 'psi4out.xyz', 'w' )
f.write( "14  " )
f.write( str(ee) + "\n" )
f.write( MOL.save_string_xyz() )
f.close()
--------------------------------------------------------------------------

  Memory set to   2.000 GiB by Python script.

*** tstart() called on cx1-3-6-4.cx1.hpc.ic.ac.uk
*** at Tue Jul  5 16:36:11 2016


         ---------------------------------------------------------
                                   SCF
            by Justin Turney, Rob Parrish, and Andy Simmonett
                              RHF Reference
                        1 Threads,   2000 MiB Core
         ---------------------------------------------------------

  ==> Geometry <==

    Molecular point group: c1
    Full point group: C1

    Geometry (in Angstrom), charge = 0, multiplicity = 1:

       Center              X                  Y                   Z               Mass       
    ------------   -----------------  -----------------  -----------------  -----------------
           H         -1.530018877929     1.475797408927     1.297046193923     1.007825032070
           N         -1.257136877929     0.537616408927     1.516879193923    14.003074004780
           C          0.183300122071     0.383190408927     1.414905193923    12.000000000000
           H         -1.705612877929    -0.066518591073     0.855819193923     1.007825032070
           C          0.610008122071     0.459392408927    -0.036041806077    12.000000000000
           H          0.745699122071     1.129039408927     1.978303193923     1.007825032070
           H          0.456020122071    -0.592902591073     1.804324193923     1.007825032070
           O          0.066021122071    -0.638363591073    -0.711392806077    15.994914619560
           H          0.256268122071     1.387564408927    -0.484375806077     1.007825032070
           H          1.695776122071     0.441115408927    -0.099360806077     1.007825032070
           C          0.450803122071    -0.740269591073    -2.045232806077    12.000000000000
           H          1.232045122071    -1.485759591073    -2.105257806077     1.007825032070
           H         -0.379987877929    -1.050459591073    -2.676540806077     1.007825032070
           H          0.835687122071     0.205360408927    -2.421341806077     1.007825032070

  Running in c1 symmetry.

  Rotational constants: A =      0.43670  B =      0.09096  C =      0.08281 [cm^-1]
  Rotational constants: A =  13091.87259  B =   2726.92295  C =   2482.54155 [MHz]
  Nuclear repulsion =  195.255891850851185

  Charge       = 0
  Multiplicity = 1
  Electrons    = 42
  Nalpha       = 21
  Nbeta        = 21

  ==> Algorithm <==

  SCF Algorithm Type is DF.
  DIIS enabled.
  MOM disabled.
  Fractional occupation disabled.
  Guess Type is CORE.
  Energy threshold   = 1.00e-06
  Density threshold  = 1.00e-06
  Integral threshold = 0.00e+00

  ==> Primary Basis <==

  Basis Set: 6-31G*
    Number of shells: 48
    Number of basis function: 93
    Number of Cartesian functions: 93
    Spherical Harmonics?: false
    Max angular momentum: 2

  ==> Pre-Iterations <==

   -------------------------------------------------------
    Irrep   Nso     Nmo     Nalpha   Nbeta   Ndocc  Nsocc
   -------------------------------------------------------
     A         93      93       0       0       0       0
   -------------------------------------------------------
    Total      93      93      21      21      21       0
   -------------------------------------------------------

 OEINTS: Overlap, kinetic, potential, dipole, and quadrupole integrals
         stored in file 35.

  ==> Integral Setup <==

  ==> DFJK: Density-Fitted J/K Matrices <==

    J tasked:                  Yes
    K tasked:                  Yes
    wK tasked:                  No
    OpenMP threads:              1
    Integrals threads:           1
    Memory (MB):              1430
    Algorithm:                Core
    Integral Cache:           NONE
    Schwarz Cutoff:          1E-12
    Fitting Condition:       1E-12

   => Auxiliary Basis Set <=

  Basis Set: 
    Number of shells: 201
    Number of basis function: 630
    Number of Cartesian functions: 630
    Spherical Harmonics?: false
    Max angular momentum: 3

  Minimum eigenvalue in the overlap matrix is 4.6372667529E-03.
  Using Symmetric Orthogonalization.
  SCF Guess: Core (One-Electron) Hamiltonian.

  ==> Iterations <==

                           Total Energy        Delta E     RMS |[F,P]|

   @DF-RHF iter   1:  -201.74772862429722   -2.01748e+02   7.99735e-02 
   @DF-RHF iter   2:  -155.17410337974383    4.65736e+01   6.69286e-02 DIIS
   @DF-RHF iter   3:  -211.69630581809247   -5.65222e+01   6.20703e-02 DIIS
   @DF-RHF iter   4:  -238.19567745476337   -2.64994e+01   4.13345e-02 DIIS
   @DF-RHF iter   5:  -247.77899856933391   -9.58332e+00   8.70061e-03 DIIS
   @DF-RHF iter   6:  -248.06793981655699   -2.88941e-01   3.49895e-03 DIIS
   @DF-RHF iter   7:  -248.11576526434823   -4.78254e-02   7.18556e-04 DIIS
   @DF-RHF iter   8:  -248.11802460438003   -2.25934e-03   2.13669e-04 DIIS
   @DF-RHF iter   9:  -248.11830442564906   -2.79821e-04   4.80236e-05 DIIS
   @DF-RHF iter  10:  -248.11832166634588   -1.72407e-05   1.89885e-05 DIIS
   @DF-RHF iter  11:  -248.11832405115075   -2.38480e-06   7.14356e-06 DIIS
   @DF-RHF iter  12:  -248.11832440781291   -3.56662e-07   2.39835e-06 DIIS
   @DF-RHF iter  13:  -248.11832444755748   -3.97446e-08   4.00237e-07 DIIS

  ==> Post-Iterations <==

    Orbital Energies (a.u.)
    -----------------------

    Doubly Occupied:                                                      

       1A    -20.559081     2A    -15.526413     3A    -11.269451  
       4A    -11.268131     5A    -11.241730     6A     -1.384929  
       7A     -1.175030     8A     -0.998706     9A     -0.910214  
      10A     -0.824385    11A     -0.685099    12A     -0.672524  
      13A     -0.643979    14A     -0.629881    15A     -0.590532  
      16A     -0.551770    17A     -0.522928    18A     -0.507336  
      19A     -0.482480    20A     -0.417689    21A     -0.374859  

    Virtual:                                                              

      22A      0.233207    23A      0.254120    24A      0.280031  
      25A      0.290837    26A      0.309689    27A      0.314490  
      28A      0.326054    29A      0.330160    30A      0.349900  
      31A      0.378591    32A      0.423830    33A      0.451443  
      34A      0.452415    35A      0.743120    36A      0.753065  
      37A      0.762890    38A      0.804430    39A      0.814652  
      40A      0.848525    41A      0.870395    42A      0.910567  
      43A      0.953340    44A      1.010215    45A      1.082200  
      46A      1.092526    47A      1.121790    48A      1.132700  
      49A      1.139552    50A      1.153362    51A      1.173274  
      52A      1.209985    53A      1.215795    54A      1.233709  
      55A      1.254369    56A      1.262623    57A      1.313067  
      58A      1.387429    59A      1.440190    60A      1.586972  
      61A      1.620829    62A      1.690799    63A      1.731259  
      64A      1.819641    65A      1.835268    66A      1.932039  
      67A      1.988586    68A      2.073052    69A      2.209596  
      70A      2.220051    71A      2.349809    72A      2.365980  
      73A      2.405271    74A      2.436613    75A      2.455148  
      76A      2.484124    77A      2.532890    78A      2.576428  
      79A      2.674501    80A      2.690580    81A      2.745612  
      82A      2.812135    83A      2.852270    84A      2.896731  
      85A      3.007737    86A      3.086038    87A      3.195822  
      88A      3.340295    89A      4.224444    90A      4.384212  
      91A      4.644986    92A      4.709773    93A      4.886338  

    Final Occupation by Irrep:
              A 
    DOCC [    21 ]

  Energy converged.

  @DF-RHF Final Energy:  -248.11832444755748

   => Energetics <=

    Nuclear Repulsion Energy =            195.2558918508511852
    One-Electron Energy =                -724.2740776891050700
    Two-Electron Energy =                 280.8998613906962873
    DFT Exchange-Correlation Energy =       0.0000000000000000
    Empirical Dispersion Energy =           0.0000000000000000
    PCM Polarization Energy =               0.0000000000000000
    EFP Energy =                            0.0000000000000000
    Total Energy =                       -248.1183244475575975

    Alert: EFP and PCM quantities not currently incorporated into SCF psivars.

Properties will be evaluated at   0.000000,   0.000000,   0.000000 Bohr
  ==> Properties <==


Properties computed using the SCF density matrix

  Nuclear Dipole Moment: (a.u.)
     X:     1.5094      Y:     1.3484      Z:    -1.7434

  Electronic Dipole Moment: (a.u.)
     X:    -0.9992      Y:    -0.8579      Z:     0.8967

  Dipole Moment: (a.u.)
     X:     0.5103      Y:     0.4905      Z:    -0.8467     Total:     1.1036

  Dipole Moment: (Debye)
     X:     1.2970      Y:     1.2467      Z:    -2.1521     Total:     2.8050


  Saving occupied orbitals to File 180.

*** tstop() called on cx1-3-6-4.cx1.hpc.ic.ac.uk at Tue Jul  5 16:36:16 2016
Module time:
	user time   =       4.92 seconds =       0.08 minutes
	system time =       0.05 seconds =       0.00 minutes
	total time  =          5 seconds =       0.08 minutes
Total time:
	user time   =       4.92 seconds =       0.08 minutes
	system time =       0.05 seconds =       0.00 minutes
	total time  =          5 seconds =       0.08 minutes


Properties will be evaluated at   0.000000,   0.000000,   0.000000 Bohr

Properties computed using the  density matrix

  Nuclear Dipole Moment: (a.u.)
     X:     1.5094      Y:     1.3484      Z:    -1.7434

  Electronic Dipole Moment: (a.u.)
     X:    -0.9992      Y:    -0.8579      Z:     0.8967

  Dipole Moment: (a.u.)
     X:     0.5103      Y:     0.4905      Z:    -0.8467     Total:     1.1036

  Dipole Moment: (Debye)
     X:     1.2970      Y:     1.2467      Z:    -2.1521     Total:     2.8050

  Quadrupole Moment: (Debye Ang)
    XX:   -32.1314     YY:   -30.8932     ZZ:   -34.2628
    XY:    -0.5138     XZ:     2.9912     YZ:     0.8152

  Traceless Quadrupole Moment: (Debye Ang)
    XX:     0.2977     YY:     1.5359     ZZ:    -1.8336
    XY:    -0.5138     XZ:     2.9912     YZ:     0.8152

  Mulliken Charges: (a.u.)
   Center  Symbol    Alpha    Beta     Spin     Total
       1     H     0.33720  0.33720  0.00000  0.32561
       2     N     3.92143  3.92143  0.00000 -0.84287
       3     C     3.07180  3.07180  0.00000 -0.14360
       4     H     0.32175  0.32175  0.00000  0.35650
       5     C     2.99691  2.99691  0.00000  0.00618
       6     H     0.41899  0.41899  0.00000  0.16202
       7     H     0.40957  0.40957  0.00000  0.18087
       8     O     4.31015  4.31015  0.00000 -0.62030
       9     H     0.43420  0.43420  0.00000  0.13160
      10     H     0.43239  0.43239  0.00000  0.13522
      11     C     3.07763  3.07763  0.00000 -0.15525
      12     H     0.42181  0.42181  0.00000  0.15638
      13     H     0.41711  0.41711  0.00000  0.16578
      14     H     0.42907  0.42907  0.00000  0.14187

   Total alpha = 21.00000, Total beta = 21.00000, Total charge =  0.00000


*** PSI4 exiting successfully. Buy a developer a beer!
