    -----------------------------------------------------------------------
          Psi4: An Open-Source Ab Initio Electronic Structure Package
                              Psi4 (no tag) Driver

                          Git: Rev {detached?}  

    J. M. Turney, A. C. Simmonett, R. M. Parrish, E. G. Hohenstein,
    F. A. Evangelista, J. T. Fermann, B. J. Mintz, L. A. Burns, J. J. Wilke,
    M. L. Abrams, N. J. Russ, M. L. Leininger, C. L. Janssen, E. T. Seidl,
    W. D. Allen, H. F. Schaefer, R. A. King, E. F. Valeev, C. D. Sherrill,
    and T. D. Crawford, WIREs Comput. Mol. Sci. 2, 556-565 (2012)
    (doi: 10.1002/wcms.93)

                         Additional Contributions by
    A. E. DePrince, M. Saitow, U. Bozkaya, A. Yu. Sokolov
    -----------------------------------------------------------------------


    Psi4 started on: Tue Jul  5 16:41:45 2016

    Process ID:  23163
    PSI4DATADIR: /export131/home/mjharvey/miniconda3/share
    Memory level set to 256.000 MB

  ==> Input File <==

--------------------------------------------------------------------------
set {
	reference rhf
	basis 6-31G*
}


set_num_threads( 1 )
memory 2 gb

molecule MOL {
0 1

H	 -2.698709	 -0.000305	 0.034435
C	 -1.693833	 0.000034	 0.434417
O	 -0.828952	 -0.000968	 -0.659236
H	 -1.574200	 0.882896	 1.055746
H	 -1.574147	 -0.881698	 1.057355
C	 -0.895823	 1.069409	 -1.572650
C	 -2.128673	 0.995751	 -2.471300
C	 -0.753849	 2.429479	 -0.892199
H	 -0.022057	 0.917020	 -2.195018
H	 -2.225170	 0.002718	 -2.896886
H	 -2.037444	 1.707798	 -3.285488
H	 -3.042877	 1.229375	 -1.934817
H	 0.100755	 2.428580	 -0.224285
H	 -0.602225	 3.203537	 -1.638060
H	 -1.636314	 2.696795	 -0.319802

	symmetry c1
}
set optking {
	frozen_dihedral = ("
		9 6 3 2
	")
}

ee = energy('scf')
oeprop('DIPOLE', 'QUADRUPOLE', 'MULLIKEN_CHARGES')
f=open( 'psi4out.xyz', 'w' )
f.write( "15  " )
f.write( str(ee) + "\n" )
f.write( MOL.save_string_xyz() )
f.close()
--------------------------------------------------------------------------

  Memory set to   2.000 GiB by Python script.

*** tstart() called on cx1-3-4-2.cx1.hpc.ic.ac.uk
*** at Tue Jul  5 16:41:46 2016


         ---------------------------------------------------------
                                   SCF
            by Justin Turney, Rob Parrish, and Andy Simmonett
                              RHF Reference
                        1 Threads,   2000 MiB Core
         ---------------------------------------------------------

  ==> Geometry <==

    Molecular point group: c1
    Full point group: C1

    Geometry (in Angstrom), charge = 0, multiplicity = 1:

       Center              X                  Y                   Z               Mass       
    ------------   -----------------  -----------------  -----------------  -----------------
           H         -1.424869000494    -0.894052019174     1.046852814102     1.007825032070
           C         -0.419993000494    -0.893713019174     1.446834814102    12.000000000000
           O          0.444887999506    -0.894715019174     0.353181814102    15.994914619560
           H         -0.300360000494    -0.010851019174     2.068163814102     1.007825032070
           H         -0.300307000494    -1.775445019174     2.069772814102     1.007825032070
           C          0.378016999506     0.175661980826    -0.560232185898    12.000000000000
           C         -0.854833000494     0.102003980826    -1.458882185898    12.000000000000
           C          0.519990999506     1.535731980826     0.120218814102    12.000000000000
           H          1.251782999506     0.023272980826    -1.182600185898     1.007825032070
           H         -0.951330000494    -0.891029019174    -1.884468185898     1.007825032070
           H         -0.763604000494     0.814050980826    -2.273070185898     1.007825032070
           H         -1.769037000494     0.335627980826    -0.922399185898     1.007825032070
           H          1.374594999506     1.534832980826     0.788132814102     1.007825032070
           H          0.671614999506     2.309789980826    -0.625642185898     1.007825032070
           H         -0.362474000494     1.803047980826     0.692615814102     1.007825032070

  Running in c1 symmetry.

  Rotational constants: A =      0.21832  B =      0.14012  C =      0.10825 [cm^-1]
  Rotational constants: A =   6545.21682  B =   4200.70822  C =   3245.22725 [MHz]
  Nuclear repulsion =  198.915084478844562

  Charge       = 0
  Multiplicity = 1
  Electrons    = 42
  Nalpha       = 21
  Nbeta        = 21

  ==> Algorithm <==

  SCF Algorithm Type is DF.
  DIIS enabled.
  MOM disabled.
  Fractional occupation disabled.
  Guess Type is CORE.
  Energy threshold   = 1.00e-06
  Density threshold  = 1.00e-06
  Integral threshold = 0.00e+00

  ==> Primary Basis <==

  Basis Set: 6-31G*
    Number of shells: 50
    Number of basis function: 95
    Number of Cartesian functions: 95
    Spherical Harmonics?: false
    Max angular momentum: 2

  ==> Pre-Iterations <==

   -------------------------------------------------------
    Irrep   Nso     Nmo     Nalpha   Nbeta   Ndocc  Nsocc
   -------------------------------------------------------
     A         95      95       0       0       0       0
   -------------------------------------------------------
    Total      95      95      21      21      21       0
   -------------------------------------------------------

 OEINTS: Overlap, kinetic, potential, dipole, and quadrupole integrals
         stored in file 35.

  ==> Integral Setup <==

  ==> DFJK: Density-Fitted J/K Matrices <==

    J tasked:                  Yes
    K tasked:                  Yes
    wK tasked:                  No
    OpenMP threads:              1
    Integrals threads:           1
    Memory (MB):              1430
    Algorithm:                Core
    Integral Cache:           NONE
    Schwarz Cutoff:          1E-12
    Fitting Condition:       1E-12

   => Auxiliary Basis Set <=

  Basis Set: 
    Number of shells: 210
    Number of basis function: 655
    Number of Cartesian functions: 655
    Spherical Harmonics?: false
    Max angular momentum: 3

  Minimum eigenvalue in the overlap matrix is 4.2347946621E-03.
  Using Symmetric Orthogonalization.
  SCF Guess: Core (One-Electron) Hamiltonian.

  ==> Iterations <==

                           Total Energy        Delta E     RMS |[F,P]|

   @DF-RHF iter   1:  -180.65074025236430   -1.80651e+02   8.51112e-02 
   @DF-RHF iter   2:  -185.76579589717198   -5.11506e+00   5.18592e-02 DIIS
   @DF-RHF iter   3:  -205.39382505078623   -1.96280e+01   6.14401e-02 DIIS
   @DF-RHF iter   4:  -227.04579862832588   -2.16520e+01   3.30797e-02 DIIS
   @DF-RHF iter   5:  -230.41425191324851   -3.36845e+00   1.88926e-02 DIIS
   @DF-RHF iter   6:  -231.89221006671806   -1.47796e+00   6.76466e-03 DIIS
   @DF-RHF iter   7:  -232.12221231398058   -2.30002e-01   1.29781e-03 DIIS
   @DF-RHF iter   8:  -232.13387129183985   -1.16590e-02   3.51193e-04 DIIS
   @DF-RHF iter   9:  -232.13483231209909   -9.61020e-04   1.28688e-04 DIIS
   @DF-RHF iter  10:  -232.13493086113948   -9.85490e-05   3.52949e-05 DIIS
   @DF-RHF iter  11:  -232.13494169635106   -1.08352e-05   1.63752e-05 DIIS
   @DF-RHF iter  12:  -232.13494310699372   -1.41064e-06   2.45453e-06 DIIS
   @DF-RHF iter  13:  -232.13494316865740   -6.16637e-08   6.19486e-07 DIIS

  ==> Post-Iterations <==

    Orbital Energies (a.u.)
    -----------------------

    Doubly Occupied:                                                      

       1A    -20.546266     2A    -11.275181     3A    -11.261334  
       4A    -11.211787     5A    -11.209770     6A     -1.369721  
       7A     -1.050273     8A     -0.940950     9A     -0.930317  
      10A     -0.781241    11A     -0.673481    12A     -0.642447  
      13A     -0.632409    14A     -0.577734    15A     -0.564286  
      16A     -0.550164    17A     -0.533514    18A     -0.500185  
      19A     -0.497008    20A     -0.441150    21A     -0.404151  

    Virtual:                                                              

      22A      0.224258    23A      0.273018    24A      0.281700  
      25A      0.293119    26A      0.306847    27A      0.322896  
      28A      0.337256    29A      0.343526    30A      0.348704  
      31A      0.351622    32A      0.380212    33A      0.401484  
      34A      0.455719    35A      0.460427    36A      0.704361  
      37A      0.723992    38A      0.736769    39A      0.767519  
      40A      0.794710    41A      0.821124    42A      0.853945  
      43A      0.898048    44A      0.963479    45A      0.974855  
      46A      1.001566    47A      1.049923    48A      1.114270  
      49A      1.138334    50A      1.158898    51A      1.171780  
      52A      1.177991    53A      1.188350    54A      1.196469  
      55A      1.207816    56A      1.236289    57A      1.268060  
      58A      1.281609    59A      1.286510    60A      1.436386  
      61A      1.461856    62A      1.594524    63A      1.625007  
      64A      1.674009    65A      1.688295    66A      1.830017  
      67A      1.916910    68A      1.953603    69A      2.060860  
      70A      2.074057    71A      2.117809    72A      2.206694  
      73A      2.241432    74A      2.336243    75A      2.407029  
      76A      2.455486    77A      2.476916    78A      2.496039  
      79A      2.567515    80A      2.582323    81A      2.609736  
      82A      2.616403    83A      2.704770    84A      2.749074  
      85A      2.828635    86A      2.883113    87A      2.970402  
      88A      3.119417    89A      3.211988    90A      3.302015  
      91A      4.376965    92A      4.625226    93A      4.686277  
      94A      4.719187    95A      4.970304  

    Final Occupation by Irrep:
              A 
    DOCC [    21 ]

  Energy converged.

  @DF-RHF Final Energy:  -232.13494316865740

   => Energetics <=

    Nuclear Repulsion Energy =            198.9150844788445625
    One-Electron Energy =                -708.9132159637367749
    Two-Electron Energy =                 277.8631883162342433
    DFT Exchange-Correlation Energy =       0.0000000000000000
    Empirical Dispersion Energy =           0.0000000000000000
    PCM Polarization Energy =               0.0000000000000000
    EFP Energy =                            0.0000000000000000
    Total Energy =                       -232.1349431686579692

    Alert: EFP and PCM quantities not currently incorporated into SCF psivars.

Properties will be evaluated at   0.000000,   0.000000,   0.000000 Bohr
  ==> Properties <==


Properties computed using the SCF density matrix

  Nuclear Dipole Moment: (a.u.)
     X:    -2.4109      Y:     3.0418      Z:    -0.2070

  Electronic Dipole Moment: (a.u.)
     X:     2.0633      Y:    -2.6066      Z:     0.2655

  Dipole Moment: (a.u.)
     X:    -0.3476      Y:     0.4352      Z:     0.0585     Total:     0.5601

  Dipole Moment: (Debye)
     X:    -0.8835      Y:     1.1062      Z:     0.1487     Total:     1.4235


  Saving occupied orbitals to File 180.

*** tstop() called on cx1-3-4-2.cx1.hpc.ic.ac.uk at Tue Jul  5 16:41:51 2016
Module time:
	user time   =       5.02 seconds =       0.08 minutes
	system time =       0.04 seconds =       0.00 minutes
	total time  =          5 seconds =       0.08 minutes
Total time:
	user time   =       5.02 seconds =       0.08 minutes
	system time =       0.04 seconds =       0.00 minutes
	total time  =          5 seconds =       0.08 minutes


Properties will be evaluated at   0.000000,   0.000000,   0.000000 Bohr

Properties computed using the  density matrix

  Nuclear Dipole Moment: (a.u.)
     X:    -2.4109      Y:     3.0418      Z:    -0.2070

  Electronic Dipole Moment: (a.u.)
     X:     2.0633      Y:    -2.6066      Z:     0.2655

  Dipole Moment: (a.u.)
     X:    -0.3476      Y:     0.4352      Z:     0.0585     Total:     0.5601

  Dipole Moment: (Debye)
     X:    -0.8835      Y:     1.1062      Z:     0.1487     Total:     1.4235

  Quadrupole Moment: (Debye Ang)
    XX:   -33.7172     YY:   -34.4012     ZZ:   -30.9042
    XY:     1.5789     XZ:    -1.3262     YZ:    -0.9916

  Traceless Quadrupole Moment: (Debye Ang)
    XX:    -0.7097     YY:    -1.3937     ZZ:     2.1033
    XY:     1.5789     XZ:    -1.3262     YZ:    -0.9916

  Mulliken Charges: (a.u.)
   Center  Symbol    Alpha    Beta     Spin     Total
       1     H     0.43069  0.43069  0.00000  0.13863
       2     C     3.08116  3.08116  0.00000 -0.16233
       3     O     4.31368  4.31368  0.00000 -0.62735
       4     H     0.42853  0.42853  0.00000  0.14293
       5     H     0.41210  0.41210  0.00000  0.17581
       6     C     2.90791  2.90791  0.00000  0.18417
       7     C     3.25090  3.25090  0.00000 -0.50181
       8     C     3.25746  3.25746  0.00000 -0.51492
       9     H     0.41486  0.41486  0.00000  0.17027
      10     H     0.41104  0.41104  0.00000  0.17791
      11     H     0.42027  0.42027  0.00000  0.15946
      12     H     0.42168  0.42168  0.00000  0.15664
      13     H     0.41140  0.41140  0.00000  0.17719
      14     H     0.41786  0.41786  0.00000  0.16429
      15     H     0.42045  0.42045  0.00000  0.15910

   Total alpha = 21.00000, Total beta = 21.00000, Total charge =  0.00000


*** PSI4 exiting successfully. Buy a developer a beer!
