    -----------------------------------------------------------------------
          Psi4: An Open-Source Ab Initio Electronic Structure Package
                              Psi4 (no tag) Driver

                          Git: Rev {detached?}  

    J. M. Turney, A. C. Simmonett, R. M. Parrish, E. G. Hohenstein,
    F. A. Evangelista, J. T. Fermann, B. J. Mintz, L. A. Burns, J. J. Wilke,
    M. L. Abrams, N. J. Russ, M. L. Leininger, C. L. Janssen, E. T. Seidl,
    W. D. Allen, H. F. Schaefer, R. A. King, E. F. Valeev, C. D. Sherrill,
    and T. D. Crawford, WIREs Comput. Mol. Sci. 2, 556-565 (2012)
    (doi: 10.1002/wcms.93)

                         Additional Contributions by
    A. E. DePrince, M. Saitow, U. Bozkaya, A. Yu. Sokolov
    -----------------------------------------------------------------------


    Psi4 started on: Tue Jul  5 16:20:37 2016

    Process ID:  25042
    PSI4DATADIR: /export131/home/mjharvey/miniconda3/share
    Memory level set to 256.000 MB

  ==> Input File <==

--------------------------------------------------------------------------
set {
	reference rhf
	basis 6-31G*
}


set_num_threads( 1 )
memory 2 gb

molecule MOL {
0 1

H	 -0.216795	 0.021366	 -3.357402
C	 0.374228	 0.036390	 -2.447010
C	 -0.521727	 -0.028640	 -1.217342
H	 0.969632	 0.942319	 -2.434777
H	 1.053394	 -0.811671	 -2.481329
N	 0.263430	 0.031175	 -0.000000
H	 -1.199005	 0.820287	 -1.219355
H	 -1.147871	 -0.924898	 -1.265384
C	 -0.521727	 -0.028640	 1.217342
H	 0.935799	 -0.712712	 -0.000000
C	 0.374228	 0.036390	 2.447010
H	 -1.199005	 0.820287	 1.219355
H	 -1.147871	 -0.924898	 1.265384
H	 0.969632	 0.942319	 2.434777
H	 -0.216795	 0.021366	 3.357402
H	 1.053394	 -0.811671	 2.481329

	symmetry c1
}
ee = energy('scf')
oeprop('DIPOLE', 'QUADRUPOLE', 'MULLIKEN_CHARGES')
oeprop('GRID_ESP')
f=open( 'psi4out.xyz', 'w' )
f.write( "16  " )
f.write( str(ee) + "\n" )
f.write( MOL.save_string_xyz() )
f.close()
--------------------------------------------------------------------------

  Memory set to   2.000 GiB by Python script.

*** tstart() called on cx1-3-1-3.cx1.hpc.ic.ac.uk
*** at Tue Jul  5 16:20:37 2016


         ---------------------------------------------------------
                                   SCF
            by Justin Turney, Rob Parrish, and Andy Simmonett
                              RHF Reference
                        1 Threads,   2000 MiB Core
         ---------------------------------------------------------

  ==> Geometry <==

    Molecular point group: c1
    Full point group: Cs

    Geometry (in Angstrom), charge = 0, multiplicity = 1:

       Center              X                  Y                   Z               Mass       
    ------------   -----------------  -----------------  -----------------  -----------------
           H         -0.216825432880     0.021368672109    -3.357402000000     1.007825032070
           C          0.374197567120     0.036392672109    -2.447010000000    12.000000000000
           C         -0.521757432880    -0.028637327891    -1.217342000000    12.000000000000
           H          0.969601567120     0.942321672109    -2.434777000000     1.007825032070
           H          1.053363567120    -0.811668327891    -2.481329000000     1.007825032070
           N          0.263399567120     0.031177672109     0.000000000000    14.003074004780
           H         -1.199035432880     0.820289672109    -1.219355000000     1.007825032070
           H         -1.147901432880    -0.924895327891    -1.265384000000     1.007825032070
           C         -0.521757432880    -0.028637327891     1.217342000000    12.000000000000
           H          0.935768567120    -0.712709327891     0.000000000000     1.007825032070
           C          0.374197567120     0.036392672109     2.447010000000    12.000000000000
           H         -1.199035432880     0.820289672109     1.219355000000     1.007825032070
           H         -1.147901432880    -0.924895327891     1.265384000000     1.007825032070
           H          0.969601567120     0.942321672109     2.434777000000     1.007825032070
           H         -0.216825432880     0.021368672109     3.357402000000     1.007825032070
           H          1.053363567120    -0.811668327891     2.481329000000     1.007825032070

  Running in c1 symmetry.

  Rotational constants: A =      0.59558  B =      0.07043  C =      0.06634 [cm^-1]
  Rotational constants: A =  17855.09971  B =   2111.50983  C =   1988.75733 [MHz]
  Nuclear repulsion =  189.184919419007059

  Charge       = 0
  Multiplicity = 1
  Electrons    = 42
  Nalpha       = 21
  Nbeta        = 21

  ==> Algorithm <==

  SCF Algorithm Type is DF.
  DIIS enabled.
  MOM disabled.
  Fractional occupation disabled.
  Guess Type is CORE.
  Energy threshold   = 1.00e-06
  Density threshold  = 1.00e-06
  Integral threshold = 0.00e+00

  ==> Primary Basis <==

  Basis Set: 6-31G*
    Number of shells: 52
    Number of basis function: 97
    Number of Cartesian functions: 97
    Spherical Harmonics?: false
    Max angular momentum: 2

  ==> Pre-Iterations <==

   -------------------------------------------------------
    Irrep   Nso     Nmo     Nalpha   Nbeta   Ndocc  Nsocc
   -------------------------------------------------------
     A         97      97       0       0       0       0
   -------------------------------------------------------
    Total      97      97      21      21      21       0
   -------------------------------------------------------

 OEINTS: Overlap, kinetic, potential, dipole, and quadrupole integrals
         stored in file 35.

  ==> Integral Setup <==

  ==> DFJK: Density-Fitted J/K Matrices <==

    J tasked:                  Yes
    K tasked:                  Yes
    wK tasked:                  No
    OpenMP threads:              1
    Integrals threads:           1
    Memory (MB):              1430
    Algorithm:                Core
    Integral Cache:           NONE
    Schwarz Cutoff:          1E-12
    Fitting Condition:       1E-12

   => Auxiliary Basis Set <=

  Basis Set: 
    Number of shells: 219
    Number of basis function: 680
    Number of Cartesian functions: 680
    Spherical Harmonics?: false
    Max angular momentum: 3

  Minimum eigenvalue in the overlap matrix is 4.2090679679E-03.
  Using Symmetric Orthogonalization.
  SCF Guess: Core (One-Electron) Hamiltonian.

  ==> Iterations <==

                           Total Energy        Delta E     RMS |[F,P]|

   @DF-RHF iter   1:  -147.81525679893829   -1.47815e+02   8.29733e-02 
   @DF-RHF iter   2:  -155.51565384499517   -7.70040e+00   5.71886e-02 DIIS
   @DF-RHF iter   3:  -179.44179609590410   -2.39261e+01   5.74639e-02 DIIS
   @DF-RHF iter   4:  -211.82975496795629   -3.23880e+01   9.03644e-03 DIIS
   @DF-RHF iter   5:  -212.28201208940223   -4.52257e-01   2.43904e-03 DIIS
   @DF-RHF iter   6:  -212.31147489320423   -2.94628e-02   6.62562e-04 DIIS
   @DF-RHF iter   7:  -212.31372262266754   -2.24773e-03   2.23173e-04 DIIS
   @DF-RHF iter   8:  -212.31393860358114   -2.15981e-04   7.03539e-05 DIIS
   @DF-RHF iter   9:  -212.31397001891131   -3.14153e-05   2.04487e-05 DIIS
   @DF-RHF iter  10:  -212.31397272376390   -2.70485e-06   4.99760e-06 DIIS
   @DF-RHF iter  11:  -212.31397289461106   -1.70847e-07   1.67550e-06 DIIS
   @DF-RHF iter  12:  -212.31397291610759   -2.14965e-08   3.88007e-07 DIIS

  ==> Post-Iterations <==

    Orbital Energies (a.u.)
    -----------------------

    Doubly Occupied:                                                      

       1A    -15.534236     2A    -11.240566     3A    -11.240548  
       4A    -11.208252     5A    -11.208251     6A     -1.205626  
       7A     -1.028145     8A     -0.962765     9A     -0.831967  
      10A     -0.821555    11A     -0.661857    12A     -0.628217  
      13A     -0.598811    14A     -0.588194    15A     -0.553701  
      16A     -0.521070    17A     -0.508347    18A     -0.488796  
      19A     -0.482049    20A     -0.473944    21A     -0.359849  

    Virtual:                                                              

      22A      0.231005    23A      0.256218    24A      0.269546  
      25A      0.291121    26A      0.317606    27A      0.320986  
      28A      0.325258    29A      0.331112    30A      0.349728  
      31A      0.356430    32A      0.356711    33A      0.394859  
      34A      0.431992    35A      0.453434    36A      0.458130  
      37A      0.699316    38A      0.737827    39A      0.738052  
      40A      0.751936    41A      0.770041    42A      0.803895  
      43A      0.874432    44A      0.891135    45A      0.925614  
      46A      0.959804    47A      0.962669    48A      1.066250  
      49A      1.076019    50A      1.117206    51A      1.165752  
      52A      1.166816    53A      1.173307    54A      1.176045  
      55A      1.203094    56A      1.206409    57A      1.220811  
      58A      1.237434    59A      1.244587    60A      1.258105  
      61A      1.275542    62A      1.287215    63A      1.352734  
      64A      1.548443    65A      1.627136    66A      1.688636  
      67A      1.725299    68A      1.757037    69A      1.908664  
      70A      1.946449    71A      2.033606    72A      2.107740  
      73A      2.226592    74A      2.261508    75A      2.267246  
      76A      2.317385    77A      2.334227    78A      2.404718  
      79A      2.408866    80A      2.444799    81A      2.566108  
      82A      2.593209    83A      2.624836    84A      2.658662  
      85A      2.674838    86A      2.780517    87A      2.806777  
      88A      2.819216    89A      2.936536    90A      3.012539  
      91A      3.169817    92A      3.236903    93A      4.349181  
      94A      4.625372    95A      4.629982    96A      4.819327  
      97A      4.898730  

    Final Occupation by Irrep:
              A 
    DOCC [    21 ]

  Energy converged.

  @DF-RHF Final Energy:  -212.31397291610759

   => Energetics <=

    Nuclear Repulsion Energy =            189.1849194190070591
    One-Electron Energy =                -660.7040827107141467
    Two-Electron Energy =                 259.2051903755992726
    DFT Exchange-Correlation Energy =       0.0000000000000000
    Empirical Dispersion Energy =           0.0000000000000000
    PCM Polarization Energy =               0.0000000000000000
    EFP Energy =                            0.0000000000000000
    Total Energy =                       -212.3139729161077867

    Alert: EFP and PCM quantities not currently incorporated into SCF psivars.

Properties will be evaluated at   0.000000,   0.000000,   0.000000 Bohr
  ==> Properties <==


Properties computed using the SCF density matrix

  Nuclear Dipole Moment: (a.u.)
     X:    -0.1375      Y:    -0.5793      Z:    -0.0000

  Electronic Dipole Moment: (a.u.)
     X:    -0.0226      Y:     0.2196      Z:    -0.0000

  Dipole Moment: (a.u.)
     X:    -0.1601      Y:    -0.3597      Z:    -0.0000     Total:     0.3938

  Dipole Moment: (Debye)
     X:    -0.4069      Y:    -0.9144      Z:    -0.0000     Total:     1.0008


  Saving occupied orbitals to File 180.

*** tstop() called on cx1-3-1-3.cx1.hpc.ic.ac.uk at Tue Jul  5 16:20:43 2016
Module time:
	user time   =       4.94 seconds =       0.08 minutes
	system time =       0.04 seconds =       0.00 minutes
	total time  =          6 seconds =       0.10 minutes
Total time:
	user time   =       4.94 seconds =       0.08 minutes
	system time =       0.04 seconds =       0.00 minutes
	total time  =          6 seconds =       0.10 minutes


Properties will be evaluated at   0.000000,   0.000000,   0.000000 Bohr

Properties computed using the  density matrix

  Nuclear Dipole Moment: (a.u.)
     X:    -0.1375      Y:    -0.5793      Z:    -0.0000

  Electronic Dipole Moment: (a.u.)
     X:    -0.0226      Y:     0.2196      Z:    -0.0000

  Dipole Moment: (a.u.)
     X:    -0.1601      Y:    -0.3597      Z:    -0.0000     Total:     0.3938

  Dipole Moment: (Debye)
     X:    -0.4069      Y:    -0.9144      Z:    -0.0000     Total:     1.0008

  Quadrupole Moment: (Debye Ang)
    XX:   -34.2480     YY:   -34.0885     ZZ:   -33.4521
    XY:    -1.6603     XZ:     0.0000     YZ:     0.0000

  Traceless Quadrupole Moment: (Debye Ang)
    XX:    -0.3185     YY:    -0.1590     ZZ:     0.4774
    XY:    -1.6603     XZ:     0.0000     YZ:     0.0000

  Mulliken Charges: (a.u.)
   Center  Symbol    Alpha    Beta     Spin     Total
       1     H     0.42021  0.42021  0.00000  0.15957
       2     C     3.24210  3.24210  0.00000 -0.48421
       3     C     3.05261  3.05261  0.00000 -0.10522
       4     H     0.41197  0.41197  0.00000  0.17606
       5     H     0.42487  0.42487  0.00000  0.15025
       6     N     3.84926  3.84926  0.00000 -0.69852
       7     H     0.42043  0.42043  0.00000  0.15913
       8     H     0.43528  0.43528  0.00000  0.12944
       9     C     3.05261  3.05261  0.00000 -0.10522
      10     H     0.33578  0.33578  0.00000  0.32843
      11     C     3.24210  3.24210  0.00000 -0.48421
      12     H     0.42043  0.42043  0.00000  0.15913
      13     H     0.43528  0.43528  0.00000  0.12944
      14     H     0.41197  0.41197  0.00000  0.17606
      15     H     0.42021  0.42021  0.00000  0.15957
      16     H     0.42487  0.42487  0.00000  0.15025

   Total alpha = 21.00000, Total beta = 21.00000, Total charge =  0.00000



Properties will be evaluated at   0.000000,   0.000000,   0.000000 Bohr

Properties computed using the  density matrix


 Electrostatic potential computed on the grid and written to grid_esp.dat

*** PSI4 exiting successfully. Buy a developer a beer!
