
    -----------------------------------------------------------------------
          Psi4: An Open-Source Ab Initio Electronic Structure Package
                               Psi4 1.1 release

                         Git: Rev {HEAD} add49b9 


    R. M. Parrish, L. A. Burns, D. G. A. Smith, A. C. Simmonett,
    A. E. DePrince III, E. G. Hohenstein, U. Bozkaya, A. Yu. Sokolov,
    R. Di Remigio, R. M. Richard, J. F. Gonthier, A. M. James,
    H. R. McAlexander, A. Kumar, M. Saitow, X. Wang, B. P. Pritchard,
    P. Verma, H. F. Schaefer III, K. Patkowski, R. A. King, E. F. Valeev,
    F. A. Evangelista, J. M. Turney, T. D. Crawford, and C. D. Sherrill,
    J. Chem. Theory Comput. in press (2017).
    (doi: 10.1021/acs.jctc.7b00174)

    -----------------------------------------------------------------------


    Psi4 started on: Friday, 11 August 2017 06:39PM

    Process ID:  28839
    PSIDATADIR: /home/raimis/opt/miniconda3/envs/htmd/share/psi4
    Memory:     500.0 MiB
    Threads:    1
    
  ==> Input File <==

--------------------------------------------------------------------------
set {
	reference rks
	basis 6-31G*
}


set_num_threads( 8 )
memory 2 gb

molecule MOL {
1 1

C	 -0.000000	 -0.000000	 -0.191639
C	 -1.219315	 -0.038588	 0.510391
C	 -1.212770	 -0.043106	 1.901670
C	 -0.000000	 0.000000	 2.596333
C	 1.212770	 0.043106	 1.901670
C	 1.219315	 0.038587	 0.510391
C	 -0.000000	 -0.000000	 -1.658508
H	 -2.161706	 -0.115355	 -0.024627
H	 -2.151412	 -0.090441	 2.444112
H	 -0.000000	 0.000000	 3.681982
H	 2.151412	 0.090442	 2.444112
H	 2.161706	 0.115355	 -0.024627
N	 -0.712589	 -0.905950	 -2.322235
N	 0.712590	 0.905950	 -2.322235
H	 0.673432	 1.006470	 -3.329771
H	 1.377190	 1.485970	 -1.827091
H	 -1.377189	 -1.485970	 -1.827091
H	 -0.673431	 -1.006470	 -3.329771

	symmetry c1
}
set optking { dynamic_level = 1 }
set optking {
	frozen_dihedral = ("
		2 1 7 13
	")
}

ee,wfn = optimize('b3lyp-d3', return_wfn=True)
oeprop( wfn, 'DIPOLE', 'QUADRUPOLE', 'MULLIKEN_CHARGES')
f=open( 'psi4out.xyz', 'w' )
f.write( "18  " )
f.write( str(ee) + "\n" )
f.write( MOL.save_string_xyz() )
f.close()
--------------------------------------------------------------------------
  Threads set to 8 by Python driver.

  Memory set to   1.863 GiB by Python driver.
gradient() will perform analytic gradient computation.

*** tstart() called on computer03
*** at Fri Aug 11 18:39:23 2017

   => Loading Basis Set <=

    Name: 6-31G*
    Role: ORBITAL
    Keyword: BASIS
    atoms 1-7         entry C          line   102 file /home/raimis/opt/miniconda3/envs/htmd/share/psi4/basis/6-31gs.gbs 
    atoms 8-12, 15-18 entry H          line    35 file /home/raimis/opt/miniconda3/envs/htmd/share/psi4/basis/6-31gs.gbs 
    atoms 13-14       entry N          line   119 file /home/raimis/opt/miniconda3/envs/htmd/share/psi4/basis/6-31gs.gbs 


         ---------------------------------------------------------
                                   SCF
            by Justin Turney, Rob Parrish, and Andy Simmonett
                              RKS Reference
                        8 Threads,   1907 MiB Core
         ---------------------------------------------------------

  ==> Geometry <==

    Molecular point group: c1
    Full point group: C1

    Geometry (in Angstrom), charge = 1, multiplicity = 1:

       Center              X                  Y                   Z               Mass       
    ------------   -----------------  -----------------  -----------------  -----------------
           C         -0.000000132302     0.000000090787    -0.191639316978    12.000000000000
           C         -1.219315132302    -0.038587909213     0.510390683022    12.000000000000
           C         -1.212770132302    -0.043105909213     1.901669683022    12.000000000000
           C         -0.000000132302     0.000000090787     2.596332683022    12.000000000000
           C          1.212769867698     0.043106090787     1.901669683022    12.000000000000
           C          1.219314867698     0.038587090787     0.510390683022    12.000000000000
           C         -0.000000132302     0.000000090787    -1.658508316978    12.000000000000
           H         -2.161706132302    -0.115354909213    -0.024627316978     1.007825032070
           H         -2.151412132302    -0.090440909213     2.444111683022     1.007825032070
           H         -0.000000132302     0.000000090787     3.681981683022     1.007825032070
           H          2.151411867698     0.090442090787     2.444111683022     1.007825032070
           H          2.161705867698     0.115355090787    -0.024627316978     1.007825032070
           N         -0.712589132302    -0.905949909213    -2.322235316978    14.003074004780
           N          0.712589867698     0.905950090787    -2.322235316978    14.003074004780
           H          0.673431867698     1.006470090787    -3.329771316978     1.007825032070
           H          1.377189867698     1.485970090787    -1.827091316978     1.007825032070
           H         -1.377189132302    -1.485969909213    -1.827091316978     1.007825032070
           H         -0.673431132302    -1.006469909213    -3.329771316978     1.007825032070

  Running in c1 symmetry.

  Rotational constants: A =      0.12190  B =      0.03879  C =      0.03180 [cm^-1]
  Rotational constants: A =   3654.48854  B =   1163.00654  C =    953.29505 [MHz]
  Nuclear repulsion =  416.581076913436334

  Charge       = 1
  Multiplicity = 1
  Electrons    = 64
  Nalpha       = 32
  Nbeta        = 32

  ==> Algorithm <==

  SCF Algorithm Type is DF.
  DIIS enabled.
  MOM disabled.
  Fractional occupation disabled.
  Guess Type is SAD.
  Energy threshold   = 1.00e-08
  Density threshold  = 1.00e-08
  Integral threshold = 0.00e+00

  ==> Primary Basis <==

  Basis Set: 6-31G*
    Blend: 6-31G*
    Number of shells: 72
    Number of basis function: 153
    Number of Cartesian functions: 153
    Spherical Harmonics?: false
    Max angular momentum: 2

  ==> DFT Potential <==

   => B3LYP Composite Functional <= 

    B3LYP Hybrid-GGA Exchange-Correlation Functional (VWN1-RPA)

    P.J. Stephens et. al., J. Phys. Chem., 98, 11623-11627, 1994

    Points   =           5000
    Deriv    =              1
    GGA      =           TRUE
    Meta     =          FALSE

    X_LRC        =          FALSE
    X_Hybrid     =           TRUE
    X_Alpha      =   2.000000E-01
    X_Omega      =   0.000000E+00
    C_LRC        =          FALSE
    C_Hybrid     =          FALSE
    C_Alpha      =   0.000000E+00
    C_Omega      =   0.000000E+00

   => Exchange Functionals <=

    0.8000    B3_X
    0.2000      HF 

   => Correlation Functionals <=

    0.1900 VWN3RPA_C
    0.8100   LYP_C

   => Molecular Quadrature <=

    Radial Scheme    =       TREUTLER
    Pruning Scheme   =           FLAT
    Nuclear Scheme   =       TREUTLER

    BS radius alpha  =              1
    Pruning alpha    =              1
    Radial Points    =             75
    Spherical Points =            302
    Total Points     =         396988
    Total Blocks     =            366
    Max Points       =           4997
    Max Functions    =            152

   => -D3ZERO: Empirical Dispersion <=

    Grimme's -D3 (zero-damping) Dispersion Correction
    Grimme S.; Antony J.; Ehrlich S.; Krieg H. (2010), J. Chem. Phys., 132: 154104

        S6 =   1.000000E+00
        S8 =   1.703000E+00
       SR6 =   1.261000E+00
    ALPHA6 =   1.400000E+01

   => Loading Basis Set <=

    Name: (6-31G* AUX)
    Role: JKFIT
    Keyword: DF_BASIS_SCF
    atoms 1-7         entry C          line   120 file /home/raimis/opt/miniconda3/envs/htmd/share/psi4/basis/cc-pvdz-jkfit.gbs 
    atoms 8-12, 15-18 entry H          line    50 file /home/raimis/opt/miniconda3/envs/htmd/share/psi4/basis/cc-pvdz-jkfit.gbs 
    atoms 13-14       entry N          line   170 file /home/raimis/opt/miniconda3/envs/htmd/share/psi4/basis/cc-pvdz-jkfit.gbs 

  ==> Pre-Iterations <==

   -------------------------------------------------------
    Irrep   Nso     Nmo     Nalpha   Nbeta   Ndocc  Nsocc
   -------------------------------------------------------
     A        153     153       0       0       0       0
   -------------------------------------------------------
    Total     153     153      32      32      32       0
   -------------------------------------------------------

  ==> Integral Setup <==

  ==> DFJK: Density-Fitted J/K Matrices <==

    J tasked:                  Yes
    K tasked:                  Yes
    wK tasked:                  No
    OpenMP threads:              8
    Integrals threads:           8
    Memory (MB):              1430
    Algorithm:                Core
    Integral Cache:           NONE
    Schwarz Cutoff:          1E-12
    Fitting Condition:       1E-12

   => Auxiliary Basis Set <=

  Basis Set: (6-31G* AUX)
    Blend: CC-PVDZ-JKFIT
    Number of shells: 297
    Number of basis function: 954
    Number of Cartesian functions: 954
    Spherical Harmonics?: false
    Max angular momentum: 3

  Minimum eigenvalue in the overlap matrix is 4.8708114644E-04.
  Using Symmetric Orthogonalization.

  SCF Guess: Superposition of Atomic Densities via on-the-fly atomic UHF.

  ==> Iterations <==

                           Total Energy        Delta E     RMS |[F,P]|

   @DF-RKS iter   0:  -380.34141377879439   -3.80341e+02   6.95224e-02 
   @DF-RKS iter   1:  -381.12585670347090   -7.84443e-01   1.04632e-02 
   @DF-RKS iter   2:  -381.06609782873937    5.97589e-02   7.33671e-03 DIIS
   @DF-RKS iter   3:  -381.45945463270112   -3.93357e-01   1.36988e-03 DIIS
   @DF-RKS iter   4:  -381.46322542633101   -3.77079e-03   7.08324e-04 DIIS
   @DF-RKS iter   5:  -381.46472777492028   -1.50235e-03   2.63013e-04 DIIS
   @DF-RKS iter   6:  -381.46494863946492   -2.20865e-04   7.23278e-05 DIIS
   @DF-RKS iter   7:  -381.46496396447685   -1.53250e-05   1.36690e-05 DIIS
   @DF-RKS iter   8:  -381.46496442572595   -4.61249e-07   3.81810e-06 DIIS
   @DF-RKS iter   9:  -381.46496450125028   -7.55243e-08   8.45066e-07 DIIS
   @DF-RKS iter  10:  -381.46496450226505   -1.01477e-09   7.08590e-07 DIIS
   @DF-RKS iter  11:  -381.46496450383501   -1.56996e-09   6.37571e-08 DIIS
   @DF-RKS iter  12:  -381.46496450384524   -1.02318e-11   5.34263e-08 DIIS
   @DF-RKS iter  13:  -381.46496450385314   -7.90124e-12   1.13835e-08 DIIS
   @DF-RKS iter  14:  -381.46496450385388   -7.38964e-13   5.87689e-09 DIIS

  ==> Post-Iterations <==

    Orbital Energies (a.u.)
    -----------------------

    Doubly Occupied:                                                      

       1A    -14.571880     2A    -14.571873     3A    -10.501672  
       4A    -10.372609     5A    -10.354501     6A    -10.354492  
       7A    -10.338950     8A    -10.338307     9A    -10.338081  
      10A     -1.187300    11A     -1.095151    12A     -1.012774  
      13A     -0.926216    14A     -0.900396    15A     -0.846598  
      16A     -0.787440    17A     -0.772797    18A     -0.745110  
      19A     -0.732643    20A     -0.691075    21A     -0.668957  
      22A     -0.625023    23A     -0.619781    24A     -0.584435  
      25A     -0.577374    26A     -0.573668    27A     -0.515775  
      28A     -0.504751    29A     -0.496271    30A     -0.474196  
      31A     -0.407398    32A     -0.403506  

    Virtual:                                                              

      33A     -0.210474    34A     -0.155582    35A     -0.146468  
      36A     -0.110477    37A     -0.070542    38A     -0.063607  
      39A     -0.038808    40A     -0.036019    41A      0.009827  
      42A      0.021863    43A      0.022368    44A      0.060617  
      45A      0.063091    46A      0.076393    47A      0.127729  
      48A      0.154861    49A      0.159570    50A      0.163049  
      51A      0.205220    52A      0.232204    53A      0.296452  
      54A      0.346514    55A      0.354684    56A      0.377329  
      57A      0.388928    58A      0.397843    59A      0.413125  
      60A      0.424541    61A      0.447444    62A      0.448278  
      63A      0.449181    64A      0.470695    65A      0.471595  
      66A      0.476815    67A      0.483933    68A      0.508212  
      69A      0.521248    70A      0.532262    71A      0.542982  
      72A      0.572299    73A      0.606012    74A      0.654398  
      75A      0.656929    76A      0.679308    77A      0.685170  
      78A      0.706450    79A      0.714897    80A      0.715991  
      81A      0.740658    82A      0.766875    83A      0.777175  
      84A      0.795797    85A      0.813533    86A      0.838114  
      87A      0.850008    88A      0.936801    89A      0.970959  
      90A      0.996740    91A      1.004527    92A      1.023557  
      93A      1.025447    94A      1.059118    95A      1.137708  
      96A      1.188457    97A      1.224109    98A      1.272287  
      99A      1.277418   100A      1.318640   101A      1.323779  
     102A      1.340966   103A      1.362004   104A      1.373545  
     105A      1.405288   106A      1.449230   107A      1.499944  
     108A      1.612638   109A      1.633099   110A      1.651528  
     111A      1.676800   112A      1.737690   113A      1.755714  
     114A      1.803344   115A      1.822402   116A      1.854157  
     117A      1.894577   118A      1.904668   119A      1.951485  
     120A      1.978541   121A      1.997004   122A      2.017247  
     123A      2.037685   124A      2.081661   125A      2.133893  
     126A      2.149241   127A      2.152516   128A      2.171080  
     129A      2.222737   130A      2.256329   131A      2.360069  
     132A      2.368975   133A      2.428887   134A      2.450858  
     135A      2.494403   136A      2.552235   137A      2.555431  
     138A      2.590856   139A      2.609273   140A      2.628943  
     141A      2.731936   142A      2.882429   143A      2.962978  
     144A      3.257945   145A      3.633777   146A      3.647636  
     147A      3.925971   148A      3.956244   149A      3.967389  
     150A      4.073713   151A      4.178906   152A      4.258088  
     153A      4.546198  

    Final Occupation by Irrep:
              A 
    DOCC [    32 ]

  Energy converged.

  @DF-RKS Final Energy:  -381.46496450385388

   => Energetics <=

    Nuclear Repulsion Energy =            416.5810769134363341
    One-Electron Energy =               -1328.3633834524364374
    Two-Electron Energy =                 574.7333463760508039
    DFT Exchange-Correlation Energy =     -44.4040495109046560
    Empirical Dispersion Energy =          -0.0119548300000000
    PCM Polarization Energy =               0.0000000000000000
    EFP Energy =                            0.0000000000000000
    Total Energy =                       -381.4649645038538779



Properties will be evaluated at   0.000000,   0.000000,   0.000000 Bohr

Properties computed using the SCF density matrix

  Nuclear Dipole Moment: (a.u.)
     X:     0.0000      Y:     0.0000      Z:    -1.6672

  Electronic Dipole Moment: (a.u.)
     X:    -0.0000      Y:    -0.0000      Z:    -0.7510

  Dipole Moment: (a.u.)
     X:    -0.0000      Y:     0.0000      Z:    -2.4181     Total:     2.4181

  Dipole Moment: (Debye)
     X:    -0.0000      Y:     0.0000      Z:    -6.1463     Total:     6.1463


*** tstop() called on computer03 at Fri Aug 11 18:40:25 2017
Module time:
	user time   =      99.15 seconds =       1.65 minutes
	system time =       1.41 seconds =       0.02 minutes
	total time  =         62 seconds =       1.03 minutes
Total time:
	user time   =      99.15 seconds =       1.65 minutes
	system time =       1.41 seconds =       0.02 minutes
	total time  =         62 seconds =       1.03 minutes

*** tstart() called on computer03
*** at Fri Aug 11 18:40:25 2017


         ------------------------------------------------------------
                                   SCF GRAD                          
                          Rob Parrish, Justin Turney,                
                       Andy Simmonett, and Alex Sokolov              
         ------------------------------------------------------------

  ==> Geometry <==

    Molecular point group: c1
    Full point group: C1

    Geometry (in Angstrom), charge = 1, multiplicity = 1:

       Center              X                  Y                   Z               Mass       
    ------------   -----------------  -----------------  -----------------  -----------------
           C         -0.000000132302     0.000000090787    -0.191639316978    12.000000000000
           C         -1.219315132302    -0.038587909213     0.510390683022    12.000000000000
           C         -1.212770132302    -0.043105909213     1.901669683022    12.000000000000
           C         -0.000000132302     0.000000090787     2.596332683022    12.000000000000
           C          1.212769867698     0.043106090787     1.901669683022    12.000000000000
           C          1.219314867698     0.038587090787     0.510390683022    12.000000000000
           C         -0.000000132302     0.000000090787    -1.658508316978    12.000000000000
           H         -2.161706132302    -0.115354909213    -0.024627316978     1.007825032070
           H         -2.151412132302    -0.090440909213     2.444111683022     1.007825032070
           H         -0.000000132302     0.000000090787     3.681981683022     1.007825032070
           H          2.151411867698     0.090442090787     2.444111683022     1.007825032070
           H          2.161705867698     0.115355090787    -0.024627316978     1.007825032070
           N         -0.712589132302    -0.905949909213    -2.322235316978    14.003074004780
           N          0.712589867698     0.905950090787    -2.322235316978    14.003074004780
           H          0.673431867698     1.006470090787    -3.329771316978     1.007825032070
           H          1.377189867698     1.485970090787    -1.827091316978     1.007825032070
           H         -1.377189132302    -1.485969909213    -1.827091316978     1.007825032070
           H         -0.673431132302    -1.006469909213    -3.329771316978     1.007825032070

  Nuclear repulsion =  416.581076913436334

  ==> Basis Set <==

  Basis Set: 6-31G*
    Blend: 6-31G*
    Number of shells: 72
    Number of basis function: 153
    Number of Cartesian functions: 153
    Spherical Harmonics?: false
    Max angular momentum: 2

  ==> DFJKGrad: Density-Fitted SCF Gradients <==

    Gradient:                    1
    J tasked:                  Yes
    K tasked:                  Yes
    wK tasked:                  No
    OpenMP threads:              8
    Integrals threads:           8
    Memory (MB):              1430
    Schwarz Cutoff:          0E+00
    Fitting Condition:       1E-12

   => Auxiliary Basis Set <=

  Basis Set: (6-31G* AUX)
    Blend: CC-PVDZ-JKFIT
    Number of shells: 297
    Number of basis function: 954
    Number of Cartesian functions: 954
    Spherical Harmonics?: false
    Max angular momentum: 3

  ==> DFT Potential <==

   => B3LYP Composite Functional <= 

    B3LYP Hybrid-GGA Exchange-Correlation Functional (VWN1-RPA)

    P.J. Stephens et. al., J. Phys. Chem., 98, 11623-11627, 1994

    Points   =           5000
    Deriv    =              1
    GGA      =           TRUE
    Meta     =          FALSE

    X_LRC        =          FALSE
    X_Hybrid     =           TRUE
    X_Alpha      =   2.000000E-01
    X_Omega      =   0.000000E+00
    C_LRC        =          FALSE
    C_Hybrid     =          FALSE
    C_Alpha      =   0.000000E+00
    C_Omega      =   0.000000E+00

   => Exchange Functionals <=

    0.8000    B3_X
    0.2000      HF 

   => Correlation Functionals <=

    0.1900 VWN3RPA_C
    0.8100   LYP_C

   => Molecular Quadrature <=

    Radial Scheme    =       TREUTLER
    Pruning Scheme   =           FLAT
    Nuclear Scheme   =       TREUTLER

    BS radius alpha  =              1
    Pruning alpha    =              1
    Radial Points    =             75
    Spherical Points =            302
    Total Points     =         396988
    Total Blocks     =            366
    Max Points       =           4997
    Max Functions    =            152


  -Total Gradient:
     Atom            X                  Y                   Z
    ------   -----------------  -----------------  -----------------
       1        0.000000358766     0.000000121804    -0.007736132448
       2       -0.001639229342     0.008493229740     0.002616859508
       3       -0.001217035217     0.000425296443    -0.001093904824
       4        0.000000010695    -0.000000003999     0.000096745654
       5        0.001217056800    -0.000425226186    -0.001094035845
       6        0.001639100295    -0.008493485428     0.002616925595
       7       -0.000000529363    -0.000000308960     0.007046717090
       8        0.000617181783    -0.003600080134     0.000231520436
       9        0.000102906272    -0.000921190822     0.000074565388
      10       -0.000000000085    -0.000000021361     0.000054177673
      11       -0.000102929068     0.000921235011     0.000074552346
      12       -0.000617233247     0.003600121126     0.000231549292
      13        0.002964194807    -0.004798845068    -0.001279345034
      14       -0.002963858641     0.004799148275    -0.001279535973
      15       -0.002793280544     0.002386228197     0.000691357867
      16        0.003046665435    -0.003520151936    -0.000982948988
      17       -0.003046654136     0.003520160379    -0.000982916099
      18        0.002793274986    -0.002386227000     0.000691361420


*** tstop() called on computer03 at Fri Aug 11 18:40:35 2017
Module time:
	user time   =      23.02 seconds =       0.38 minutes
	system time =       0.35 seconds =       0.01 minutes
	total time  =         10 seconds =       0.17 minutes
Total time:
	user time   =     122.24 seconds =       2.04 minutes
	system time =       1.77 seconds =       0.03 minutes
	total time  =         72 seconds =       1.20 minutes

			-----------------------------------------
			 OPTKING 2.0: for geometry optimizations 
			  - R.A. King,  Bethel University        
			-----------------------------------------
	At level 1: Red. Int., RFO, no backsteps, dynamic trust

	Internal coordinates to be generated automatically.
	Detected frag 1 with atoms:  1 2 3 4 5 6 7 8 9 10 11 12 13 14 15 16 17 18
	---Fragment 1 Bond Connectivity---
	 1 : 2 6 7
	 2 : 1 3 8
	 3 : 2 4 9
	 4 : 3 5 10
	 5 : 4 6 11
	 6 : 1 5 12
	 7 : 1 13 14
	 8 : 2
	 9 : 3
	 10 : 4
	 11 : 5
	 12 : 6
	 13 : 7 17 18
	 14 : 7 15 16
	 15 : 14
	 16 : 14
	 17 : 13
	 18 : 13

	Assuming in current code that numbering for constraints corresponds to unified fragment.
	Frozen dihedral atom list: 
	     2     1     7    13
	---Fragment 1 Geometry and Gradient---
	 C          -0.0000002500        0.0000001716       -0.3621458254
	 C          -2.3041716697       -0.0729205805        0.9644986117
	 C          -2.2918034122       -0.0814583631        3.5936348961
	 C          -0.0000002500        0.0000001716        4.9063577208
	 C           2.2918029122        0.0814587062        3.5936348961
	 C           2.3041711697        0.0729190339        0.9644986117
	 C          -0.0000002500        0.0000001716       -3.1341265082
	 H          -4.0850325698       -0.2179891865       -0.0465388845
	 H          -4.0655797290       -0.1709085496        4.6187017191
	 H          -0.0000002500        0.0000001716        6.9579370072
	 H           4.0655792290        0.1709107825        4.6187017191
	 H           4.0850320698        0.2179895296       -0.0465388845
	 N          -1.3465983053       -1.7119972185       -4.3883887652
	 N           1.3465996950        1.7119975617       -4.3883887652
	 H           1.2726017991        1.9019528325       -6.2923558742
	 H           2.6025116829        2.8080765132       -3.4527022089
	 H          -2.6025102932       -2.8080761701       -3.4527022089
	 H          -1.2726004094       -1.9019524894       -6.2923558742
	             0.0000003588        0.0000001218       -0.0077361324
	            -0.0016392293        0.0084932297        0.0026168595
	            -0.0012170352        0.0004252964       -0.0010939048
	             0.0000000107       -0.0000000040        0.0000967457
	             0.0012170568       -0.0004252262       -0.0010940358
	             0.0016391003       -0.0084934854        0.0026169256
	            -0.0000005294       -0.0000003090        0.0070467171
	             0.0006171818       -0.0036000801        0.0002315204
	             0.0001029063       -0.0009211908        0.0000745654
	            -0.0000000001       -0.0000000214        0.0000541777
	            -0.0001029291        0.0009212350        0.0000745523
	            -0.0006172332        0.0036001211        0.0002315493
	             0.0029641948       -0.0047988451       -0.0012793450
	            -0.0029638586        0.0047991483       -0.0012795360
	            -0.0027932805        0.0023862282        0.0006913579
	             0.0030466654       -0.0035201519       -0.0009829490
	            -0.0030466541        0.0035201604       -0.0009829161
	             0.0027932750       -0.0023862270        0.0006913614

	Previous optimization step data not found.  Starting new optimization.

	---Fragment 1 Intrafragment Coordinates---
	 - Coordinate -           - BOHR/RAD -       - ANG/DEG -
	 R(1,2)           =         2.659795	       1.407503
	 R(1,6)           =         2.659795	       1.407503
	 R(1,7)           =         2.771981	       1.466869
	 R(2,3)           =         2.629179	       1.391302
	 R(2,8)           =         2.052975	       1.086388
	 R(3,4)           =         2.642393	       1.398294
	 R(3,9)           =         2.050621	       1.085142
	 R(4,5)           =         2.642393	       1.398294
	 R(4,10)          =         2.051579	       1.085649
	 R(5,6)           =         2.629179	       1.391302
	 R(5,11)          =         2.050621	       1.085142
	 R(6,12)          =         2.052975	       1.086388
	 R(7,13)          =         2.513451	       1.330061
	 R(7,14)          =         2.513452	       1.330061
	 R(13,17)         =         1.911600	       1.011575
	 R(13,18)         =         1.914850	       1.013295
	 R(14,15)         =         1.914850	       1.013295
	 R(14,16)         =         1.911600	       1.011575
	 B(1,2,3)         =         2.088381	     119.655415
	 B(1,2,8)         =         2.103396	     120.515715
	 B(1,6,5)         =         2.088381	     119.655417
	 B(1,6,12)        =         2.103396	     120.515712
	 B(1,7,13)        =         2.093264	     119.935185
	 B(1,7,14)        =         2.093264	     119.935172
	 B(2,1,6)         =         2.097218	     120.161763
	 B(2,1,7)         =         2.092983	     119.919118
	 B(2,3,4)         =         2.095279	     120.050633
	 B(2,3,9)         =         2.089720	     119.732121
	 B(3,2,8)         =         2.090148	     119.756663
	 B(3,4,5)         =         2.101793	     120.423860
	 B(3,4,10)        =         2.090696	     119.788070
	 B(4,3,9)         =         2.098135	     120.214288
	 B(4,5,6)         =         2.095279	     120.050631
	 B(4,5,11)        =         2.098135	     120.214288
	 B(5,4,10)        =         2.090696	     119.788070
	 B(5,6,12)        =         2.090148	     119.756658
	 B(6,1,7)         =         2.092983	     119.919119
	 B(6,5,11)        =         2.089720	     119.732122
	 B(7,13,17)       =         2.092411	     119.886337
	 B(7,13,18)       =         2.144861	     122.891462
	 B(7,14,15)       =         2.144860	     122.891445
	 B(7,14,16)       =         2.092412	     119.886356
	 B(13,7,14)       =         2.096658	     120.129643
	 B(15,14,16)      =         2.043399	     117.078143
	 B(17,13,18)      =         2.043399	     117.078143
	 D(1,2,3,4)       =         0.007799	       0.446827
	 D(1,2,3,9)       =        -3.122898	    -178.928866
	 D(1,6,5,4)       =         0.007800	       0.446921
	 D(1,6,5,11)      =        -3.122896	    -178.928758
	 D(1,7,13,17)     =         0.187845	      10.762714
	 D(1,7,13,18)     =        -3.032164	    -173.730222
	 D(1,7,14,15)     =        -3.032164	    -173.730221
	 D(1,7,14,16)     =         0.187844	      10.762677
	 D(2,1,6,5)       =        -0.003908	      -0.223900
	 D(2,1,6,12)      =        -3.091438	    -177.126366
	*D(2,1,7,13)      =        -0.872664	     -49.999981
	 D(2,1,7,14)      =         2.268929	     130.000058
	 D(2,3,4,5)       =        -0.003942	      -0.225876
	 D(2,3,4,10)      =         3.137650	     179.774124
	 D(3,2,1,6)       =        -0.003905	      -0.223758
	 D(3,2,1,7)       =         3.137687	     179.776194
	 D(3,4,5,6)       =        -0.003943	      -0.225924
	 D(3,4,5,11)      =         3.126700	     179.146718
	 D(4,3,2,8)       =         3.095746	     177.373202
	 D(4,5,6,12)      =         3.095745	     177.373142
	 D(5,4,3,9)       =         3.126701	     179.146779
	 D(5,6,1,7)       =         3.137686	     179.776147
	 D(6,1,2,8)       =        -3.091439	    -177.126381
	 D(6,1,7,13)      =         2.268928	     129.999972
	 D(6,1,7,14)      =        -0.872664	     -49.999989
	 D(6,5,4,10)      =         3.137650	     179.774076
	 D(7,1,2,8)       =         0.050153	       2.873572
	 D(7,1,6,12)      =         0.050155	       2.873681
	 D(8,2,3,9)       =        -0.034950	      -2.002490
	 D(9,3,4,10)      =        -0.014892	      -0.853221
	 D(10,4,5,11)     =        -0.014893	      -0.853282
	 D(11,5,6,12)     =        -0.034951	      -2.002537
	 D(13,7,14,15)    =         0.109429	       6.269819
	 D(13,7,14,16)    =        -2.953748	    -169.237284
	 D(14,7,13,17)    =        -2.953749	    -169.237325
	 D(14,7,13,18)    =         0.109428	       6.269739

	Current energy   :      -381.4649645039

	Generating empirical Hessian (Schlegel '84) for each fragment.
	Taking RFO optimization step.
	Going to follow RFO solution 1.
	Using RFO vector 1.
	Norm of target step-size    0.45051
	Projected energy change by RFO approximation:        -0.0008414122

	Back-transformation to cartesian coordinates...
	Could not converge backtransformation.
	Using first guess instead.

	Back-transformation to cartesian coordinates to adjust frozen coordinates...
	Successfully converged to displaced geometry.

	--- Internal Coordinate Step in ANG or DEG, aJ/ANG or AJ/DEG ---
	 ---------------------------------------------------------------------------
	   Coordinate                Previous        Force       Change         New 
	   ----------                --------       ------       ------       ------
	    1 R(1,2)          =      1.407503    -0.017040    -0.002466     1.405037
	    2 R(1,6)          =      1.407503    -0.017040    -0.002202     1.405300
	    3 R(1,7)          =      1.466869     0.032242     0.005708     1.472577
	    4 R(2,3)          =      1.391302     0.007722     0.001230     1.392532
	    5 R(2,8)          =      1.086388     0.003259     0.002373     1.088761
	    6 R(3,4)          =      1.398294    -0.005355    -0.000644     1.397650
	    7 R(3,9)          =      1.085142     0.000090     0.000534     1.085676
	    8 R(4,5)          =      1.398294    -0.005358    -0.000641     1.397653
	    9 R(4,10)         =      1.085649    -0.000457    -0.000075     1.085574
	   10 R(5,6)          =      1.391302     0.007719     0.001142     1.392444
	   11 R(5,11)         =      1.085142     0.000090     0.000341     1.085483
	   12 R(6,12)         =      1.086388     0.003260     0.002103     1.088491
	   13 R(7,13)         =      1.330061    -0.015044    -0.001605     1.328456
	   14 R(7,14)         =      1.330061    -0.015048    -0.001495     1.328567
	   15 R(13,17)        =      1.011575     0.004096     0.009048     1.020623
	   16 R(13,18)        =      1.013295     0.002834     0.004878     1.018172
	   17 R(14,15)        =      1.013295     0.002834     0.005432     1.018727
	   18 R(14,16)        =      1.011575     0.004096     0.008312     1.019887
	   19 B(1,2,3)        =    119.655415    -0.000043    -0.136383   119.519032
	   20 B(1,2,8)        =    120.515715     0.000030     0.112599   120.628314
	   21 B(1,6,5)        =    119.655417    -0.000043    -0.144973   119.510444
	   22 B(1,6,12)       =    120.515712     0.000030     0.084087   120.599799
	   23 B(1,7,13)       =    119.935185    -0.000059    -0.174873   119.760313
	   24 B(1,7,14)       =    119.935172    -0.000059    -0.183500   119.751672
	   25 B(2,1,6)        =    120.161763     0.000094     0.234841   120.396604
	   26 B(2,1,7)        =    119.919118    -0.000047    -0.111693   119.807425
	   27 B(2,3,4)        =    120.050633     0.000012     0.048113   120.098746
	   28 B(2,3,9)        =    119.732121    -0.000014    -0.045427   119.686694
	   29 B(3,2,8)        =    119.756663     0.000021     0.051523   119.808186
	   30 B(3,4,5)        =    120.423860    -0.000031    -0.073853   120.350007
	   31 B(3,4,10)       =    119.788070     0.000016     0.037063   119.825133
	   32 B(4,3,9)        =    120.214288     0.000003    -0.001307   120.212980
	   33 B(4,5,6)        =    120.050631     0.000012     0.049465   120.100096
	   34 B(4,5,11)       =    120.214288     0.000003     0.004723   120.219011
	   35 B(5,4,10)       =    119.788070     0.000016     0.036581   119.824651
	   36 B(5,6,12)       =    119.756658     0.000021     0.082213   119.838871
	   37 B(6,1,7)        =    119.919119    -0.000047    -0.136277   119.782842
	   38 B(6,5,11)       =    119.732122    -0.000014    -0.051879   119.680243
	   39 B(7,13,17)      =    119.886337     0.000003    -0.211030   119.675307
	   40 B(7,13,18)      =    122.891462     0.000003    -0.121798   122.769664
	   41 B(7,14,15)      =    122.891445     0.000003    -0.067706   122.823739
	   42 B(7,14,16)      =    119.886356     0.000003    -0.270274   119.616082
	   43 B(13,7,14)      =    120.129643     0.000118     0.345723   120.475366
	   44 B(15,14,16)     =    117.078143    -0.000002     0.437418   117.515562
	   45 B(17,13,18)     =    117.078143    -0.000002     0.432156   117.510299
	   46 D(1,2,3,4)      =      0.446827    -0.000012    -1.592510    -1.145684
	   47 D(1,2,3,9)      =   -178.928866    -0.000019    -2.673076  -181.601942
	   48 D(1,6,5,4)      =      0.446921    -0.000015    -2.081284    -1.634364
	   49 D(1,6,5,11)     =   -178.928758    -0.000021    -2.998179  -181.926937
	   50 D(1,7,13,17)    =     10.762714    -0.000065    -7.925131     2.837583
	   51 D(1,7,13,18)    =   -173.730222    -0.000048    -5.926654  -179.656876
	   52 D(1,7,14,15)    =   -173.730221    -0.000056    -7.213286  -180.943506
	   53 D(1,7,14,16)    =     10.762677    -0.000072    -9.214871     1.547806
	   54 D(2,1,6,5)      =     -0.223900     0.000010     1.536280     1.312380
	   55 D(2,1,6,12)     =   -177.126366    -0.000030    -4.159691  -181.286057
	   56 *D(2,1,7,13)    =    -49.999981     0.000000     0.000000   -49.999981
	   57 D(2,1,7,14)     =    130.000058     0.000008     1.287386   131.287444
	   58 D(2,3,4,5)      =     -0.225876     0.000007     1.054503     0.828627
	   59 D(2,3,4,10)     =    179.774124     0.000006     0.887790   180.661913
	   60 D(3,2,1,6)      =     -0.223758     0.000003     0.301832     0.078074
	   61 D(3,2,1,7)      =    179.776194     0.000010     1.622730   181.398924
	   62 D(3,4,5,6)      =     -0.225924     0.000006     0.803787     0.577863
	   63 D(3,4,5,11)     =    179.146718     0.000013     1.725308   180.872026
	   64 D(4,3,2,8)      =    177.373202     0.000027     3.890815   181.264017
	   65 D(4,5,6,12)     =    177.373142     0.000026     3.570895   180.944037
	   66 D(5,4,3,9)      =    179.146779     0.000015     2.140528   181.287307
	   67 D(5,6,1,7)      =    179.776147     0.000003     0.215707   179.991854
	   68 D(6,1,2,8)      =   -177.126381    -0.000036    -5.225432  -182.351812
	   69 D(6,1,7,13)     =    129.999972     0.000007     1.312723   131.312695
	   70 D(6,1,7,14)     =    -49.999989     0.000015     2.600108   -47.399881
	   71 D(6,5,4,10)     =    179.774076     0.000007     0.970500   180.744576
	   72 D(7,1,2,8)      =      2.873572    -0.000029    -3.904534    -1.030962
	   73 D(7,1,6,12)     =      2.873681    -0.000037    -5.480264    -2.606583
	   74 D(8,2,3,9)      =     -2.002490     0.000020     2.810249     0.807758
	   75 D(9,3,4,10)     =     -0.853221     0.000014     1.973814     1.120593
	   76 D(10,4,5,11)    =     -0.853282     0.000014     1.892021     1.038739
	   77 D(11,5,6,12)    =     -2.002537     0.000019     2.654001     0.651464
	   78 D(13,7,14,15)   =      6.269819    -0.000048    -5.916544     0.353274
	   79 D(13,7,14,16)   =   -169.237284    -0.000065    -7.918129  -177.155413
	   80 D(14,7,13,17)   =   -169.237325    -0.000072    -9.221985  -178.459310
	   81 D(14,7,13,18)   =      6.269739    -0.000056    -7.223508    -0.953769
	 ---------------------------------------------------------------------------
	Successfully symmetrized geometry.

  ==> Convergence Check <==

  Measures of convergence in internal coordinates in au.
  Criteria marked as inactive (o), active & met (*), and active & unmet ( ).
  --------------------------------------------------------------------------------------------- ~
   Step     Total Energy     Delta E     MAX Force     RMS Force      MAX Disp      RMS Disp    ~
  --------------------------------------------------------------------------------------------- ~
    Convergence Criteria    1.00e-06 *    3.00e-04 *             o    1.20e-03 *             o  ~
  --------------------------------------------------------------------------------------------- ~
      1    -381.46496450   -3.81e+02      4.14e-03      1.45e-03 o    1.61e-01      4.99e-02 o  ~
  ---------------------------------------------------------------------------------------------

	Writing optimization data to binary file.
	Structure for next step:
	Cartesian Geometry (in Angstrom)
	    C    -0.0041455677  -0.0101490949  -0.1905162811
	    C    -1.2206437468  -0.0623080872   0.5105835902
	    C    -1.2114140070  -0.0441007124   1.9029658548
	    C     0.0018486279   0.0014434050   2.5953131972
	    C     1.2119498009   0.0464427359   1.8974133340
	    C     1.2150386007   0.0582889636   0.5050232383
	    C    -0.0078780912   0.0021345984  -1.6630375658
	    H    -2.1688906001  -0.0769715319  -0.0242177862
	    H    -2.1507738542  -0.0579392720   2.4471198356
	    H     0.0042215900   0.0046074529   3.6808803444
	    H     2.1534763938   0.0675019216   2.4371886869
	    H     2.1603067531   0.0778261284  -0.0343267593
	    N    -0.7167473211  -0.9033048864  -2.3282282026
	    N     0.7180607753   0.9026077165  -2.3166813749
	    H     0.7608967631   0.9446069314  -3.3336408188
	    H     1.2914428438   1.5639625125  -1.7932204615
	    H    -1.2886904085  -1.5744516671  -1.8143083827
	    H    -0.7480579334  -0.9401954803  -3.3452501540
			--------------------------
			 OPTKING Finished Execution 
			--------------------------

    Structure for next step:
    Molecular point group: c1
    Full point group: C1

    Geometry (in Angstrom), charge = 1, multiplicity = 1:

    C           -0.002902555621    -0.009325452427    -0.189328847035
    C           -1.219400734783    -0.061484444651     0.511771024240
    C           -1.210170994974    -0.043277069856     1.904153288835
    C            0.003091639960     0.002267047562     2.596500631213
    C            1.213192812969     0.047266378443     1.898600768044
    C            1.216281612773     0.059112606113     0.506210672297
    C           -0.006635079097     0.002958240939    -1.661850131770
    H           -2.167647588044    -0.076147889329    -0.023030352148
    H           -2.149530842155    -0.057115629486     2.448307269689
    H            0.005464602038     0.005431095459     3.682067778430
    H            2.154719405900     0.068325564158     2.438376120900
    H            2.161549765141     0.078649770950    -0.033139325293
    N           -0.715504309074    -0.902481243848    -2.327040768566
    N            0.719303787307     0.903431358974    -2.315493940852
    H            0.762139775131     0.945430573897    -3.332453384719
    H            1.292685855825     1.564786155042    -1.792033027474
    H           -1.287447396395    -1.573628024566    -1.813120948661
    H           -0.746814921353    -0.939371837802    -3.344062719930

gradient() will perform analytic gradient computation.

*** tstart() called on computer03
*** at Fri Aug 11 18:40:36 2017

   => Loading Basis Set <=

    Name: 6-31G*
    Role: ORBITAL
    Keyword: BASIS
    atoms 1-7         entry C          line   102 file /home/raimis/opt/miniconda3/envs/htmd/share/psi4/basis/6-31gs.gbs 
    atoms 8-12, 15-18 entry H          line    35 file /home/raimis/opt/miniconda3/envs/htmd/share/psi4/basis/6-31gs.gbs 
    atoms 13-14       entry N          line   119 file /home/raimis/opt/miniconda3/envs/htmd/share/psi4/basis/6-31gs.gbs 


         ---------------------------------------------------------
                                   SCF
            by Justin Turney, Rob Parrish, and Andy Simmonett
                              RKS Reference
                        8 Threads,   1907 MiB Core
         ---------------------------------------------------------

  ==> Geometry <==

    Molecular point group: c1
    Full point group: C1

    Geometry (in Angstrom), charge = 1, multiplicity = 1:

       Center              X                  Y                   Z               Mass       
    ------------   -----------------  -----------------  -----------------  -----------------
           C         -0.002902555621    -0.009325452427    -0.189328847035    12.000000000000
           C         -1.219400734783    -0.061484444651     0.511771024240    12.000000000000
           C         -1.210170994974    -0.043277069856     1.904153288835    12.000000000000
           C          0.003091639960     0.002267047562     2.596500631213    12.000000000000
           C          1.213192812969     0.047266378443     1.898600768044    12.000000000000
           C          1.216281612773     0.059112606113     0.506210672297    12.000000000000
           C         -0.006635079097     0.002958240939    -1.661850131770    12.000000000000
           H         -2.167647588044    -0.076147889329    -0.023030352148     1.007825032070
           H         -2.149530842155    -0.057115629486     2.448307269689     1.007825032070
           H          0.005464602038     0.005431095459     3.682067778430     1.007825032070
           H          2.154719405900     0.068325564158     2.438376120900     1.007825032070
           H          2.161549765141     0.078649770950    -0.033139325293     1.007825032070
           N         -0.715504309074    -0.902481243848    -2.327040768566    14.003074004780
           N          0.719303787307     0.903431358974    -2.315493940852    14.003074004780
           H          0.762139775131     0.945430573897    -3.332453384719     1.007825032070
           H          1.292685855825     1.564786155042    -1.792033027474     1.007825032070
           H         -1.287447396395    -1.573628024566    -1.813120948661     1.007825032070
           H         -0.746814921353    -0.939371837802    -3.344062719930     1.007825032070

  Running in c1 symmetry.

  Rotational constants: A =      0.12191  B =      0.03882  C =      0.03180 [cm^-1]
  Rotational constants: A =   3654.91098  B =   1163.77514  C =    953.25252 [MHz]
  Nuclear repulsion =  416.500281799833090

  Charge       = 1
  Multiplicity = 1
  Electrons    = 64
  Nalpha       = 32
  Nbeta        = 32

  ==> Algorithm <==

  SCF Algorithm Type is DF.
  DIIS enabled.
  MOM disabled.
  Fractional occupation disabled.
  Guess Type is READ.
  Energy threshold   = 1.00e-08
  Density threshold  = 1.00e-08
  Integral threshold = 0.00e+00

  ==> Primary Basis <==

  Basis Set: 6-31G*
    Blend: 6-31G*
    Number of shells: 72
    Number of basis function: 153
    Number of Cartesian functions: 153
    Spherical Harmonics?: false
    Max angular momentum: 2

  ==> DFT Potential <==

   => B3LYP Composite Functional <= 

    B3LYP Hybrid-GGA Exchange-Correlation Functional (VWN1-RPA)

    P.J. Stephens et. al., J. Phys. Chem., 98, 11623-11627, 1994

    Points   =           5000
    Deriv    =              1
    GGA      =           TRUE
    Meta     =          FALSE

    X_LRC        =          FALSE
    X_Hybrid     =           TRUE
    X_Alpha      =   2.000000E-01
    X_Omega      =   0.000000E+00
    C_LRC        =          FALSE
    C_Hybrid     =          FALSE
    C_Alpha      =   0.000000E+00
    C_Omega      =   0.000000E+00

   => Exchange Functionals <=

    0.8000    B3_X
    0.2000      HF 

   => Correlation Functionals <=

    0.1900 VWN3RPA_C
    0.8100   LYP_C

   => Molecular Quadrature <=

    Radial Scheme    =       TREUTLER
    Pruning Scheme   =           FLAT
    Nuclear Scheme   =       TREUTLER

    BS radius alpha  =              1
    Pruning alpha    =              1
    Radial Points    =             75
    Spherical Points =            302
    Total Points     =         397012
    Total Blocks     =            372
    Max Points       =           4937
    Max Functions    =            152

   => -D3ZERO: Empirical Dispersion <=

    Grimme's -D3 (zero-damping) Dispersion Correction
    Grimme S.; Antony J.; Ehrlich S.; Krieg H. (2010), J. Chem. Phys., 132: 154104

        S6 =   1.000000E+00
        S8 =   1.703000E+00
       SR6 =   1.261000E+00
    ALPHA6 =   1.400000E+01

   => Loading Basis Set <=

    Name: (6-31G* AUX)
    Role: JKFIT
    Keyword: DF_BASIS_SCF
    atoms 1-7         entry C          line   120 file /home/raimis/opt/miniconda3/envs/htmd/share/psi4/basis/cc-pvdz-jkfit.gbs 
    atoms 8-12, 15-18 entry H          line    50 file /home/raimis/opt/miniconda3/envs/htmd/share/psi4/basis/cc-pvdz-jkfit.gbs 
    atoms 13-14       entry N          line   170 file /home/raimis/opt/miniconda3/envs/htmd/share/psi4/basis/cc-pvdz-jkfit.gbs 

  Reading orbitals from file 180, no projection.

  ==> Pre-Iterations <==

   -------------------------------------------------------
    Irrep   Nso     Nmo     Nalpha   Nbeta   Ndocc  Nsocc
   -------------------------------------------------------
     A        153     153       0       0       0       0
   -------------------------------------------------------
    Total     153     153      32      32      32       0
   -------------------------------------------------------

  ==> Integral Setup <==

  ==> DFJK: Density-Fitted J/K Matrices <==

    J tasked:                  Yes
    K tasked:                  Yes
    wK tasked:                  No
    OpenMP threads:              8
    Integrals threads:           8
    Memory (MB):              1430
    Algorithm:                Core
    Integral Cache:           NONE
    Schwarz Cutoff:          1E-12
    Fitting Condition:       1E-12

   => Auxiliary Basis Set <=

  Basis Set: (6-31G* AUX)
    Blend: CC-PVDZ-JKFIT
    Number of shells: 297
    Number of basis function: 954
    Number of Cartesian functions: 954
    Spherical Harmonics?: false
    Max angular momentum: 3

  Minimum eigenvalue in the overlap matrix is 4.8638810477E-04.
  Using Symmetric Orthogonalization.

  SCF Guess: Orbitals guess was supplied from a previous computation.

  ==> Iterations <==

                           Total Energy        Delta E     RMS |[F,P]|

   @DF-RKS iter   0:  -381.44878941921627   -3.81449e+02   8.50467e-04 
   @DF-RKS iter   1:  -381.46824584205649   -1.94564e-02   1.55571e-04 
   @DF-RKS iter   2:  -381.46826563307201   -1.97910e-05   1.76476e-04 DIIS
   @DF-RKS iter   3:  -381.46836034065439   -9.47076e-05   6.07269e-05 DIIS
   @DF-RKS iter   4:  -381.46837131939526   -1.09787e-05   2.12539e-05 DIIS
   @DF-RKS iter   5:  -381.46837321794277   -1.89855e-06   5.34322e-06 DIIS
   @DF-RKS iter   6:  -381.46837330564983   -8.77071e-08   1.15107e-06 DIIS
   @DF-RKS iter   7:  -381.46837330917396   -3.52412e-09   3.06167e-07 DIIS
   @DF-RKS iter   8:  -381.46837330942759   -2.53635e-10   8.99082e-08 DIIS
   @DF-RKS iter   9:  -381.46837330944652   -1.89289e-11   3.78075e-08 DIIS
   @DF-RKS iter  10:  -381.46837330945181   -5.28644e-12   1.02510e-08 DIIS
   @DF-RKS iter  11:  -381.46837330945061    1.19371e-12   3.02867e-09 DIIS

  ==> Post-Iterations <==

    Orbital Energies (a.u.)
    -----------------------

    Doubly Occupied:                                                      

       1A    -14.571796     2A    -14.571694     3A    -10.499501  
       4A    -10.372545     5A    -10.354250     6A    -10.354208  
       7A    -10.339411     8A    -10.338495     9A    -10.338329  
      10A     -1.185389    11A     -1.092685    12A     -1.012804  
      13A     -0.925106    14A     -0.900009    15A     -0.844287  
      16A     -0.785888    17A     -0.771082    18A     -0.744536  
      19A     -0.731343    20A     -0.686143    21A     -0.668172  
      22A     -0.622773    23A     -0.621021    24A     -0.584979  
      25A     -0.577136    26A     -0.571951    27A     -0.517173  
      28A     -0.503432    29A     -0.496271    30A     -0.473586  
      31A     -0.408874    32A     -0.403532  

    Virtual:                                                              

      33A     -0.208927    34A     -0.156309    35A     -0.141040  
      36A     -0.111775    37A     -0.068868    38A     -0.065574  
      39A     -0.039977    40A     -0.036415    41A      0.006883  
      42A      0.019252    43A      0.021388    44A      0.057447  
      45A      0.062438    46A      0.077964    47A      0.130417  
      48A      0.151249    49A      0.159308    50A      0.162074  
      51A      0.201361    52A      0.236942    53A      0.296345  
      54A      0.346366    55A      0.355836    56A      0.382157  
      57A      0.387348    58A      0.398275    59A      0.415521  
      60A      0.424422    61A      0.445705    62A      0.446838  
      63A      0.451716    64A      0.469038    65A      0.472881  
      66A      0.477182    67A      0.484731    68A      0.509777  
      69A      0.521105    70A      0.532182    71A      0.539407  
      72A      0.577428    73A      0.601523    74A      0.652645  
      75A      0.655452    76A      0.677872    77A      0.681470  
      78A      0.703511    79A      0.709538    80A      0.713948  
      81A      0.733502    82A      0.764887    83A      0.776682  
      84A      0.797711    85A      0.811778    86A      0.834527  
      87A      0.849587    88A      0.939116    89A      0.969664  
      90A      0.999019    91A      1.001528    92A      1.027680  
      93A      1.041053    94A      1.070763    95A      1.147924  
      96A      1.188161    97A      1.230511    98A      1.276315  
      99A      1.288372   100A      1.311454   101A      1.319265  
     102A      1.342021   103A      1.359715   104A      1.371316  
     105A      1.421322   106A      1.452987   107A      1.489005  
     108A      1.594112   109A      1.631618   110A      1.653512  
     111A      1.672130   112A      1.736419   113A      1.756787  
     114A      1.794559   115A      1.828554   116A      1.854178  
     117A      1.903334   118A      1.908763   119A      1.958401  
     120A      1.978157   121A      1.998810   122A      2.016096  
     123A      2.040854   124A      2.095152   125A      2.115041  
     126A      2.136772   127A      2.150387   128A      2.180560  
     129A      2.226539   130A      2.256784   131A      2.359770  
     132A      2.369248   133A      2.429382   134A      2.452310  
     135A      2.492283   136A      2.544453   137A      2.559097  
     138A      2.589967   139A      2.605614   140A      2.627167  
     141A      2.732455   142A      2.883147   143A      2.963070  
     144A      3.259396   145A      3.633542   146A      3.650159  
     147A      3.924657   148A      3.954968   149A      3.966523  
     150A      4.071365   151A      4.179686   152A      4.258180  
     153A      4.546763  

    Final Occupation by Irrep:
              A 
    DOCC [    32 ]

  Energy converged.

  @DF-RKS Final Energy:  -381.46837330945061

   => Energetics <=

    Nuclear Repulsion Energy =            416.5002817998330897
    One-Electron Energy =               -1328.2602862245030337
    Two-Electron Energy =                 574.6983897020400036
    DFT Exchange-Correlation Energy =     -44.3948001968207322
    Empirical Dispersion Energy =          -0.0119583900000000
    PCM Polarization Energy =               0.0000000000000000
    EFP Energy =                            0.0000000000000000
    Total Energy =                       -381.4683733094506124



Properties will be evaluated at   0.000000,   0.000000,   0.000000 Bohr

Properties computed using the SCF density matrix

  Nuclear Dipole Moment: (a.u.)
     X:     0.0235      Y:     0.0153      Z:    -1.6450

  Electronic Dipole Moment: (a.u.)
     X:    -0.0209      Y:    -0.0122      Z:    -0.7403

  Dipole Moment: (a.u.)
     X:     0.0026      Y:     0.0031      Z:    -2.3853     Total:     2.3853

  Dipole Moment: (Debye)
     X:     0.0066      Y:     0.0079      Z:    -6.0628     Total:     6.0628


*** tstop() called on computer03 at Fri Aug 11 18:41:24 2017
Module time:
	user time   =      79.21 seconds =       1.32 minutes
	system time =       1.20 seconds =       0.02 minutes
	total time  =         48 seconds =       0.80 minutes
Total time:
	user time   =     201.92 seconds =       3.37 minutes
	system time =       2.99 seconds =       0.05 minutes
	total time  =        121 seconds =       2.02 minutes

*** tstart() called on computer03
*** at Fri Aug 11 18:41:24 2017


         ------------------------------------------------------------
                                   SCF GRAD                          
                          Rob Parrish, Justin Turney,                
                       Andy Simmonett, and Alex Sokolov              
         ------------------------------------------------------------

  ==> Geometry <==

    Molecular point group: c1
    Full point group: C1

    Geometry (in Angstrom), charge = 1, multiplicity = 1:

       Center              X                  Y                   Z               Mass       
    ------------   -----------------  -----------------  -----------------  -----------------
           C         -0.002902555621    -0.009325452427    -0.189328847035    12.000000000000
           C         -1.219400734783    -0.061484444651     0.511771024240    12.000000000000
           C         -1.210170994974    -0.043277069856     1.904153288835    12.000000000000
           C          0.003091639960     0.002267047562     2.596500631213    12.000000000000
           C          1.213192812969     0.047266378443     1.898600768044    12.000000000000
           C          1.216281612773     0.059112606113     0.506210672297    12.000000000000
           C         -0.006635079097     0.002958240939    -1.661850131770    12.000000000000
           H         -2.167647588044    -0.076147889329    -0.023030352148     1.007825032070
           H         -2.149530842155    -0.057115629486     2.448307269689     1.007825032070
           H          0.005464602038     0.005431095459     3.682067778430     1.007825032070
           H          2.154719405900     0.068325564158     2.438376120900     1.007825032070
           H          2.161549765141     0.078649770950    -0.033139325293     1.007825032070
           N         -0.715504309074    -0.902481243848    -2.327040768566    14.003074004780
           N          0.719303787307     0.903431358974    -2.315493940852    14.003074004780
           H          0.762139775131     0.945430573897    -3.332453384719     1.007825032070
           H          1.292685855825     1.564786155042    -1.792033027474     1.007825032070
           H         -1.287447396395    -1.573628024566    -1.813120948661     1.007825032070
           H         -0.746814921353    -0.939371837802    -3.344062719930     1.007825032070

  Nuclear repulsion =  416.500281799833090

  ==> Basis Set <==

  Basis Set: 6-31G*
    Blend: 6-31G*
    Number of shells: 72
    Number of basis function: 153
    Number of Cartesian functions: 153
    Spherical Harmonics?: false
    Max angular momentum: 2

  ==> DFJKGrad: Density-Fitted SCF Gradients <==

    Gradient:                    1
    J tasked:                  Yes
    K tasked:                  Yes
    wK tasked:                  No
    OpenMP threads:              8
    Integrals threads:           8
    Memory (MB):              1430
    Schwarz Cutoff:          0E+00
    Fitting Condition:       1E-12

   => Auxiliary Basis Set <=

  Basis Set: (6-31G* AUX)
    Blend: CC-PVDZ-JKFIT
    Number of shells: 297
    Number of basis function: 954
    Number of Cartesian functions: 954
    Spherical Harmonics?: false
    Max angular momentum: 3

  ==> DFT Potential <==

   => B3LYP Composite Functional <= 

    B3LYP Hybrid-GGA Exchange-Correlation Functional (VWN1-RPA)

    P.J. Stephens et. al., J. Phys. Chem., 98, 11623-11627, 1994

    Points   =           5000
    Deriv    =              1
    GGA      =           TRUE
    Meta     =          FALSE

    X_LRC        =          FALSE
    X_Hybrid     =           TRUE
    X_Alpha      =   2.000000E-01
    X_Omega      =   0.000000E+00
    C_LRC        =          FALSE
    C_Hybrid     =          FALSE
    C_Alpha      =   0.000000E+00
    C_Omega      =   0.000000E+00

   => Exchange Functionals <=

    0.8000    B3_X
    0.2000      HF 

   => Correlation Functionals <=

    0.1900 VWN3RPA_C
    0.8100   LYP_C

   => Molecular Quadrature <=

    Radial Scheme    =       TREUTLER
    Pruning Scheme   =           FLAT
    Nuclear Scheme   =       TREUTLER

    BS radius alpha  =              1
    Pruning alpha    =              1
    Radial Points    =             75
    Spherical Points =            302
    Total Points     =         397012
    Total Blocks     =            372
    Max Points       =           4937
    Max Functions    =            152


  -Total Gradient:
     Atom            X                  Y                   Z
    ------   -----------------  -----------------  -----------------
       1        0.000554649619    -0.002272458885    -0.000411444671
       2        0.001796121871     0.001548634379     0.000872456359
       3        0.000230501316     0.000188572317    -0.000285273983
       4        0.000111247299    -0.000086761363     0.000085041944
       5       -0.000215038922    -0.000101734040    -0.000086226781
       6       -0.001520779996    -0.000498861627     0.000764174537
       7       -0.002374499445     0.002112273680     0.001529324213
       8       -0.001357659744    -0.000151941042    -0.000341520539
       9       -0.000261712458     0.000295873398     0.000215038472
      10       -0.000002386304     0.000021433387    -0.000003953604
      11        0.000147803034    -0.000290704675     0.000140936545
      12        0.001141039507     0.000379807375    -0.000375383235
      13        0.006888864299     0.001164603461    -0.001029237856
      14       -0.005313764382    -0.001575724071    -0.000467130760
      15       -0.001801962187     0.000538714670    -0.004449523734
      16        0.005778695825     0.002625664581     0.003807182975
      17       -0.005861213135    -0.003387024082     0.003943149719
      18        0.002064792126    -0.000506138931    -0.003952689246


*** tstop() called on computer03 at Fri Aug 11 18:41:35 2017
Module time:
	user time   =      23.97 seconds =       0.40 minutes
	system time =       0.42 seconds =       0.01 minutes
	total time  =         11 seconds =       0.18 minutes
Total time:
	user time   =     225.97 seconds =       3.77 minutes
	system time =       3.42 seconds =       0.06 minutes
	total time  =        132 seconds =       2.20 minutes

			-----------------------------------------
			 OPTKING 2.0: for geometry optimizations 
			  - R.A. King,  Bethel University        
			-----------------------------------------
	At level 1: Red. Int., RFO, no backsteps, dynamic trust

	Previous internal coordinate definitions found.
	---Fragment 1 Geometry and Gradient---
	 C          -0.0054850352       -0.0176225512       -0.3577796700
	 C          -2.3043334350       -0.1161887618        0.9671070786
	 C          -2.2868917545       -0.0817818099        3.5983282309
	 C           0.0058423528        0.0042840990        4.9066750969
	 C           2.2926021629        0.0893205106        3.5878354873
	 C           2.2984391486        0.1117066366        0.9565995362
	 C          -0.0125384824        0.0055902652       -3.1404416229
	 H          -4.0962602940       -0.1438986564       -0.0435210583
	 H          -4.0620246059       -0.1079328976        4.6266302289
	 H           0.0103266013        0.0102632830        6.9580997040
	 H           4.0718295704        0.1291166041        4.6078630775
	 H           4.0847370787        0.1486265275       -0.0626242490
	 N          -1.3521071910       -1.7054423909       -4.3974697526
	 N           1.3592871644        1.7072378483       -4.3756494106
	 H           1.4402354500        1.7866048623       -6.2974242477
	 H           2.4428222434        2.9570172896       -3.3864516430
	 H          -2.4329229897       -2.9737260015       -3.4263020388
	 H          -1.4112756733       -1.7751555104       -6.3193627119
	             0.0005546496       -0.0022724589       -0.0004114447
	             0.0017961219        0.0015486344        0.0008724564
	             0.0002305013        0.0001885723       -0.0002852740
	             0.0001112473       -0.0000867614        0.0000850419
	            -0.0002150389       -0.0001017340       -0.0000862268
	            -0.0015207800       -0.0004988616        0.0007641745
	            -0.0023744994        0.0021122737        0.0015293242
	            -0.0013576597       -0.0001519410       -0.0003415205
	            -0.0002617125        0.0002958734        0.0002150385
	            -0.0000023863        0.0000214334       -0.0000039536
	             0.0001478030       -0.0002907047        0.0001409365
	             0.0011410395        0.0003798074       -0.0003753832
	             0.0068888643        0.0011646035       -0.0010292379
	            -0.0053137644       -0.0015757241       -0.0004671308
	            -0.0018019622        0.0005387147       -0.0044495237
	             0.0057786958        0.0026256646        0.0038071830
	            -0.0058612131       -0.0033870241        0.0039431497
	             0.0020647921       -0.0005061389       -0.0039526892

	---Fragment 1 Intrafragment Coordinates---
	 - Coordinate -           - BOHR/RAD -       - ANG/DEG -
	 R(1,2)           =         2.655135	       1.405037
	 R(1,6)           =         2.655633	       1.405300
	 R(1,7)           =         2.782768	       1.472577
	 R(2,3)           =         2.631504	       1.392532
	 R(2,8)           =         2.057459	       1.088761
	 R(3,4)           =         2.641176	       1.397650
	 R(3,9)           =         2.051630	       1.085676
	 R(4,5)           =         2.641181	       1.397653
	 R(4,10)          =         2.051438	       1.085574
	 R(5,6)           =         2.631338	       1.392444
	 R(5,11)          =         2.051266	       1.085483
	 R(6,12)          =         2.056949	       1.088491
	 R(7,13)          =         2.510418	       1.328456
	 R(7,14)          =         2.510627	       1.328567
	 R(13,17)         =         1.928697	       1.020623
	 R(13,18)         =         1.924067	       1.018172
	 R(14,15)         =         1.925116	       1.018727
	 R(14,16)         =         1.927306	       1.019887
	 B(1,2,3)         =         2.086001	     119.519032
	 B(1,2,8)         =         2.105361	     120.628314
	 B(1,6,5)         =         2.085851	     119.510444
	 B(1,6,12)        =         2.104864	     120.599799
	 B(1,7,13)        =         2.090212	     119.760313
	 B(1,7,14)        =         2.090061	     119.751672
	 B(2,1,6)         =         2.101317	     120.396604
	 B(2,1,7)         =         2.091034	     119.807425
	 B(2,3,4)         =         2.096119	     120.098746
	 B(2,3,9)         =         2.088927	     119.686694
	 B(3,2,8)         =         2.091047	     119.808186
	 B(3,4,5)         =         2.100504	     120.350007
	 B(3,4,10)        =         2.091343	     119.825133
	 B(4,3,9)         =         2.098112	     120.212980
	 B(4,5,6)         =         2.096142	     120.100096
	 B(4,5,11)        =         2.098218	     120.219011
	 B(5,4,10)        =         2.091335	     119.824651
	 B(5,6,12)        =         2.091583	     119.838871
	 B(6,1,7)         =         2.090605	     119.782842
	 B(6,5,11)        =         2.088814	     119.680243
	 B(7,13,17)       =         2.088728	     119.675307
	 B(7,13,18)       =         2.142735	     122.769664
	 B(7,14,15)       =         2.143679	     122.823739
	 B(7,14,16)       =         2.087694	     119.616082
	 B(13,7,14)       =         2.102692	     120.475366
	 B(15,14,16)      =         2.051033	     117.515562
	 B(17,13,18)      =         2.050942	     117.510299
	 D(1,2,3,4)       =        -0.019996	      -1.145684
	 D(1,2,3,9)       =         3.113633	     178.398058
	 D(1,6,5,4)       =        -0.028525	      -1.634364
	 D(1,6,5,11)      =         3.107961	     178.073063
	 D(1,7,13,17)     =         0.049525	       2.837583
	 D(1,7,13,18)     =        -3.135604	    -179.656876
	 D(1,7,14,15)     =         3.125125	     179.056494
	 D(1,7,14,16)     =         0.027014	       1.547806
	 D(2,1,6,5)       =         0.022905	       1.312380
	 D(2,1,6,12)      =         3.119147	     178.713943
	*D(2,1,7,13)      =        -0.872664	     -49.999981
	 D(2,1,7,14)      =         2.291398	     131.287444
	 D(2,3,4,5)       =         0.014462	       0.828627
	 D(2,3,4,10)      =        -3.130040	    -179.338087
	 D(3,2,1,6)       =         0.001363	       0.078074
	 D(3,2,1,7)       =        -3.117177	    -178.601076
	 D(3,4,5,6)       =         0.010086	       0.577863
	 D(3,4,5,11)      =        -3.126373	    -179.127974
	 D(4,3,2,8)       =        -3.119531	    -178.735983
	 D(4,5,6,12)      =        -3.125116	    -179.055963
	 D(5,4,3,9)       =        -3.119125	    -178.712693
	 D(5,6,1,7)       =         3.141450	     179.991854
	 D(6,1,2,8)       =         3.100546	     177.648188
	 D(6,1,7,13)      =         2.291839	     131.312695
	 D(6,1,7,14)      =        -0.827284	     -47.399881
	 D(6,5,4,10)      =        -3.128597	    -179.255424
	 D(7,1,2,8)       =        -0.017994	      -1.030962
	 D(7,1,6,12)      =        -0.045493	      -2.606583
	 D(8,2,3,9)       =         0.014098	       0.807758
	 D(9,3,4,10)      =         0.019558	       1.120593
	 D(10,4,5,11)     =         0.018129	       1.038739
	 D(11,5,6,12)     =         0.011370	       0.651464
	 D(13,7,14,15)    =         0.006166	       0.353274
	 D(13,7,14,16)    =        -3.091945	    -177.155413
	 D(14,7,13,17)    =        -3.114703	    -178.459310
	 D(14,7,13,18)    =        -0.016646	      -0.953769

	Current energy   :      -381.4683733095

	Energy change for the previous step:
		Projected    :        -0.0008414122
		Actual       :        -0.0034088056
	Energy ratio indicates good step: Trust radius increased to 1.000e+00.


	Performing BFGS update.
	Previous computed or guess Hessian on step 1.
	Steps to be used in Hessian update: 1
	Taking RFO optimization step.
	Going to follow RFO solution 1.
	Using RFO vector 1.
	Norm of target step-size    0.34617
	Projected energy change by RFO approximation:         0.0004068130

	Back-transformation to cartesian coordinates...
	Could not converge backtransformation.
	Using first guess instead.

	Back-transformation to cartesian coordinates to adjust frozen coordinates...
	Successfully converged to displaced geometry.

	--- Internal Coordinate Step in ANG or DEG, aJ/ANG or AJ/DEG ---
	 ---------------------------------------------------------------------------
	   Coordinate                Previous        Force       Change         New 
	   ----------                --------       ------       ------       ------
	    1 R(1,2)          =      1.405037    -0.000845    -0.000552     1.404485
	    2 R(1,6)          =      1.405300    -0.001198    -0.000531     1.404769
	    3 R(1,7)          =      1.472577    -0.005034    -0.000137     1.472441
	    4 R(2,3)          =      1.392532    -0.000241     0.000236     1.392768
	    5 R(2,8)          =      1.088761    -0.011132    -0.001621     1.087139
	    6 R(3,4)          =      1.397650     0.001628     0.000270     1.397920
	    7 R(3,9)          =      1.085676    -0.002734    -0.000384     1.085291
	    8 R(4,5)          =      1.397653     0.002784     0.000479     1.398132
	    9 R(4,10)         =      1.085574     0.000011     0.000008     1.085583
	   10 R(5,6)          =      1.392444    -0.000453     0.000275     1.392719
	   11 R(5,11)         =      1.085483    -0.001597    -0.000152     1.085331
	   12 R(6,12)         =      1.088491    -0.009741    -0.001388     1.087103
	   13 R(7,13)         =      1.328456    -0.005993    -0.000952     1.327504
	   14 R(7,14)         =      1.328567    -0.007306    -0.001062     1.327505
	   15 R(13,17)        =      1.020623    -0.061785    -0.002326     1.018296
	   16 R(13,18)        =      1.018172    -0.032134     0.000692     1.018864
	   17 R(14,15)        =      1.018727    -0.036134    -0.000987     1.017740
	   18 R(14,16)        =      1.019887    -0.056897    -0.000672     1.019215
	   19 B(1,2,3)        =    119.519032    -0.000025    -0.121419   119.397613
	   20 B(1,2,8)        =    120.628314    -0.000016    -0.110287   120.518027
	   21 B(1,6,5)        =    119.510444    -0.000030    -0.146563   119.363881
	   22 B(1,6,12)       =    120.599799    -0.000005    -0.072481   120.527318
	   23 B(1,7,13)       =    119.760313    -0.000097    -0.428473   119.331840
	   24 B(1,7,14)       =    119.751672    -0.000069    -0.331294   119.420378
	   25 B(2,1,6)        =    120.396604     0.000055     0.247608   120.644212
	   26 B(2,1,7)        =    119.807425    -0.000050    -0.233935   119.573490
	   27 B(2,3,4)        =    120.098746    -0.000010    -0.032156   120.066590
	   28 B(2,3,9)        =    119.686694    -0.000000    -0.015637   119.671057
	   29 B(3,2,8)        =    119.808186     0.000042     0.238977   120.047163
	   30 B(3,4,5)        =    120.350007     0.000016     0.075555   120.425562
	   31 B(3,4,10)       =    119.825133    -0.000008    -0.036122   119.789011
	   32 B(4,3,9)        =    120.212980     0.000010     0.044231   120.257212
	   33 B(4,5,6)        =    120.100096    -0.000006    -0.012943   120.087154
	   34 B(4,5,11)       =    120.219011     0.000007     0.032958   120.251969
	   35 B(5,4,10)       =    119.824651    -0.000008    -0.039498   119.785153
	   36 B(5,6,12)       =    119.838871     0.000034     0.204952   120.043822
	   37 B(6,1,7)        =    119.782842    -0.000006    -0.063700   119.719142
	   38 B(6,5,11)       =    119.680243    -0.000002    -0.021209   119.659034
	   39 B(7,13,17)      =    119.675307    -0.000023    -0.540989   119.134319
	   40 B(7,13,18)      =    122.769664     0.000089     0.448044   123.217709
	   41 B(7,14,15)      =    122.823739     0.000075     0.423394   123.247133
	   42 B(7,14,16)      =    119.616082    -0.000007    -0.481848   119.134233
	   43 B(13,7,14)      =    120.475366     0.000166     0.753823   121.229189
	   44 B(15,14,16)     =    117.515562    -0.000066     0.102176   117.617738
	   45 B(17,13,18)     =    117.510299    -0.000066     0.127240   117.637539
	   46 D(1,2,3,4)      =     -1.145684     0.000006     1.233300     0.087616
	   47 D(1,2,3,9)      =    178.398058     0.000005     0.866853   179.264911
	   48 D(1,6,5,4)      =     -1.634364     0.000004     0.601693    -1.032671
	   49 D(1,6,5,11)     =    178.073063     0.000003     0.401652   178.474715
	   50 D(1,7,13,17)    =      2.837583    -0.000033    -7.052802    -4.215219
	   51 D(1,7,13,18)    =   -179.656876    -0.000027    -5.762245  -185.419121
	   52 D(1,7,14,15)    =    179.056494    -0.000025    -5.571892   173.484602
	   53 D(1,7,14,16)    =      1.547806    -0.000039    -8.416117    -6.868311
	   54 D(2,1,6,5)      =      1.312380    -0.000000     0.200619     1.512999
	   55 D(2,1,6,12)     =    178.713943     0.000000    -0.130948   178.582995
	   56 *D(2,1,7,13)    =    -49.999981    -0.000000     0.000000   -49.999981
	   57 D(2,1,7,14)     =    131.287444     0.000000     0.261478   131.548922
	   58 D(2,3,4,5)      =      0.828627    -0.000002    -0.444321     0.384306
	   59 D(2,3,4,10)     =   -179.338087    -0.000002    -0.468289  -179.806376
	   60 D(3,2,1,6)      =      0.078074    -0.000005    -1.118411    -1.040337
	   61 D(3,2,1,7)      =   -178.601076     0.000001     0.458801  -178.142275
	   62 D(3,4,5,6)      =      0.577863    -0.000002    -0.483073     0.094789
	   63 D(3,4,5,11)     =   -179.127974    -0.000002    -0.281675  -179.409649
	   64 D(4,3,2,8)      =   -178.735983     0.000004     1.030109  -177.705874
	   65 D(4,5,6,12)     =   -179.055963     0.000003     0.938880  -178.117083
	   66 D(5,4,3,9)      =   -178.712693    -0.000001    -0.075428  -178.788121
	   67 D(5,6,1,7)      =    179.991854    -0.000006    -1.381116   178.610738
	   68 D(6,1,2,8)      =    177.648188    -0.000002    -0.905654   176.742534
	   69 D(6,1,7,13)     =    131.312695     0.000005     1.558277   132.870972
	   70 D(6,1,7,14)     =    -47.399881     0.000005     1.819755   -45.580125
	   71 D(6,5,4,10)     =   -179.255424    -0.000002    -0.459111  -179.714535
	   72 D(7,1,2,8)      =     -1.030962     0.000004     0.671558    -0.359404
	   73 D(7,1,6,12)     =     -2.606583    -0.000005    -1.712683    -4.319267
	   74 D(8,2,3,9)      =      0.807758     0.000002     0.663662     1.471420
	   75 D(9,3,4,10)     =      1.120593    -0.000001    -0.099396     1.021197
	   76 D(10,4,5,11)    =      1.038739    -0.000002    -0.257713     0.781026
	   77 D(11,5,6,12)    =      0.651464     0.000003     0.738839     1.390303
	   78 D(13,7,14,15)   =      0.353274    -0.000024    -5.289518    -4.936243
	   79 D(13,7,14,16)   =   -177.155413    -0.000038    -8.133743  -185.289155
	   80 D(14,7,13,17)   =   -178.459310    -0.000034    -7.333691  -185.793001
	   81 D(14,7,13,18)   =     -0.953769    -0.000028    -6.043134    -6.996903
	 ---------------------------------------------------------------------------
	Successfully symmetrized geometry.

  ==> Convergence Check <==

  Measures of convergence in internal coordinates in au.
  Criteria marked as inactive (o), active & met (*), and active & unmet ( ).
  ---------------------------------------------------------------------------------------------
   Step     Total Energy     Delta E     MAX Force     RMS Force      MAX Disp      RMS Disp   
  ---------------------------------------------------------------------------------------------
    Convergence Criteria    1.00e-06 *    3.00e-04 *             o    1.20e-03 *             o
  ---------------------------------------------------------------------------------------------
      2    -381.46837331   -3.41e-03      7.50e-03      1.51e-03 o    1.47e-01      3.84e-02 o  ~
  ---------------------------------------------------------------------------------------------

	Writing optimization data to binary file.
	Structure for next step:
	Cartesian Geometry (in Angstrom)
	    C    -0.0004841229  -0.0257466349  -0.1917738992
	    C    -1.2188021719  -0.0629246561   0.5060063599
	    C    -1.2097964345  -0.0469626588   1.8986536748
	    C     0.0036338526   0.0074828512   2.5906101611
	    C     1.2147092686   0.0543559675   1.8935655690
	    C     1.2193662933   0.0490521872   0.5008640809
	    C    -0.0066869157  -0.0009524829  -1.6639927113
	    H    -2.1633436019  -0.0676014001  -0.0322236359
	    H    -2.1490189487  -0.0634537921   2.4422035453
	    H     0.0055230365   0.0165411645   3.6761535371
	    H     2.1555518866   0.0869216718   2.4336571798
	    H     2.1621927555   0.0546028118  -0.0402826111
	    N    -0.7347147090  -0.8917700920  -2.3263261738
	    N     0.7393153463   0.8911000766  -2.3042991461
	    H     0.8543857578   0.8994067945  -3.3154788456
	    H     1.2214213605   1.6113296276  -1.7679767521
	    H    -1.2247244385  -1.6170273305  -1.8059224134
	    H    -0.8461533791  -0.8795269057  -3.3390038122
			--------------------------
			 OPTKING Finished Execution 
			--------------------------

    Structure for next step:
    Molecular point group: c1
    Full point group: C1

    Geometry (in Angstrom), charge = 1, multiplicity = 1:

    C           -0.001340264016    -0.023465331284    -0.190135687763
    C           -1.219658313022    -0.060643352525     0.507644571285
    C           -1.210652575654    -0.044681355248     1.900291886204
    C            0.002777711482     0.009764154774     2.592248372527
    C            1.213853127458     0.056637271103     1.895203780408
    C            1.218510152193     0.051333490832     0.502502292267
    C           -0.007543056795     0.001328820707    -1.662354499945
    H           -2.164199743057    -0.065320096547    -0.030585424549
    H           -2.149875089814    -0.061172488528     2.443841756657
    H            0.004666895426     0.018822468092     3.677791748487
    H            2.154695745519     0.089202975380     2.435295391169
    H            2.161336614410     0.056884115398    -0.038644399679
    N           -0.735570850093    -0.889488788441    -2.324687962415
    N            0.738459205216     0.893381380205    -2.302660934686
    H            0.853529616694     0.901688098039    -3.313840634220
    H            1.220565219388     1.613610931156    -1.766338540693
    H           -1.225580579605    -1.614746026936    -1.804284201978
    H           -0.847009520161    -0.877245602116    -3.337365600822

gradient() will perform analytic gradient computation.

*** tstart() called on computer03
*** at Fri Aug 11 18:41:36 2017

   => Loading Basis Set <=

    Name: 6-31G*
    Role: ORBITAL
    Keyword: BASIS
    atoms 1-7         entry C          line   102 file /home/raimis/opt/miniconda3/envs/htmd/share/psi4/basis/6-31gs.gbs 
    atoms 8-12, 15-18 entry H          line    35 file /home/raimis/opt/miniconda3/envs/htmd/share/psi4/basis/6-31gs.gbs 
    atoms 13-14       entry N          line   119 file /home/raimis/opt/miniconda3/envs/htmd/share/psi4/basis/6-31gs.gbs 


         ---------------------------------------------------------
                                   SCF
            by Justin Turney, Rob Parrish, and Andy Simmonett
                              RKS Reference
                        8 Threads,   1907 MiB Core
         ---------------------------------------------------------

  ==> Geometry <==

    Molecular point group: c1
    Full point group: C1

    Geometry (in Angstrom), charge = 1, multiplicity = 1:

       Center              X                  Y                   Z               Mass       
    ------------   -----------------  -----------------  -----------------  -----------------
           C         -0.001340264016    -0.023465331284    -0.190135687763    12.000000000000
           C         -1.219658313022    -0.060643352525     0.507644571285    12.000000000000
           C         -1.210652575654    -0.044681355248     1.900291886204    12.000000000000
           C          0.002777711482     0.009764154774     2.592248372527    12.000000000000
           C          1.213853127458     0.056637271103     1.895203780408    12.000000000000
[...]
	             0.0000081149       -0.0000239471       -0.0000054961
	             0.0000086520        0.0000075386        0.0000174868
	            -0.0035674991        0.0042935700        0.0001905738
	             0.0000075278       -0.0000053481       -0.0000049734
	             0.0000019742       -0.0000026594        0.0000013982
	            -0.0000008390       -0.0000024252       -0.0000005507
	            -0.0000017426        0.0000041148        0.0000022697
	            -0.0000034624       -0.0000036386       -0.0000000350
	             0.0024763884       -0.0019793517       -0.0000631018
	            -0.0000349672       -0.0000058228        0.0000003199
	             0.0000128644       -0.0000073356       -0.0000166682
	             0.0000129690        0.0000140507       -0.0000028756
	            -0.0000079032       -0.0000115523       -0.0000015105
	            -0.0000068621        0.0000020208       -0.0000222725

	---Fragment 1 Intrafragment Coordinates---
	 - Coordinate -           - BOHR/RAD -       - ANG/DEG -
	 R(1,2)           =         2.656957	       1.406001
	 R(1,6)           =         2.657147	       1.406102
	 R(1,7)           =         2.777354	       1.469712
	 R(2,3)           =         2.630968	       1.392248
	 R(2,8)           =         2.053149	       1.086480
	 R(3,4)           =         2.641865	       1.398015
	 R(3,9)           =         2.050712	       1.085190
	 R(4,5)           =         2.642710	       1.398462
	 R(4,10)          =         2.051589	       1.085654
	 R(5,6)           =         2.630381	       1.391938
	 R(5,11)          =         2.050740	       1.085205
	 R(6,12)          =         2.053053	       1.086429
	 R(7,13)          =         2.509966	       1.328217
	 R(7,14)          =         2.509813	       1.328136
	 R(13,17)         =         1.912451	       1.012026
	 R(13,18)         =         1.915794	       1.013794
	 R(14,15)         =         1.915790	       1.013793
	 R(14,16)         =         1.912396	       1.011996
	 B(1,2,3)         =         2.084541	     119.435412
	 B(1,2,8)         =         2.100731	     120.363034
	 B(1,6,5)         =         2.083774	     119.391469
	 B(1,6,12)        =         2.100664	     120.359191
	 B(1,7,13)        =         2.086183	     119.529487
	 B(1,7,14)        =         2.087904	     119.628079
	 B(2,1,6)         =         2.104226	     120.563279
	 B(2,1,7)         =         2.086107	     119.525137
	 B(2,3,4)         =         2.094861	     120.026719
	 B(2,3,9)         =         2.089976	     119.746784
	 B(3,2,8)         =         2.097450	     120.175010
	 B(3,4,5)         =         2.103058	     120.496337
	 B(3,4,10)        =         2.090171	     119.758001
	 B(4,3,9)         =         2.098305	     120.223994
	 B(4,5,6)         =         2.095533	     120.065168
	 B(4,5,11)        =         2.097935	     120.202836
	 B(5,4,10)        =         2.089951	     119.745370
	 B(5,6,12)        =         2.097771	     120.193448
	 B(6,1,7)         =         2.091331	     119.824467
	 B(6,5,11)        =         2.089714	     119.731781
	 B(7,13,17)       =         2.085797	     119.507368
	 B(7,13,18)       =         2.150773	     123.230189
	 B(7,14,15)       =         2.149349	     123.148638
	 B(7,14,16)       =         2.086035	     119.520981
	 B(13,7,14)       =         2.108514	     120.808974
	 B(15,14,16)      =         2.046629	     117.263176
	 B(17,13,18)      =         2.046616	     117.262443
	 D(1,2,3,4)       =        -0.002842	      -0.162835
	 D(1,2,3,9)       =         3.128728	     179.262925
	 D(1,6,5,4)       =        -0.024717	      -1.416180
	 D(1,6,5,11)      =         3.113939	     178.415555
	 D(1,7,13,17)     =        -0.105206	      -6.027834
	 D(1,7,13,18)     =         3.036548	     173.981359
	 D(1,7,14,15)     =         3.026614	     173.412197
	 D(1,7,14,16)     =        -0.168477	      -9.653008
	 D(2,1,6,5)       =         0.030997	       1.775996
	 D(2,1,6,12)      =         3.125232	     179.062603
	*D(2,1,7,13)      =        -0.872664	     -49.999981
	 D(2,1,7,14)      =         2.305346	     132.086588
	 D(2,3,4,5)       =         0.009019	       0.516771
	 D(2,3,4,10)      =        -3.136012	    -179.680268
	 D(3,2,1,6)       =        -0.017203	      -0.985655
	 D(3,2,1,7)       =        -3.099461	    -177.586030
	 D(3,4,5,6)       =         0.004953	       0.283788
	 D(3,4,5,11)      =        -3.133689	    -179.547148
	 D(4,3,2,8)       =        -3.111849	    -178.295841
	 D(4,5,6,12)      =        -3.119032	    -178.707369
	 D(5,4,3,9)       =        -3.122503	    -178.906223
	 D(5,6,1,7)       =         3.113078	     178.366223
	 D(6,1,2,8)       =         3.091742	     177.143771
	 D(6,1,7,13)      =         2.327819	     133.374202
	 D(6,1,7,14)      =        -0.777356	     -44.539228
	 D(6,5,4,10)      =        -3.133201	    -179.519199
	 D(7,1,2,8)       =         0.009484	       0.543396
	 D(7,1,6,12)      =        -0.075872	      -4.347170
	 D(8,2,3,9)       =         0.019721	       1.129919
	 D(9,3,4,10)      =         0.015651	       0.896739
	 D(10,4,5,11)     =         0.011342	       0.649866
	 D(11,5,6,12)     =         0.019624	       1.124366
	 D(13,7,14,15)    =        -0.078085	      -4.473958
	 D(13,7,14,16)    =         3.010009	     172.460838
	 D(14,7,13,17)    =         2.999530	     171.860385
	 D(14,7,13,18)    =        -0.141903	      -8.130423

	Current energy   :      -381.4696618669

	Energy change for the previous step:
		Projected    :        -0.0000012211
		Actual       :        -0.0000003048
	Energy ratio indicates iffy step: Trust radius decreased to 6.250e-02.


	Performing BFGS update.
	Previous computed or guess Hessian on step 1.
	Steps to be used in Hessian update: 6 5
	Taking RFO optimization step.
	Going to follow RFO solution 1.
	Rejecting RFO root 1 because normalization gives large value.
	Rejecting RFO root 2 because normalization gives large value.
	Using RFO vector 3.
	Norm of target step-size    0.00122
	Projected energy change by RFO approximation:         0.0000000075

	Back-transformation to cartesian coordinates...
	Successfully converged to displaced geometry.

	Back-transformation to cartesian coordinates to adjust frozen coordinates...
	Successfully converged to displaced geometry.

	--- Internal Coordinate Step in ANG or DEG, aJ/ANG or AJ/DEG ---
	 ---------------------------------------------------------------------------
	   Coordinate                Previous        Force       Change         New 
	   ----------                --------       ------       ------       ------
	    1 R(1,2)          =      1.406001    -0.000095    -0.000011     1.405990
	    2 R(1,6)          =      1.406102    -0.000123    -0.000014     1.406088
	    3 R(1,7)          =      1.469712     0.000231     0.000045     1.469757
	    4 R(2,3)          =      1.392248     0.000027     0.000004     1.392253
	    5 R(2,8)          =      1.086480     0.000037     0.000006     1.086486
	    6 R(3,4)          =      1.398015    -0.000006    -0.000002     1.398013
	    7 R(3,9)          =      1.085190     0.000002     0.000000     1.085190
	    8 R(4,5)          =      1.398462    -0.000009    -0.000001     1.398461
	    9 R(4,10)         =      1.085654    -0.000005    -0.000001     1.085653
	   10 R(5,6)          =      1.391938     0.000028     0.000004     1.391941
	   11 R(5,11)         =      1.085205    -0.000002    -0.000000     1.085205
	   12 R(6,12)         =      1.086429     0.000030     0.000005     1.086434
	   13 R(7,13)         =      1.328217    -0.000078    -0.000010     1.328207
	   14 R(7,14)         =      1.328136    -0.000008     0.000001     1.328137
	   15 R(13,17)        =      1.012026    -0.000106    -0.000007     1.012019
	   16 R(13,18)        =      1.013794    -0.000178    -0.000015     1.013779
	   17 R(14,15)        =      1.013793    -0.000139    -0.000013     1.013779
	   18 R(14,16)        =      1.011996    -0.000119    -0.000007     1.011989
	   19 B(1,2,3)        =    119.435412    -0.000000    -0.000269   119.435144
	   20 B(1,2,8)        =    120.363034     0.000001     0.002471   120.365505
	   21 B(1,6,5)        =    119.391469    -0.000000    -0.000359   119.391110
	   22 B(1,6,12)       =    120.359191     0.000000     0.000555   120.359746
	   23 B(1,7,13)       =    119.529487    -0.000001    -0.000806   119.528681
	   24 B(1,7,14)       =    119.628079    -0.000002    -0.006039   119.622040
	   25 B(2,1,6)        =    120.563279     0.000001     0.000710   120.563989
	   26 B(2,1,7)        =    119.525137     0.000000     0.001203   119.526340
	   27 B(2,3,4)        =    120.026719     0.000000     0.000443   120.027161
	   28 B(2,3,9)        =    119.746784    -0.000000    -0.001317   119.745467
	   29 B(3,2,8)        =    120.175010    -0.000000    -0.002197   120.172813
	   30 B(3,4,5)        =    120.496337    -0.000000    -0.001036   120.495301
	   31 B(3,4,10)       =    119.758001     0.000000     0.000693   119.758694
	   32 B(4,3,9)        =    120.223994     0.000000     0.000725   120.224718
	   33 B(4,5,6)        =    120.065168     0.000000     0.000825   120.065993
	   34 B(4,5,11)       =    120.202836     0.000000     0.000360   120.203196
	   35 B(5,4,10)       =    119.745370     0.000000     0.000330   119.745700
	   36 B(5,6,12)       =    120.193448    -0.000000    -0.000225   120.193223
	   37 B(6,1,7)        =    119.824467    -0.000001    -0.001702   119.822765
	   38 B(6,5,11)       =    119.731781    -0.000000    -0.001237   119.730544
	   39 B(7,13,17)      =    119.507368    -0.000001    -0.003237   119.504131
	   40 B(7,13,18)      =    123.230189     0.000000     0.000783   123.230972
	   41 B(7,14,15)      =    123.148638     0.000001     0.002718   123.151357
	   42 B(7,14,16)      =    119.520981    -0.000001    -0.005991   119.514990
	   43 B(13,7,14)      =    120.808974     0.000003     0.006685   120.815659
	   44 B(15,14,16)     =    117.263176     0.000001     0.002712   117.265888
	   45 B(17,13,18)     =    117.262443     0.000000     0.002453   117.264896
	   46 D(1,2,3,4)      =     -0.162835     0.000000     0.017753    -0.145082
	   47 D(1,2,3,9)      =    179.262925     0.000000     0.000854   179.263779
	   48 D(1,6,5,4)      =     -1.416180     0.000000     0.019141    -1.397039
	   49 D(1,6,5,11)     =    178.415555     0.000000     0.000106   178.415662
	   50 D(1,7,13,17)    =     -6.027834     0.000000     0.009327    -6.018507
	   51 D(1,7,13,18)    =    173.981359     0.000000     0.014777   173.996136
	   52 D(1,7,14,15)    =    173.412197     0.000000     0.021101   173.433298
	   53 D(1,7,14,16)    =     -9.653008    -0.000000     0.008436    -9.644572
	   54 D(2,1,6,5)      =      1.775996     0.000000    -0.008652     1.767343
	   55 D(2,1,6,12)     =    179.062603     0.000000    -0.009363   179.053240
	   56 *D(2,1,7,13)    =    -49.999981    -0.000000     0.000000   -49.999981
	   57 D(2,1,7,14)     =    132.086588     0.000000     0.004834   132.091422
	   58 D(2,3,4,5)      =      0.516771    -0.000000    -0.007379     0.509392
	   59 D(2,3,4,10)     =   -179.680268    -0.000000    -0.011481  -179.691748
	   60 D(3,2,1,6)      =     -0.985655    -0.000000    -0.009834    -0.995489
	   61 D(3,2,1,7)      =   -177.586030    -0.000000    -0.013886  -177.599916
	   62 D(3,4,5,6)      =      0.283788    -0.000000    -0.011325     0.272463
	   63 D(3,4,5,11)     =   -179.547148     0.000000     0.007803  -179.539345
	   64 D(4,3,2,8)      =   -178.295841     0.000000     0.017523  -178.278318
	   65 D(4,5,6,12)     =   -178.707369     0.000000     0.019828  -178.687541
	   66 D(5,4,3,9)      =   -178.906223     0.000000     0.009613  -178.896609
	   67 D(5,6,1,7)      =    178.366223    -0.000000    -0.004489   178.361734
	   68 D(6,1,2,8)      =    177.143771    -0.000000    -0.009692   177.134078
	   69 D(6,1,7,13)     =    133.374202     0.000000    -0.004104   133.370098
	   70 D(6,1,7,14)     =    -44.539228     0.000000     0.000729   -44.538499
	   71 D(6,5,4,10)     =   -179.519199    -0.000000    -0.007224  -179.526423
	   72 D(7,1,2,8)      =      0.543396    -0.000000    -0.013745     0.529651
	   73 D(7,1,6,12)     =     -4.347170     0.000000    -0.005199    -4.352369
	   74 D(8,2,3,9)      =      1.129919    -0.000000     0.000624     1.130543
	   75 D(9,3,4,10)     =      0.896739     0.000000     0.005512     0.902251
	   76 D(10,4,5,11)    =      0.649866     0.000000     0.011904     0.661769
	   77 D(11,5,6,12)    =      1.124366    -0.000000     0.000793     1.125160
	   78 D(13,7,14,15)   =     -4.473958     0.000000     0.026162    -4.447795
	   79 D(13,7,14,16)   =    172.460838     0.000000     0.013497   172.474335
	   80 D(14,7,13,17)   =    171.860385    -0.000000     0.004160   171.864545
	   81 D(14,7,13,18)   =     -8.130423     0.000000     0.009610    -8.120812
	 ---------------------------------------------------------------------------
	Successfully symmetrized geometry.

  ==> Convergence Check <==

  Measures of convergence in internal coordinates in au.
  Criteria marked as inactive (o), active & met (*), and active & unmet ( ).
  ---------------------------------------------------------------------------------------------
   Step     Total Energy     Delta E     MAX Force     RMS Force      MAX Disp      RMS Disp   
  ---------------------------------------------------------------------------------------------
    Convergence Criteria    1.00e-06 *    3.00e-04 *             o    1.20e-03 *             o
  ---------------------------------------------------------------------------------------------
      7    -381.46966187   -3.05e-07 *    3.68e-05 *    8.82e-06 o    4.57e-04 *    1.36e-04 o  ~
  ---------------------------------------------------------------------------------------------


  **** Optimization is complete! (in 7 steps) ****

  ==> Optimization Summary <==

  Measures of convergence in internal coordinates in au.
  --------------------------------------------------------------------------------------------------------------- ~
   Step         Total Energy             Delta E       MAX Force       RMS Force        MAX Disp        RMS Disp  ~
  --------------------------------------------------------------------------------------------------------------- ~
      1    -381.464964503854   -381.464964503854      0.00414243      0.00144809      0.16095400      0.04994539  ~
      2    -381.468373309451     -0.003408805597      0.00749929      0.00150619      0.14688895      0.03838079  ~
      3    -381.469478004862     -0.001104695411      0.00632143      0.00117168      0.03567986      0.00856797  ~
      4    -381.469652221745     -0.000174216883      0.00094736      0.00015720      0.01268948      0.00267917  ~
      5    -381.469660141543     -0.000007919798      0.00020896      0.00005560      0.00573493      0.00150712  ~
      6    -381.469661562109     -0.000001420566      0.00012740      0.00002559      0.00195315      0.00052502  ~
      7    -381.469661866904     -0.000000304795      0.00003682      0.00000882      0.00045662      0.00013580  ~
  --------------------------------------------------------------------------------------------------------------- ~

	Writing optimization data to binary file.
	Final energy is   -381.4696618669039
	Final (previous) structure:
	Cartesian Geometry (in Angstrom)
	    C    -0.0010560896  -0.0270564535  -0.1904035764
	    C    -1.2199467477  -0.0663607222   0.5093101978
	    C    -1.2105506622  -0.0501923938   1.9014327980
	    C     0.0037532461   0.0012776623   2.5922740328
	    C     1.2153188286   0.0477444252   1.8953915775
	    C     1.2195556325   0.0489795561   0.5034609876
	    C    -0.0101974650   0.0098181754  -1.6596248815
	    H    -2.1628485197  -0.0784114884  -0.0303463911
	    H    -2.1487708735  -0.0682428805   2.4464598368
	    H     0.0061877991   0.0084474308   3.6779018062
	    H     2.1554455526   0.0801962064   2.4364816702
	    H     2.1601393917   0.0638566915  -0.0400534607
	    N    -0.7412689412  -0.8719514595  -2.3320659075
	    N     0.7441571489   0.8965302382  -2.2988708205
	    H     0.8540266807   0.9068673463  -3.3066392682
	    H     1.2027038732   1.6309899866  -1.7750005666
	    H    -1.2105604671  -1.6156564980  -1.8312024706
	    H    -0.8592651185  -0.8434105294  -3.3385654703
	Saving final (previous) structure.
			--------------------------
			 OPTKING Finished Execution 
			--------------------------

    Final optimized geometry and variables:
    Molecular point group: c1
    Full point group: C1

    Geometry (in Angstrom), charge = 1, multiplicity = 1:

    C           -0.001056089636    -0.027056453461    -0.190403576435
    C           -1.219946747749    -0.066360722164     0.509310197838
    C           -1.210550662227    -0.050192393757     1.901432798035
    C            0.003753246148     0.001277662347     2.592274032804
    C            1.215318828635     0.047744425230     1.895391577479
    C            1.219555632548     0.048979556078     0.503460987573
    C           -0.010197464980     0.009818175378    -1.659624881492
    H           -2.162848519730    -0.078411488419    -0.030346391095
    H           -2.148770873480    -0.068242880529     2.446459836823
    H            0.006187799083     0.008447430812     3.677901806161
    H            2.155445552614     0.080196206405     2.436481670205
    H            2.160139391732     0.063856691537    -0.040053460681
    N           -0.741268941153    -0.871951459486    -2.332065907500
    N            0.744157148943     0.896530238215    -2.298870820463
    H            0.854026680675     0.906867346253    -3.306639268182
    H            1.202703873201     1.630989986610    -1.775000566597
    H           -1.210560467140    -1.615656498045    -1.831202470575
    H           -0.859265118482    -0.843410529430    -3.338565470328

	Cleaning optimization helper files.


Properties will be evaluated at   0.000000,   0.000000,   0.000000 Bohr

Properties computed using the  density matrix

  Nuclear Dipole Moment: (a.u.)
     X:    -0.0028      Y:     0.0793      Z:    -1.6374

  Electronic Dipole Moment: (a.u.)
     X:    -0.0169      Y:    -0.0368      Z:    -0.7118

  Dipole Moment: (a.u.)
     X:    -0.0197      Y:     0.0425      Z:    -2.3492     Total:     2.3497

  Dipole Moment: (Debye)
     X:    -0.0500      Y:     0.1081      Z:    -5.9711     Total:     5.9723

  Quadrupole Moment: (Debye Ang)
    XX:   -40.2115     YY:   -47.0281     ZZ:   -13.3312
    XY:     6.5596     XZ:     0.2149     YZ:    -0.1504

  Traceless Quadrupole Moment: (Debye Ang)
    XX:    -6.6879     YY:   -13.5045     ZZ:    20.1924
    XY:     6.5596     XZ:     0.2149     YZ:    -0.1504

  Mulliken Charges: (a.u.)
   Center  Symbol    Alpha    Beta     Spin     Total
       1     C     2.96851  2.96851  0.00000  0.06298
       2     C     3.07822  3.07822  0.00000 -0.15644
       3     C     3.06205  3.06205  0.00000 -0.12409
       4     C     3.05202  3.05202  0.00000 -0.10403
       5     C     3.06302  3.06302  0.00000 -0.12604
       6     C     3.07941  3.07941  0.00000 -0.15881
       7     C     2.73030  2.73030  0.00000  0.53940
       8     H     0.41366  0.41366  0.00000  0.17267
       9     H     0.40588  0.40588  0.00000  0.18825
      10     H     0.40461  0.40461  0.00000  0.19078
      11     H     0.40587  0.40587  0.00000  0.18826
      12     H     0.41345  0.41345  0.00000  0.17309
      13     N     3.85679  3.85679  0.00000 -0.71358
      14     N     3.85820  3.85820  0.00000 -0.71639
      15     H     0.30550  0.30550  0.00000  0.38901
      16     H     0.29863  0.29863  0.00000  0.40275
      17     H     0.29826  0.29826  0.00000  0.40348
      18     H     0.30564  0.30564  0.00000  0.38873

   Total alpha = 32.00000, Total beta = 32.00000, Total charge =  1.00000


*** Psi4 exiting successfully. Buy a developer a beer!
