    -----------------------------------------------------------------------
          Psi4: An Open-Source Ab Initio Electronic Structure Package
                              Psi4 (no tag) Driver

                          Git: Rev {detached?}  

    J. M. Turney, A. C. Simmonett, R. M. Parrish, E. G. Hohenstein,
    F. A. Evangelista, J. T. Fermann, B. J. Mintz, L. A. Burns, J. J. Wilke,
    M. L. Abrams, N. J. Russ, M. L. Leininger, C. L. Janssen, E. T. Seidl,
    W. D. Allen, H. F. Schaefer, R. A. King, E. F. Valeev, C. D. Sherrill,
    and T. D. Crawford, WIREs Comput. Mol. Sci. 2, 556-565 (2012)
    (doi: 10.1002/wcms.93)

                         Additional Contributions by
    A. E. DePrince, M. Saitow, U. Bozkaya, A. Yu. Sokolov
    -----------------------------------------------------------------------


    Psi4 started on: Tue Jul  5 16:32:54 2016

    Process ID:  26445
    PSI4DATADIR: /export131/home/mjharvey/miniconda3/share
    Memory level set to 256.000 MB

  ==> Input File <==

--------------------------------------------------------------------------
set {
	reference rhf
	basis 6-31G*
}


set_num_threads( 1 )
memory 2 gb

molecule MOL {
0 1

H	 2.749773	 0.089830	 0.891860
N	 2.332695	 -0.069570	 0.000000
C	 0.936681	 -0.007078	 0.000000
H	 2.767907	 0.494917	 -0.697655
C	 0.227108	 -0.002120	 -1.198267
C	 0.227108	 -0.002120	 1.198267
H	 0.761569	 -0.014657	 -2.132680
C	 -1.156334	 0.010459	 -1.192360
H	 0.761569	 -0.014657	 2.132680
C	 -1.156334	 0.010459	 1.192360
H	 -1.684791	 0.014915	 -2.129421
C	 -1.862085	 0.017996	 0.000000
H	 -1.684791	 0.014915	 2.129421
H	 -2.936703	 0.028387	 0.000000

	symmetry c1
}
ee = energy('scf')
oeprop('DIPOLE', 'QUADRUPOLE', 'MULLIKEN_CHARGES')
f=open( 'psi4out.xyz', 'w' )
f.write( "14  " )
f.write( str(ee) + "\n" )
f.write( MOL.save_string_xyz() )
f.close()
--------------------------------------------------------------------------

  Memory set to   2.000 GiB by Python script.

*** tstart() called on cx1-1-2-1.cx1.hpc.ic.ac.uk
*** at Tue Jul  5 16:32:54 2016


         ---------------------------------------------------------
                                   SCF
            by Justin Turney, Rob Parrish, and Andy Simmonett
                              RHF Reference
                        1 Threads,   2000 MiB Core
         ---------------------------------------------------------

  ==> Geometry <==

    Molecular point group: c1
    Full point group: C1

    Geometry (in Angstrom), charge = 0, multiplicity = 1:

       Center              X                  Y                   Z               Mass       
    ------------   -----------------  -----------------  -----------------  -----------------
           H          2.749784718948     0.090094244529     0.889756742059     1.007825032070
           N          2.332706718948    -0.069305755471    -0.002103257941    14.003074004780
           C          0.936692718948    -0.006813755471    -0.002103257941    12.000000000000
           H          2.767918718948     0.495181244529    -0.699758257941     1.007825032070
           C          0.227119718948    -0.001855755471    -1.200370257941    12.000000000000
           C          0.227119718948    -0.001855755471     1.196163742059    12.000000000000
           H          0.761580718948    -0.014392755471    -2.134783257941     1.007825032070
           C         -1.156322281052     0.010723244529    -1.194463257941    12.000000000000
           H          0.761580718948    -0.014392755471     2.130576742059     1.007825032070
           C         -1.156322281052     0.010723244529     1.190256742059    12.000000000000
           H         -1.684779281052     0.015179244529    -2.131524257941     1.007825032070
           C         -1.862073281052     0.018260244529    -0.002103257941    12.000000000000
           H         -1.684779281052     0.015179244529     2.127317742059     1.007825032070
           H         -2.936691281052     0.028651244529    -0.002103257941     1.007825032070

  Running in c1 symmetry.

  Rotational constants: A =      0.19049  B =      0.08738  C =      0.06004 [cm^-1]
  Rotational constants: A =   5710.69260  B =   2619.63043  C =   1799.90300 [MHz]
  Nuclear repulsion =  273.059650920286515

  Charge       = 0
  Multiplicity = 1
  Electrons    = 50
  Nalpha       = 25
  Nbeta        = 25

  ==> Algorithm <==

  SCF Algorithm Type is DF.
  DIIS enabled.
  MOM disabled.
  Fractional occupation disabled.
  Guess Type is CORE.
  Energy threshold   = 1.00e-06
  Density threshold  = 1.00e-06
  Integral threshold = 0.00e+00

  ==> Primary Basis <==

  Basis Set: 6-31G*
    Number of shells: 56
    Number of basis function: 119
    Number of Cartesian functions: 119
    Spherical Harmonics?: false
    Max angular momentum: 2

  ==> Pre-Iterations <==

   -------------------------------------------------------
    Irrep   Nso     Nmo     Nalpha   Nbeta   Ndocc  Nsocc
   -------------------------------------------------------
     A        119     119       0       0       0       0
   -------------------------------------------------------
    Total     119     119      25      25      25       0
   -------------------------------------------------------

 OEINTS: Overlap, kinetic, potential, dipole, and quadrupole integrals
         stored in file 35.

  ==> Integral Setup <==

  ==> DFJK: Density-Fitted J/K Matrices <==

    J tasked:                  Yes
    K tasked:                  Yes
    wK tasked:                  No
    OpenMP threads:              1
    Integrals threads:           1
    Memory (MB):              1430
    Algorithm:                Core
    Integral Cache:           NONE
    Schwarz Cutoff:          1E-12
    Fitting Condition:       1E-12

   => Auxiliary Basis Set <=

  Basis Set: 
    Number of shells: 231
    Number of basis function: 742
    Number of Cartesian functions: 742
    Spherical Harmonics?: false
    Max angular momentum: 3

  Minimum eigenvalue in the overlap matrix is 4.3064525748E-04.
  Using Symmetric Orthogonalization.
  SCF Guess: Core (One-Electron) Hamiltonian.

  ==> Iterations <==

                           Total Energy        Delta E     RMS |[F,P]|

   @DF-RHF iter   1:  -224.83000189547300   -2.24830e+02   7.09897e-02 
   @DF-RHF iter   2:  -234.63714269593817   -9.80714e+00   5.30697e-02 DIIS
   @DF-RHF iter   3:  -268.17934553881656   -3.35422e+01   3.59607e-02 DIIS
   @DF-RHF iter   4:  -268.18611459403070   -6.76906e-03   3.75619e-02 DIIS
   @DF-RHF iter   5:  -284.99234530077166   -1.68062e+01   9.37210e-03 DIIS
   @DF-RHF iter   6:  -285.67833055219006   -6.85985e-01   2.51865e-03 DIIS
   @DF-RHF iter   7:  -285.72013397626159   -4.18034e-02   1.03654e-03 DIIS
   @DF-RHF iter   8:  -285.72830908236182   -8.17511e-03   4.27409e-04 DIIS
   @DF-RHF iter   9:  -285.72972901456484   -1.41993e-03   1.65812e-04 DIIS
   @DF-RHF iter  10:  -285.72995309265292   -2.24078e-04   2.68508e-05 DIIS
   @DF-RHF iter  11:  -285.72996243332994   -9.34068e-06   9.45695e-06 DIIS
   @DF-RHF iter  12:  -285.72996338820298   -9.54873e-07   2.84029e-06 DIIS
   @DF-RHF iter  13:  -285.72996349076192   -1.02559e-07   7.17176e-07 DIIS

  ==> Post-Iterations <==

    Orbital Energies (a.u.)
    -----------------------

    Doubly Occupied:                                                      

       1A    -15.559657     2A    -11.270264     3A    -11.228413  
       4A    -11.228245     5A    -11.217876     6A    -11.217024  
       7A    -11.213784     8A     -1.221561     9A     -1.125182  
      10A     -1.009143    11A     -0.983655    12A     -0.828301  
      13A     -0.809138    14A     -0.703097    15A     -0.682369  
      16A     -0.651895    17A     -0.596344    18A     -0.590679  
      19A     -0.578491    20A     -0.526161    21A     -0.502612  
      22A     -0.484347    23A     -0.441202    24A     -0.330752  
      25A     -0.290531  

    Virtual:                                                              

      26A      0.150707    27A      0.168076    28A      0.230241  
      29A      0.249661    30A      0.276426    31A      0.314144  
      32A      0.319564    33A      0.343143    34A      0.353308  
      35A      0.383878    36A      0.449319    37A      0.486832  
      38A      0.508447    39A      0.538229    40A      0.554149  
      41A      0.663932    42A      0.743066    43A      0.757768  
      44A      0.761588    45A      0.797816    46A      0.821440  
      47A      0.833694    48A      0.840227    49A      0.843367  
      50A      0.849768    51A      0.854002    52A      0.876224  
      53A      0.916141    54A      0.928287    55A      0.983427  
      56A      1.017224    57A      1.059876    58A      1.106543  
      59A      1.119375    60A      1.127260    61A      1.129099  
      62A      1.170245    63A      1.194637    64A      1.201678  
      65A      1.222271    66A      1.225733    67A      1.247895  
      68A      1.275074    69A      1.313188    70A      1.353124  
      71A      1.378533    72A      1.455284    73A      1.460366  
      74A      1.523162    75A      1.593910    76A      1.649390  
      77A      1.719656    78A      1.724163    79A      1.772628  
      80A      1.782336    81A      1.804081    82A      1.808594  
      83A      2.058145    84A      2.099892    85A      2.148286  
      86A      2.189467    87A      2.206987    88A      2.252379  
      89A      2.301395    90A      2.331344    91A      2.409351  
      92A      2.424472    93A      2.442206    94A      2.473844  
      95A      2.506816    96A      2.542565    97A      2.588762  
      98A      2.635883    99A      2.659863   100A      2.789036  
     101A      2.822353   102A      2.853576   103A      2.926475  
     104A      2.944222   105A      3.041979   106A      3.102390  
     107A      3.110447   108A      3.121284   109A      3.214406  
     110A      3.248128   111A      3.481080   112A      3.841753  
     113A      4.274383   114A      4.533178   115A      4.553712  
     116A      4.566856   117A      4.767118   118A      4.797035  
     119A      5.140928  

    Final Occupation by Irrep:
              A 
    DOCC [    25 ]

  Energy converged.

  @DF-RHF Final Energy:  -285.72996349076192

   => Energetics <=

    Nuclear Repulsion Energy =            273.0596509202865150
    One-Electron Energy =                -926.9979074427455998
    Two-Electron Energy =                 368.2082930316963711
    DFT Exchange-Correlation Energy =       0.0000000000000000
    Empirical Dispersion Energy =           0.0000000000000000
    PCM Polarization Energy =               0.0000000000000000
    EFP Energy =                            0.0000000000000000
    Total Energy =                       -285.7299634907627706

    Alert: EFP and PCM quantities not currently incorporated into SCF psivars.

Properties will be evaluated at   0.000000,   0.000000,   0.000000 Bohr
  ==> Properties <==


Properties computed using the SCF density matrix

  Nuclear Dipole Moment: (a.u.)
     X:     0.6819      Y:     0.5772      Z:     0.1683

  Electronic Dipole Moment: (a.u.)
     X:    -0.3623      Y:    -0.0869      Z:    -0.0605

  Dipole Moment: (a.u.)
     X:     0.3196      Y:     0.4903      Z:     0.1077     Total:     0.5951

  Dipole Moment: (Debye)
     X:     0.8123      Y:     1.2463      Z:     0.2738     Total:     1.5127


  Saving occupied orbitals to File 180.

*** tstop() called on cx1-1-2-1.cx1.hpc.ic.ac.uk at Tue Jul  5 16:33:02 2016
Module time:
	user time   =       6.98 seconds =       0.12 minutes
	system time =       0.04 seconds =       0.00 minutes
	total time  =          8 seconds =       0.13 minutes
Total time:
	user time   =       6.98 seconds =       0.12 minutes
	system time =       0.04 seconds =       0.00 minutes
	total time  =          8 seconds =       0.13 minutes


Properties will be evaluated at   0.000000,   0.000000,   0.000000 Bohr

Properties computed using the  density matrix

  Nuclear Dipole Moment: (a.u.)
     X:     0.6819      Y:     0.5772      Z:     0.1683

  Electronic Dipole Moment: (a.u.)
     X:    -0.3623      Y:    -0.0869      Z:    -0.0605

  Dipole Moment: (a.u.)
     X:     0.3196      Y:     0.4903      Z:     0.1077     Total:     0.5951

  Dipole Moment: (Debye)
     X:     0.8123      Y:     1.2463      Z:     0.2738     Total:     1.5127

  Quadrupole Moment: (Debye Ang)
    XX:   -35.3937     YY:   -46.2500     ZZ:   -36.1370
    XY:     3.7592     XZ:     0.9294     YZ:    -0.6296

  Traceless Quadrupole Moment: (Debye Ang)
    XX:     3.8665     YY:    -6.9897     ZZ:     3.1232
    XY:     3.7592     XZ:     0.9294     YZ:    -0.6296

  Mulliken Charges: (a.u.)
   Center  Symbol    Alpha    Beta     Spin     Total
       1     H     0.32052  0.32052  0.00000  0.35896
       2     N     3.94559  3.94559  0.00000 -0.89117
       3     C     2.85368  2.85368  0.00000  0.29263
       4     H     0.32035  0.32035  0.00000  0.35931
       5     C     3.12343  3.12343  0.00000 -0.24687
       6     C     3.12849  3.12849  0.00000 -0.25698
       7     H     0.40246  0.40246  0.00000  0.19509
       8     C     3.09046  3.09046  0.00000 -0.18092
       9     H     0.40507  0.40507  0.00000  0.18986
      10     C     3.09014  3.09014  0.00000 -0.18028
      11     H     0.40079  0.40079  0.00000  0.19842
      12     C     3.11530  3.11530  0.00000 -0.23060
      13     H     0.40103  0.40103  0.00000  0.19794
      14     H     0.40269  0.40269  0.00000  0.19462

   Total alpha = 25.00000, Total beta = 25.00000, Total charge = -0.00000


*** PSI4 exiting successfully. Buy a developer a beer!
