
    -----------------------------------------------------------------------
          Psi4: An Open-Source Ab Initio Electronic Structure Package
                               Psi4 1.1 release

                         Git: Rev {HEAD} add49b9 


    R. M. Parrish, L. A. Burns, D. G. A. Smith, A. C. Simmonett,
    A. E. DePrince III, E. G. Hohenstein, U. Bozkaya, A. Yu. Sokolov,
    R. Di Remigio, R. M. Richard, J. F. Gonthier, A. M. James,
    H. R. McAlexander, A. Kumar, M. Saitow, X. Wang, B. P. Pritchard,
    P. Verma, H. F. Schaefer III, K. Patkowski, R. A. King, E. F. Valeev,
    F. A. Evangelista, J. M. Turney, T. D. Crawford, and C. D. Sherrill,
    J. Chem. Theory Comput. in press (2017).
    (doi: 10.1021/acs.jctc.7b00174)

    -----------------------------------------------------------------------


    Psi4 started on: Tuesday, 12 December 2017 10:56AM

    Process ID:  23411
    PSIDATADIR: /shared/raimis/opt/miniconda/envs/htmd/share/psi4
    Memory:     500.0 MiB
    Threads:    1
    
  ==> Input File <==

--------------------------------------------------------------------------
set_num_threads(1)
set_memory(4203741184)

set { reference rks }
set { basis cc-pVDZ }

molecule MOL {
    0 1
    noreorient
    nocom
    symmetry c1
    O    1.141000   0.017000   0.083000
    C    2.558000   0.086000  -0.005000
    C    3.192000  -0.789000   1.067000
    O    4.610000  -0.719000   0.979000
    H    0.789000   0.590000  -0.620000
    H    2.874000   1.128000   0.115000
    H    2.871000  -0.243000  -1.001000
    H    2.876000  -1.830000   0.947000
    H    2.879000  -0.459000   2.064000
    H    4.840616   0.225926   0.950416
}

set optking { frozen_dihedral = (" 2 3 4 10 ") }

energy, wfn = energy('B3LYP-D3', return_wfn=True)

import os
os.chdir(os.environ['HTMD_PSI4_WORKDIR'])

oeprop(wfn, 'DIPOLE', 'QUADRUPOLE', 'MULLIKEN_CHARGES')

with open('psi4out.xyz', 'w') as f:
    f.write('10 ' )
    f.write('%.12f\n' % energy)
    f.write(MOL.save_string_xyz())
--------------------------------------------------------------------------
  Threads set to 1 by Python driver.

  Memory set to   3.915 GiB by Python driver.

*** tstart() called on computer06
*** at Tue Dec 12 10:56:32 2017

   => Loading Basis Set <=

    Name: CC-PVDZ
    Role: ORBITAL
    Keyword: BASIS
    atoms 1, 4 entry O          line   190 file /shared/raimis/opt/miniconda/envs/htmd/share/psi4/basis/cc-pvdz.gbs 
    atoms 2-3  entry C          line   130 file /shared/raimis/opt/miniconda/envs/htmd/share/psi4/basis/cc-pvdz.gbs 
    atoms 5-10 entry H          line    20 file /shared/raimis/opt/miniconda/envs/htmd/share/psi4/basis/cc-pvdz.gbs 


         ---------------------------------------------------------
                                   SCF
            by Justin Turney, Rob Parrish, and Andy Simmonett
                              RKS Reference
                        1 Threads,   4009 MiB Core
         ---------------------------------------------------------

  ==> Geometry <==

    Molecular point group: c1
    Full point group: C1

    Geometry (in Angstrom), charge = 0, multiplicity = 1:

       Center              X                  Y                   Z               Mass       
    ------------   -----------------  -----------------  -----------------  -----------------
           O          1.141000000000     0.017000000000     0.083000000000    15.994914619560
           C          2.558000000000     0.086000000000    -0.005000000000    12.000000000000
           C          3.192000000000    -0.789000000000     1.067000000000    12.000000000000
           O          4.610000000000    -0.719000000000     0.979000000000    15.994914619560
           H          0.789000000000     0.590000000000    -0.620000000000     1.007825032070
           H          2.874000000000     1.128000000000     0.115000000000     1.007825032070
           H          2.871000000000    -0.243000000000    -1.001000000000     1.007825032070
           H          2.876000000000    -1.830000000000     0.947000000000     1.007825032070
           H          2.879000000000    -0.459000000000     2.064000000000     1.007825032070
           H          4.840616000000     0.225926000000     0.950416000000     1.007825032070

  Running in c1 symmetry.

  Rotational constants: A =      0.81903  B =      0.02555  C =      0.02504 [cm^-1]
  Rotational constants: A =  24554.00527  B =    765.82720  C =    750.63016 [MHz]
  Nuclear repulsion =  129.963500743830451

  Charge       = 0
  Multiplicity = 1
  Electrons    = 34
  Nalpha       = 17
  Nbeta        = 17

  ==> Algorithm <==

  SCF Algorithm Type is DF.
  DIIS enabled.
  MOM disabled.
  Fractional occupation disabled.
  Guess Type is SAD.
  Energy threshold   = 1.00e-06
  Density threshold  = 1.00e-06
  Integral threshold = 0.00e+00

  ==> Primary Basis <==

  Basis Set: CC-PVDZ
    Blend: CC-PVDZ
    Number of shells: 42
    Number of basis function: 86
    Number of Cartesian functions: 90
    Spherical Harmonics?: true
    Max angular momentum: 2

  ==> DFT Potential <==

   => B3LYP Composite Functional <= 

    B3LYP Hybrid-GGA Exchange-Correlation Functional (VWN1-RPA)

    P.J. Stephens et. al., J. Phys. Chem., 98, 11623-11627, 1994

    Points   =           5000
    Deriv    =              1
    GGA      =           TRUE
    Meta     =          FALSE

    X_LRC        =          FALSE
    X_Hybrid     =           TRUE
    X_Alpha      =   2.000000E-01
    X_Omega      =   0.000000E+00
    C_LRC        =          FALSE
    C_Hybrid     =          FALSE
    C_Alpha      =   0.000000E+00
    C_Omega      =   0.000000E+00

   => Exchange Functionals <=

    0.8000    B3_X
    0.2000      HF 

   => Correlation Functionals <=

    0.1900 VWN3RPA_C
    0.8100   LYP_C

   => Molecular Quadrature <=

    Radial Scheme    =       TREUTLER
    Pruning Scheme   =           FLAT
    Nuclear Scheme   =       TREUTLER

    BS radius alpha  =              1
    Pruning alpha    =              1
    Radial Points    =             75
    Spherical Points =            302
    Total Points     =         222536
    Total Blocks     =            211
    Max Points       =           4945
    Max Functions    =             86

   => -D3ZERO: Empirical Dispersion <=

    Grimme's -D3 (zero-damping) Dispersion Correction
    Grimme S.; Antony J.; Ehrlich S.; Krieg H. (2010), J. Chem. Phys., 132: 154104

        S6 =   1.000000E+00
        S8 =   1.703000E+00
       SR6 =   1.261000E+00
    ALPHA6 =   1.400000E+01

   => Loading Basis Set <=

    Name: (CC-PVDZ AUX)
    Role: JKFIT
    Keyword: DF_BASIS_SCF
    atoms 1, 4 entry O          line   220 file /shared/raimis/opt/miniconda/envs/htmd/share/psi4/basis/cc-pvdz-jkfit.gbs 
    atoms 2-3  entry C          line   120 file /shared/raimis/opt/miniconda/envs/htmd/share/psi4/basis/cc-pvdz-jkfit.gbs 
    atoms 5-10 entry H          line    50 file /shared/raimis/opt/miniconda/envs/htmd/share/psi4/basis/cc-pvdz-jkfit.gbs 

  ==> Pre-Iterations <==

   -------------------------------------------------------
    Irrep   Nso     Nmo     Nalpha   Nbeta   Ndocc  Nsocc
   -------------------------------------------------------
     A         86      86       0       0       0       0
   -------------------------------------------------------
    Total      86      86      17      17      17       0
   -------------------------------------------------------

  ==> Integral Setup <==

  ==> DFJK: Density-Fitted J/K Matrices <==

    J tasked:                  Yes
    K tasked:                  Yes
    wK tasked:                  No
    OpenMP threads:              1
    Integrals threads:           1
    Memory (MB):              3006
    Algorithm:                Core
    Integral Cache:           NONE
    Schwarz Cutoff:          1E-12
    Fitting Condition:       1E-12

   => Auxiliary Basis Set <=

  Basis Set: (CC-PVDZ AUX)
    Blend: CC-PVDZ-JKFIT
    Number of shells: 150
    Number of basis function: 418
    Number of Cartesian functions: 474
    Spherical Harmonics?: true
    Max angular momentum: 3

  Minimum eigenvalue in the overlap matrix is 5.0702868136E-03.
  Using Symmetric Orthogonalization.

  SCF Guess: Superposition of Atomic Densities via on-the-fly atomic UHF.

  ==> Iterations <==

                           Total Energy        Delta E     RMS |[F,P]|

   @DF-RKS iter   0:  -230.98531942102139   -2.30985e+02   4.09872e-02 
   @DF-RKS iter   1:  -230.17720495396836    8.08114e-01   5.28394e-03 
   @DF-RKS iter   2:  -230.11838436431736    5.88206e-02   7.22111e-03 DIIS
   @DF-RKS iter   3:  -230.25708930280385   -1.38705e-01   6.21624e-04 DIIS
   @DF-RKS iter   4:  -230.25817116935877   -1.08187e-03   2.17983e-04 DIIS
   @DF-RKS iter   5:  -230.25834010412001   -1.68935e-04   4.56899e-05 DIIS
   @DF-RKS iter   6:  -230.25834721679388   -7.11267e-06   7.68482e-06 DIIS
   @DF-RKS iter   7:  -230.25834733034208   -1.13548e-07   4.44985e-06 DIIS
   @DF-RKS iter   8:  -230.25834738328695   -5.29449e-08   3.88298e-07 DIIS

  ==> Post-Iterations <==

    Orbital Energies (a.u.)
    -----------------------

    Doubly Occupied:                                                      

       1A    -19.135823     2A    -19.134611     3A    -10.231355  
       4A    -10.227236     5A     -1.023267     6A     -1.011576  
       7A     -0.732209     8A     -0.620180     9A     -0.518395  
      10A     -0.495067    11A     -0.460027    12A     -0.428222  
      13A     -0.398556    14A     -0.348098    15A     -0.324317  
      16A     -0.269567    17A     -0.268209  

    Virtual:                                                              

      18A      0.043493    19A      0.050308    20A      0.101445  
      21A      0.114493    22A      0.127369    23A      0.164379  
      24A      0.193362    25A      0.233276    26A      0.247341  
      27A      0.434972    28A      0.441520    29A      0.498247  
      30A      0.517390    31A      0.550689    32A      0.573077  
      33A      0.600467    34A      0.623434    35A      0.636838  
      36A      0.651718    37A      0.668380    38A      0.679004  
      39A      0.876638    40A      0.893201    41A      0.905442  
      42A      0.972877    43A      1.019000    44A      1.052823  
      45A      1.058042    46A      1.127216    47A      1.190775  
      48A      1.205568    49A      1.245485    50A      1.331720  
      51A      1.340826    52A      1.387253    53A      1.464910  
      54A      1.520675    55A      1.594053    56A      1.621037  
      57A      1.647052    58A      1.650310    59A      1.671107  
      60A      1.681644    61A      1.726882    62A      1.776381  
      63A      1.831347    64A      1.854648    65A      1.907745  
      66A      2.000358    67A      2.004296    68A      2.046711  
      69A      2.109343    70A      2.132734    71A      2.239481  
      72A      2.289519    73A      2.406164    74A      2.447437  
      75A      2.467842    76A      2.516449    77A      2.916239  
      78A      2.948391    79A      2.980174    80A      3.006572  
      81A      3.080132    82A      3.104855    83A      3.185964  
      84A      3.246356    85A      3.671021    86A      3.688778  

    Final Occupation by Irrep:
              A 
    DOCC [    17 ]

  Energy converged.

  @DF-RKS Final Energy:  -230.25834738328695

   => Energetics <=

    Nuclear Repulsion Energy =            129.9635007438304513
    One-Electron Energy =                -571.5577684154561666
    Two-Electron Energy =                 235.8784949188201381
    DFT Exchange-Correlation Energy =     -24.5379268304813500
    Empirical Dispersion Energy =          -0.0046478000000000
    PCM Polarization Energy =               0.0000000000000000
    EFP Energy =                            0.0000000000000000
    Total Energy =                       -230.2583473832869458



Properties will be evaluated at   0.000000,   0.000000,   0.000000 Bohr

Properties computed using the SCF density matrix

  Nuclear Dipole Moment: (a.u.)
     X:   184.5084      Y:   -19.6949      Z:    32.7365

  Electronic Dipole Moment: (a.u.)
     X:  -184.6219      Y:    20.5180      Z:   -33.1621

  Dipole Moment: (a.u.)
     X:    -0.1136      Y:     0.8231      Z:    -0.4256     Total:     0.9336

  Dipole Moment: (Debye)
     X:    -0.2887      Y:     2.0921      Z:    -1.0818     Total:     2.3729


*** tstop() called on computer06 at Tue Dec 12 10:56:52 2017
Module time:
	user time   =      19.45 seconds =       0.32 minutes
	system time =       0.11 seconds =       0.00 minutes
	total time  =         20 seconds =       0.33 minutes
Total time:
	user time   =      19.45 seconds =       0.32 minutes
	system time =       0.11 seconds =       0.00 minutes
	total time  =         20 seconds =       0.33 minutes


Properties will be evaluated at   0.000000,   0.000000,   0.000000 Bohr

Properties computed using the  density matrix

  Nuclear Dipole Moment: (a.u.)
     X:   184.5084      Y:   -19.6949      Z:    32.7365

  Electronic Dipole Moment: (a.u.)
     X:  -184.6219      Y:    20.5180      Z:   -33.1621

  Dipole Moment: (a.u.)
     X:    -0.1136      Y:     0.8231      Z:    -0.4256     Total:     0.9336

  Dipole Moment: (Debye)
     X:    -0.2887      Y:     2.0921      Z:    -1.0818     Total:     2.3729

  Quadrupole Moment: (Debye Ang)
    XX:   -29.0465     YY:   -24.1981     ZZ:   -24.2232
    XY:     7.6775     XZ:    -1.3269     YZ:     0.4288

  Traceless Quadrupole Moment: (Debye Ang)
    XX:    -3.2239     YY:     1.6245     ZZ:     1.5994
    XY:     7.6775     XZ:    -1.3269     YZ:     0.4288

  Mulliken Charges: (a.u.)
   Center  Symbol    Alpha    Beta     Spin     Total
       1     O     4.13866  4.13866  0.00000 -0.27731
       2     C     2.95094  2.95094  0.00000  0.09812
       3     C     2.92456  2.92456  0.00000  0.15087
       4     O     4.13868  4.13868  0.00000 -0.27735
       5     H     0.42810  0.42810  0.00000  0.14380
       6     H     0.50683  0.50683  0.00000 -0.01367
       7     H     0.49786  0.49786  0.00000  0.00427
       8     H     0.48590  0.48590  0.00000  0.02820
       9     H     0.49680  0.49680  0.00000  0.00640
      10     H     0.43167  0.43167  0.00000  0.13667

   Total alpha = 17.00000, Total beta = 17.00000, Total charge =  0.00000


*** Psi4 exiting successfully. Buy a developer a beer!
