    -----------------------------------------------------------------------
          Psi4: An Open-Source Ab Initio Electronic Structure Package
                              Psi4 (no tag) Driver

                          Git: Rev {detached?}  

    J. M. Turney, A. C. Simmonett, R. M. Parrish, E. G. Hohenstein,
    F. A. Evangelista, J. T. Fermann, B. J. Mintz, L. A. Burns, J. J. Wilke,
    M. L. Abrams, N. J. Russ, M. L. Leininger, C. L. Janssen, E. T. Seidl,
    W. D. Allen, H. F. Schaefer, R. A. King, E. F. Valeev, C. D. Sherrill,
    and T. D. Crawford, WIREs Comput. Mol. Sci. 2, 556-565 (2012)
    (doi: 10.1002/wcms.93)

                         Additional Contributions by
    A. E. DePrince, M. Saitow, U. Bozkaya, A. Yu. Sokolov
    -----------------------------------------------------------------------


    Psi4 started on: Tue Jul  5 16:35:53 2016

    Process ID:  25350
    PSI4DATADIR: /export131/home/mjharvey/miniconda3/share
    Memory level set to 256.000 MB

  ==> Input File <==

--------------------------------------------------------------------------
set {
	reference rhf
	basis 6-31G*
}


set_num_threads( 1 )
memory 2 gb

molecule MOL {
0 1

H	 -3.976562	 -0.926844	 0.835885
C	 -2.910618	 -0.786188	 0.863508
C	 -2.331873	 -0.093013	 1.915987
C	 -2.120069	 -1.298463	 -0.153123
H	 -2.946124	 0.303763	 2.703788
C	 -0.961213	 0.087438	 1.950811
H	 -2.570475	 -1.835522	 -0.968174
C	 -0.747805	 -1.119047	 -0.120356
H	 -0.496151	 0.621155	 2.757368
C	 -0.164713	 -0.424786	 0.933100
H	 -0.132217	 -1.513756	 -0.904943
C	 1.306462	 -0.203073	 1.017628
O	 1.970282	 -0.730723	 0.000018
O	 1.840860	 0.386284	 1.904159
C	 3.377318	 -0.566646	 -0.000065
H	 3.695437	 -0.028981	 -0.881264
H	 3.789299	 -1.563704	 0.000236
H	 3.695516	 -0.028316	 0.880770

	symmetry c1
}
set optking {
	frozen_dihedral = ("
		10 12 13 15,
		13 12 10 6
	")
}

ee = energy('scf')
oeprop('DIPOLE', 'QUADRUPOLE', 'MULLIKEN_CHARGES')
f=open( 'psi4out.xyz', 'w' )
f.write( "18  " )
f.write( str(ee) + "\n" )
f.write( MOL.save_string_xyz() )
f.close()
--------------------------------------------------------------------------

  Memory set to   2.000 GiB by Python script.

*** tstart() called on cx1-3-5-2.cx1.hpc.ic.ac.uk
*** at Tue Jul  5 16:35:53 2016


         ---------------------------------------------------------
                                   SCF
            by Justin Turney, Rob Parrish, and Andy Simmonett
                              RHF Reference
                        1 Threads,   2000 MiB Core
         ---------------------------------------------------------

  ==> Geometry <==

    Molecular point group: c1
    Full point group: C1

    Geometry (in Angstrom), charge = 0, multiplicity = 1:

       Center              X                  Y                   Z               Mass       
    ------------   -----------------  -----------------  -----------------  -----------------
           H         -4.030921679293    -0.461099130209     0.014103938991     1.007825032070
           C         -2.964977679293    -0.320443130209     0.041726938991    12.000000000000
           C         -2.386232679293     0.372731869791     1.094205938991    12.000000000000
           C         -2.174428679293    -0.832718130209    -0.974904061009    12.000000000000
           H         -3.000483679293     0.769507869791     1.882006938991     1.007825032070
           C         -1.015572679293     0.553182869791     1.129029938991    12.000000000000
           H         -2.624834679293    -1.369777130209    -1.789955061009     1.007825032070
           C         -0.802164679293    -0.653302130209    -0.942137061009    12.000000000000
           H         -0.550510679293     1.086899869791     1.935586938991     1.007825032070
           C         -0.219072679293     0.040958869791     0.111318938991    12.000000000000
           H         -0.186576679293    -1.048011130209    -1.726724061009     1.007825032070
           C          1.252102320707     0.262671869791     0.195846938991    12.000000000000
           O          1.915922320707    -0.264978130209    -0.821763061009    15.994914619560
           O          1.786500320707     0.852028869791     1.082377938991    15.994914619560
           C          3.322958320707    -0.100901130209    -0.821846061009    12.000000000000
           H          3.641077320707     0.436763869791    -1.703045061009     1.007825032070
           H          3.734939320707    -1.097959130209    -0.821545061009     1.007825032070
           H          3.641156320707     0.437428869791     0.058988938991     1.007825032070

  Running in c1 symmetry.

  Rotational constants: A =      0.11979  B =      0.02837  C =      0.02304 [cm^-1]
  Rotational constants: A =   3591.14504  B =    850.54791  C =    690.64379 [MHz]
  Nuclear repulsion =  493.154373383436564

  Charge       = 0
  Multiplicity = 1
  Electrons    = 72
  Nalpha       = 36
  Nbeta        = 36

  ==> Algorithm <==

  SCF Algorithm Type is DF.
  DIIS enabled.
  MOM disabled.
  Fractional occupation disabled.
  Guess Type is CORE.
  Energy threshold   = 1.00e-06
  Density threshold  = 1.00e-06
  Integral threshold = 0.00e+00

  ==> Primary Basis <==

  Basis Set: 6-31G*
    Number of shells: 76
    Number of basis function: 166
    Number of Cartesian functions: 166
    Spherical Harmonics?: false
    Max angular momentum: 2

  ==> Pre-Iterations <==

   -------------------------------------------------------
    Irrep   Nso     Nmo     Nalpha   Nbeta   Ndocc  Nsocc
   -------------------------------------------------------
     A        166     166       0       0       0       0
   -------------------------------------------------------
    Total     166     166      36      36      36       0
   -------------------------------------------------------

 OEINTS: Overlap, kinetic, potential, dipole, and quadrupole integrals
         stored in file 35.

  ==> Integral Setup <==

  ==> DFJK: Density-Fitted J/K Matrices <==

    J tasked:                  Yes
    K tasked:                  Yes
    wK tasked:                  No
    OpenMP threads:              1
    Integrals threads:           1
    Memory (MB):              1430
    Algorithm:                Core
    Integral Cache:           NONE
    Schwarz Cutoff:          1E-12
    Fitting Condition:       1E-12

   => Auxiliary Basis Set <=

  Basis Set: 
    Number of shells: 312
    Number of basis function: 1010
    Number of Cartesian functions: 1010
    Spherical Harmonics?: false
    Max angular momentum: 3

  Minimum eigenvalue in the overlap matrix is 4.3199885062E-04.
  Using Symmetric Orthogonalization.
  SCF Guess: Core (One-Electron) Hamiltonian.

  ==> Iterations <==

                           Total Energy        Delta E     RMS |[F,P]|

   @DF-RHF iter   1:  -346.63647883168198   -3.46636e+02   6.57458e-02 
   @DF-RHF iter   2:  -301.60934316279997    4.50271e+01   5.72485e-02 DIIS
   @DF-RHF iter   3:  -391.67055807804240   -9.00612e+01   4.98952e-02 DIIS
   @DF-RHF iter   4:  -423.63443754679292   -3.19639e+01   3.93465e-02 DIIS
   @DF-RHF iter   5:  -419.35288751705809    4.28155e+00   3.22482e-02 DIIS
   @DF-RHF iter   6:  -450.71686371838530   -3.13640e+01   1.32041e-02 DIIS
   @DF-RHF iter   7:  -453.60312481187145   -2.88626e+00   1.30017e-02 DIIS
   @DF-RHF iter   8:  -457.22820226766669   -3.62508e+00   2.68440e-03 DIIS
   @DF-RHF iter   9:  -457.32902400333126   -1.00822e-01   1.05251e-03 DIIS
   @DF-RHF iter  10:  -457.34443648507386   -1.54125e-02   4.17777e-04 DIIS
   @DF-RHF iter  11:  -457.34699163733887   -2.55515e-03   1.37289e-04 DIIS
   @DF-RHF iter  12:  -457.34737165025092   -3.80013e-04   3.59687e-05 DIIS
   @DF-RHF iter  13:  -457.34741702479403   -4.53745e-05   1.76489e-05 DIIS
   @DF-RHF iter  14:  -457.34742858660263   -1.15618e-05   8.35014e-06 DIIS
   @DF-RHF iter  15:  -457.34743260657910   -4.01998e-06   4.55716e-06 DIIS
   @DF-RHF iter  16:  -457.34743394055261   -1.33397e-06   1.78438e-06 DIIS
   @DF-RHF iter  17:  -457.34743415033961   -2.09787e-07   4.10064e-07 DIIS

  ==> Post-Iterations <==

    Orbital Energies (a.u.)
    -----------------------

    Doubly Occupied:                                                      

       1A    -20.607272     2A    -20.543481     3A    -11.379194  
       4A    -11.277655     5A    -11.245948     6A    -11.245643  
       7A    -11.244479     8A    -11.242094     9A    -11.237693  
      10A    -11.236925    11A     -1.473035    12A     -1.364070  
      13A     -1.165608    14A     -1.048389    15A     -1.025058  
      16A     -0.976918    17A     -0.859886    18A     -0.834612  
      19A     -0.776953    20A     -0.741158    21A     -0.685268  
      22A     -0.676029    23A     -0.671962    24A     -0.631765  
      25A     -0.624109    26A     -0.597770    27A     -0.582265  
      28A     -0.567253    29A     -0.521494    30A     -0.517725  
      31A     -0.504470    32A     -0.498610    33A     -0.455480  
      34A     -0.445586    35A     -0.345422    36A     -0.341206  

    Virtual:                                                              

      37A      0.100431    38A      0.140920    39A      0.238427  
      40A      0.250721    41A      0.265320    42A      0.292445  
      43A      0.302372    44A      0.315776    45A      0.323029  
      46A      0.331055    47A      0.341362    48A      0.350276  
      49A      0.387142    50A      0.448029    51A      0.468891  
      52A      0.482019    53A      0.488571    54A      0.498310  
      55A      0.554741    56A      0.579429    57A      0.690668  
      58A      0.710782    59A      0.734622    60A      0.742438  
      61A      0.744750    62A      0.768058    63A      0.798174  
      64A      0.802040    65A      0.805849    66A      0.816245  
      67A      0.819683    68A      0.833146    69A      0.838350  
      70A      0.857961    71A      0.889766    72A      0.895791  
      73A      0.901385    74A      0.968054    75A      0.982949  
      76A      0.995706    77A      1.026587    78A      1.089654  
      79A      1.098146    80A      1.100908    81A      1.112504  
      82A      1.122690    83A      1.125300    84A      1.139590  
      85A      1.162139    86A      1.187108    87A      1.209208  
      88A      1.222027    89A      1.239598    90A      1.259130  
      91A      1.265576    92A      1.307188    93A      1.321611  
      94A      1.358519    95A      1.366280    96A      1.412442  
      97A      1.467447    98A      1.497138    99A      1.502947  
     100A      1.545654   101A      1.561769   102A      1.620544  
     103A      1.644081   104A      1.671496   105A      1.695439  
     106A      1.711083   107A      1.735085   108A      1.756668  
     109A      1.767617   110A      1.784040   111A      1.844086  
     112A      1.861808   113A      1.951334   114A      2.005628  
     115A      2.056345   116A      2.078272   117A      2.124221  
     118A      2.172529   119A      2.177873   120A      2.179929  
     121A      2.242625   122A      2.248409   123A      2.322755  
     124A      2.368029   125A      2.380388   126A      2.399556  
     127A      2.416037   128A      2.422119   129A      2.463092  
     130A      2.483344   131A      2.491406   132A      2.493580  
     133A      2.511615   134A      2.607917   135A      2.618120  
     136A      2.621268   137A      2.638612   138A      2.668148  
     139A      2.720044   140A      2.826115   141A      2.849530  
     142A      2.903253   143A      2.941629   144A      2.985172  
     145A      2.991011   146A      3.079849   147A      3.087906  
     148A      3.112312   149A      3.124472   150A      3.173943  
     151A      3.215601   152A      3.326028   153A      3.376008  
     154A      3.545407   155A      3.622595   156A      3.852464  
     157A      4.395159   158A      4.519414   159A      4.538591  
     160A      4.548685   161A      4.666737   162A      4.707009  
     163A      4.745706   164A      4.854682   165A      5.004318  
     166A      5.154666  

    Final Occupation by Irrep:
              A 
    DOCC [    36 ]

  Energy converged.

  @DF-RHF Final Energy:  -457.34743415033961

   => Energetics <=

    Nuclear Repulsion Energy =            493.1543733834365639
    One-Electron Energy =               -1600.6186421562445048
    Two-Electron Energy =                 650.1168346224681045
    DFT Exchange-Correlation Energy =       0.0000000000000000
    Empirical Dispersion Energy =           0.0000000000000000
    PCM Polarization Energy =               0.0000000000000000
    EFP Energy =                            0.0000000000000000
    Total Energy =                       -457.3474341503397227

    Alert: EFP and PCM quantities not currently incorporated into SCF psivars.

Properties will be evaluated at   0.000000,   0.000000,   0.000000 Bohr
  ==> Properties <==


Properties computed using the SCF density matrix

  Nuclear Dipole Moment: (a.u.)
     X:     0.6026      Y:    -1.1655      Z:    -2.0149

  Electronic Dipole Moment: (a.u.)
     X:    -0.9319      Y:     0.7762      Z:     1.4207

  Dipole Moment: (a.u.)
     X:    -0.3293      Y:    -0.3893      Z:    -0.5941     Total:     0.7829

  Dipole Moment: (Debye)
     X:    -0.8370      Y:    -0.9894      Z:    -1.5101     Total:     1.9900


  Saving occupied orbitals to File 180.

*** tstop() called on cx1-3-5-2.cx1.hpc.ic.ac.uk at Tue Jul  5 16:36:20 2016
Module time:
	user time   =      25.50 seconds =       0.42 minutes
	system time =       0.27 seconds =       0.00 minutes
	total time  =         27 seconds =       0.45 minutes
Total time:
	user time   =      25.50 seconds =       0.42 minutes
	system time =       0.27 seconds =       0.00 minutes
	total time  =         27 seconds =       0.45 minutes


Properties will be evaluated at   0.000000,   0.000000,   0.000000 Bohr

Properties computed using the  density matrix

  Nuclear Dipole Moment: (a.u.)
     X:     0.6026      Y:    -1.1655      Z:    -2.0149

  Electronic Dipole Moment: (a.u.)
     X:    -0.9319      Y:     0.7762      Z:     1.4207

  Dipole Moment: (a.u.)
     X:    -0.3293      Y:    -0.3893      Z:    -0.5941     Total:     0.7829

  Dipole Moment: (Debye)
     X:    -0.8370      Y:    -0.9894      Z:    -1.5101     Total:     1.9900

  Quadrupole Moment: (Debye Ang)
    XX:   -46.6389     YY:   -59.8416     ZZ:   -57.5077
    XY:    -1.4445     XZ:    -5.2520     YZ:     1.0654

  Traceless Quadrupole Moment: (Debye Ang)
    XX:     8.0238     YY:    -5.1789     ZZ:    -2.8449
    XY:    -1.4445     XZ:    -5.2520     YZ:     1.0654

  Mulliken Charges: (a.u.)
   Center  Symbol    Alpha    Beta     Spin     Total
       1     H     0.39528  0.39528  0.00000  0.20945
       2     C     3.08983  3.08983  0.00000 -0.17966
       3     C     3.10712  3.10712  0.00000 -0.21425
       4     C     3.10719  3.10719  0.00000 -0.21438
       5     H     0.39530  0.39530  0.00000  0.20939
       6     C     3.08635  3.08635  0.00000 -0.17271
       7     H     0.39615  0.39615  0.00000  0.20770
       8     C     3.08701  3.08701  0.00000 -0.17403
       9     H     0.37582  0.37582  0.00000  0.24836
      10     C     3.07788  3.07788  0.00000 -0.15576
      11     H     0.38007  0.38007  0.00000  0.23986
      12     C     2.57964  2.57964  0.00000  0.84072
      13     O     4.31435  4.31435  0.00000 -0.62870
      14     O     4.29285  4.29285  0.00000 -0.58570
      15     C     3.10303  3.10303  0.00000 -0.20606
      16     H     0.41194  0.41194  0.00000  0.17612
      17     H     0.41198  0.41198  0.00000  0.17603
      18     H     0.38819  0.38819  0.00000  0.22361

   Total alpha = 36.00000, Total beta = 36.00000, Total charge = -0.00000


*** PSI4 exiting successfully. Buy a developer a beer!
