    -----------------------------------------------------------------------
          Psi4: An Open-Source Ab Initio Electronic Structure Package
                              Psi4 (no tag) Driver

                          Git: Rev {detached?}  

    J. M. Turney, A. C. Simmonett, R. M. Parrish, E. G. Hohenstein,
    F. A. Evangelista, J. T. Fermann, B. J. Mintz, L. A. Burns, J. J. Wilke,
    M. L. Abrams, N. J. Russ, M. L. Leininger, C. L. Janssen, E. T. Seidl,
    W. D. Allen, H. F. Schaefer, R. A. King, E. F. Valeev, C. D. Sherrill,
    and T. D. Crawford, WIREs Comput. Mol. Sci. 2, 556-565 (2012)
    (doi: 10.1002/wcms.93)

                         Additional Contributions by
    A. E. DePrince, M. Saitow, U. Bozkaya, A. Yu. Sokolov
    -----------------------------------------------------------------------


    Psi4 started on: Tue Jul  5 17:53:49 2016

    Process ID:   2256
    PSI4DATADIR: /export131/home/mjharvey/miniconda3/share
    Memory level set to 256.000 MB

  ==> Input File <==

--------------------------------------------------------------------------
set {
	reference rhf
	basis 6-31G*
}


set_num_threads( 1 )
memory 2 gb

molecule MOL {
0 1

O	 -0.016691	 1.241749	 -0.644707
C	 0.788116	 1.716284	 -1.379704
C	 2.087323	 1.070118	 -1.794910
O	 0.640172	 2.906476	 -1.947763
C	 1.932161	 -0.388655	 -2.213896
H	 2.504926	 1.668719	 -2.599895
H	 2.779632	 1.169437	 -0.963307
C	 0.863389	 -0.572239	 -3.292360
H	 1.683671	 -0.986429	 -1.342628
H	 2.886486	 -0.761079	 -2.572883
C	 -0.560916	 -0.432029	 -2.752401
H	 1.018642	 0.156792	 -4.086341
H	 0.976524	 -1.552203	 -3.753610
C	 -0.789319	 0.881740	 -2.006012
H	 -0.777540	 -1.266702	 -2.089427
H	 -1.266525	 -0.506686	 -3.576828
H	 -0.121074	 0.970315	 -1.154063
H	 -1.807452	 0.951533	 -1.635898
H	 -0.613480	 1.736436	 -2.653226
C	 1.792514	 3.724689	 -2.034891
H	 2.180449	 3.940881	 -1.049855
H	 1.472688	 4.634305	 -2.518819
H	 2.560106	 3.239076	 -2.620117

	symmetry c1
}
set optking {
	frozen_dihedral = ("
		15 11 8 12,
		9 5 8 12,
		1 2 3 6,
		9 5 3 6
	")
}

ee = energy('scf')
oeprop('DIPOLE', 'QUADRUPOLE', 'MULLIKEN_CHARGES')
f=open( 'psi4out.xyz', 'w' )
f.write( "23  " )
f.write( str(ee) + "\n" )
f.write( MOL.save_string_xyz() )
f.close()
--------------------------------------------------------------------------

  Memory set to   2.000 GiB by Python script.

*** tstart() called on cx1-1-1-4.cx1.hpc.ic.ac.uk
*** at Tue Jul  5 17:53:49 2016


         ---------------------------------------------------------
                                   SCF
            by Justin Turney, Rob Parrish, and Andy Simmonett
                              RHF Reference
                        1 Threads,   2000 MiB Core
         ---------------------------------------------------------

  ==> Geometry <==

    Molecular point group: c1
    Full point group: C1

    Geometry (in Angstrom), charge = 0, multiplicity = 1:

       Center              X                  Y                   Z               Mass       
    ------------   -----------------  -----------------  -----------------  -----------------
           O         -0.761615787237     0.074575047040     1.353984693936    15.994914619560
           C          0.043191212763     0.549110047040     0.618987693936    12.000000000000
           C          1.342398212763    -0.097055952960     0.203781693936    12.000000000000
           O         -0.104752787237     1.739302047040     0.050928693936    15.994914619560
           C          1.187236212763    -1.555828952960    -0.215204306064    12.000000000000
           H          1.760001212763     0.501545047040    -0.601203306064     1.007825032070
           H          2.034707212763     0.002263047040     1.035384693936     1.007825032070
           C          0.118464212763    -1.739412952960    -1.293668306064    12.000000000000
           H          0.938746212763    -2.153602952960     0.656063693936     1.007825032070
           H          2.141561212763    -1.928252952960    -0.574191306064     1.007825032070
           C         -1.305840787237    -1.599202952960    -0.753709306064    12.000000000000
           H          0.273717212763    -1.010381952960    -2.087649306064     1.007825032070
           H          0.231599212763    -2.719376952960    -1.754918306064     1.007825032070
           C         -1.534243787237    -0.285433952960    -0.007320306064    12.000000000000
           H         -1.522464787237    -2.433875952960    -0.090735306064     1.007825032070
           H         -2.011449787237    -1.673859952960    -1.578136306064     1.007825032070
           H         -0.865998787237    -0.196858952960     0.844628693936     1.007825032070
           H         -2.552376787237    -0.215640952960     0.362793693936     1.007825032070
           H         -1.358404787237     0.569262047040    -0.654534306064     1.007825032070
           C          1.047589212763     2.557515047040    -0.036199306064    12.000000000000
           H          1.435524212763     2.773707047040     0.948836693936     1.007825032070
           H          0.727763212763     3.467131047040    -0.520127306064     1.007825032070
           H          1.815181212763     2.071902047040    -0.621425306064     1.007825032070

  Running in c1 symmetry.

  Rotational constants: A =      0.08659  B =      0.04647  C =      0.03812 [cm^-1]
  Rotational constants: A =   2595.94343  B =   1393.24525  C =   1142.86249 [MHz]
  Nuclear repulsion =  533.554962635700804

  Charge       = 0
  Multiplicity = 1
  Electrons    = 72
  Nalpha       = 36
  Nbeta        = 36

  ==> Algorithm <==

  SCF Algorithm Type is DF.
  DIIS enabled.
  MOM disabled.
  Fractional occupation disabled.
  Guess Type is CORE.
  Energy threshold   = 1.00e-06
  Density threshold  = 1.00e-06
  Integral threshold = 0.00e+00

  ==> Primary Basis <==

  Basis Set: 6-31G*
    Number of shells: 82
    Number of basis function: 163
    Number of Cartesian functions: 163
    Spherical Harmonics?: false
    Max angular momentum: 2

  ==> Pre-Iterations <==

   -------------------------------------------------------
    Irrep   Nso     Nmo     Nalpha   Nbeta   Ndocc  Nsocc
   -------------------------------------------------------
     A        163     163       0       0       0       0
   -------------------------------------------------------
    Total     163     163      36      36      36       0
   -------------------------------------------------------

 OEINTS: Overlap, kinetic, potential, dipole, and quadrupole integrals
         stored in file 35.

  ==> Integral Setup <==

  ==> DFJK: Density-Fitted J/K Matrices <==

    J tasked:                  Yes
    K tasked:                  Yes
    wK tasked:                  No
    OpenMP threads:              1
    Integrals threads:           1
    Memory (MB):              1430
    Algorithm:                Core
    Integral Cache:           NONE
    Schwarz Cutoff:          1E-12
    Fitting Condition:       1E-12

   => Auxiliary Basis Set <=

  Basis Set: 
    Number of shells: 342
    Number of basis function: 1079
    Number of Cartesian functions: 1079
    Spherical Harmonics?: false
    Max angular momentum: 3

  Minimum eigenvalue in the overlap matrix is 1.7899202848E-03.
  Using Symmetric Orthogonalization.
  SCF Guess: Core (One-Electron) Hamiltonian.

  ==> Iterations <==

                           Total Energy        Delta E     RMS |[F,P]|

   @DF-RHF iter   1:  -262.72074013251574   -2.62721e+02   8.00345e-02 
   @DF-RHF iter   2:  -223.27989946927323    3.94408e+01   5.79768e-02 DIIS
   @DF-RHF iter   3:  -330.35955746586171   -1.07080e+02   5.80732e-02 DIIS
   @DF-RHF iter   4:  -410.55191493373309   -8.01924e+01   2.18631e-02 DIIS
   @DF-RHF iter   5:  -417.96878546599396   -7.41687e+00   1.50099e-02 DIIS
   @DF-RHF iter   6:  -421.40772246386609   -3.43894e+00   5.96021e-03 DIIS
   @DF-RHF iter   7:  -421.83868929079983   -4.30967e-01   2.96763e-03 DIIS
   @DF-RHF iter   8:  -421.93558145720363   -9.68922e-02   6.99531e-04 DIIS
   @DF-RHF iter   9:  -421.94619736313962   -1.06159e-02   2.51760e-04 DIIS
   @DF-RHF iter  10:  -421.94788268886157   -1.68533e-03   1.14819e-04 DIIS
   @DF-RHF iter  11:  -421.94843530010394   -5.52611e-04   8.87042e-05 DIIS
   @DF-RHF iter  12:  -421.94877142342398   -3.36123e-04   6.39353e-05 DIIS
   @DF-RHF iter  13:  -421.94901624277145   -2.44819e-04   3.96187e-05 DIIS
   @DF-RHF iter  14:  -421.94917894771038   -1.62705e-04   1.30309e-05 DIIS
   @DF-RHF iter  15:  -421.94919317529036   -1.42276e-05   3.03858e-06 DIIS
   @DF-RHF iter  16:  -421.94919367611271   -5.00822e-07   7.64159e-07 DIIS

  ==> Post-Iterations <==

    Orbital Energies (a.u.)
    -----------------------

    Doubly Occupied:                                                      

       1A    -20.572703     2A    -20.554200     3A    -11.302319  
       4A    -11.271822     5A    -11.258848     6A    -11.221990  
       7A    -11.218032     8A    -11.214702     9A    -11.214105  
      10A     -1.765424    11A     -1.409171    12A     -1.090768  
      13A     -1.047450    14A     -0.981842    15A     -0.953367  
      16A     -0.915019    17A     -0.820807    18A     -0.807767  
      19A     -0.770711    20A     -0.718142    21A     -0.689479  
      22A     -0.659355    23A     -0.630356    24A     -0.617290  
      25A     -0.599469    26A     -0.584059    27A     -0.566932  
      28A     -0.543597    29A     -0.531195    30A     -0.501010  
      31A     -0.471256    32A     -0.465683    33A     -0.461282  
      34A     -0.447960    35A     -0.437410    36A     -0.182507  

    Virtual:                                                              

      37A      0.141927    38A      0.228426    39A      0.253462  
      40A      0.273147    41A      0.281213    42A      0.301703  
      43A      0.305804    44A      0.310430    45A      0.321591  
      46A      0.326046    47A      0.337479    48A      0.338922  
      49A      0.359583    50A      0.381863    51A      0.393228  
      52A      0.416885    53A      0.440984    54A      0.457185  
      55A      0.465239    56A      0.480385    57A      0.525365  
      58A      0.608063    59A      0.638447    60A      0.707824  
      61A      0.718965    62A      0.742765    63A      0.745614  
      64A      0.750484    65A      0.773324    66A      0.786986  
      67A      0.813703    68A      0.861347    69A      0.865469  
      70A      0.896435    71A      0.916389    72A      0.933820  
      73A      0.944221    74A      0.969639    75A      1.011596  
      76A      1.016174    77A      1.056299    78A      1.068901  
      79A      1.106258    80A      1.119080    81A      1.140640  
      82A      1.150887    83A      1.157985    84A      1.163109  
      85A      1.174417    86A      1.185583    87A      1.190623  
      88A      1.204298    89A      1.232849    90A      1.245984  
      91A      1.251744    92A      1.258489    93A      1.283139  
      94A      1.291695    95A      1.328949    96A      1.342061  
      97A      1.394170    98A      1.433598    99A      1.470887  
     100A      1.504755   101A      1.552137   102A      1.595096  
     103A      1.649346   104A      1.665777   105A      1.739721  
     106A      1.775059   107A      1.792359   108A      1.824838  
     109A      1.870415   110A      1.899690   111A      1.919497  
     112A      2.007853   113A      2.011740   114A      2.051759  
     115A      2.075406   116A      2.117813   117A      2.131834  
     118A      2.162224   119A      2.214855   120A      2.228122  
     121A      2.254133   122A      2.268338   123A      2.309974  
     124A      2.353209   125A      2.362775   126A      2.401273  
     127A      2.420350   128A      2.442397   129A      2.469137  
     130A      2.500662   131A      2.548911   132A      2.591622  
     133A      2.625870   134A      2.640652   135A      2.674708  
     136A      2.686055   137A      2.694505   138A      2.722475  
     139A      2.748606   140A      2.760255   141A      2.828043  
     142A      2.850730   143A      2.929654   144A      2.960897  
     145A      3.017464   146A      3.057390   147A      3.081269  
     148A      3.133356   149A      3.174446   150A      3.232581  
     151A      3.305379   152A      3.451721   153A      3.556679  
     154A      4.465747   155A      4.572634   156A      4.604720  
     157A      4.700234   158A      4.760126   159A      4.788406  
     160A      4.959595   161A      5.030304   162A      5.075227  
     163A      5.289487  

    Final Occupation by Irrep:
              A 
    DOCC [    36 ]

  Energy converged.

  @DF-RHF Final Energy:  -421.94919367611271

   => Energetics <=

    Nuclear Repulsion Energy =            533.5549626357008037
    One-Electron Energy =               -1632.0127048910287613
    Two-Electron Energy =                 676.5085485792137661
    DFT Exchange-Correlation Energy =       0.0000000000000000
    Empirical Dispersion Energy =           0.0000000000000000
    PCM Polarization Energy =               0.0000000000000000
    EFP Energy =                            0.0000000000000000
    Total Energy =                       -421.9491936761141915

    Alert: EFP and PCM quantities not currently incorporated into SCF psivars.

Properties will be evaluated at   0.000000,   0.000000,   0.000000 Bohr
  ==> Properties <==


Properties computed using the SCF density matrix

  Nuclear Dipole Moment: (a.u.)
     X:     2.8533      Y:    -2.7531      Z:    -4.3386

  Electronic Dipole Moment: (a.u.)
     X:    -2.3055      Y:     2.7732      Z:     4.1126

  Dipole Moment: (a.u.)
     X:     0.5478      Y:     0.0201      Z:    -0.2260     Total:     0.5929

  Dipole Moment: (Debye)
     X:     1.3924      Y:     0.0511      Z:    -0.5744     Total:     1.5071


  Saving occupied orbitals to File 180.

*** tstop() called on cx1-1-1-4.cx1.hpc.ic.ac.uk at Tue Jul  5 17:54:25 2016
Module time:
	user time   =      35.35 seconds =       0.59 minutes
	system time =       0.29 seconds =       0.00 minutes
	total time  =         36 seconds =       0.60 minutes
Total time:
	user time   =      35.35 seconds =       0.59 minutes
	system time =       0.29 seconds =       0.00 minutes
	total time  =         36 seconds =       0.60 minutes


Properties will be evaluated at   0.000000,   0.000000,   0.000000 Bohr

Properties computed using the  density matrix

  Nuclear Dipole Moment: (a.u.)
     X:     2.8533      Y:    -2.7531      Z:    -4.3386

  Electronic Dipole Moment: (a.u.)
     X:    -2.3055      Y:     2.7732      Z:     4.1126

  Dipole Moment: (a.u.)
     X:     0.5478      Y:     0.0201      Z:    -0.2260     Total:     0.5929

  Dipole Moment: (Debye)
     X:     1.3924      Y:     0.0511      Z:    -0.5744     Total:     1.5071

  Quadrupole Moment: (Debye Ang)
    XX:   -55.5312     YY:   -54.3145     ZZ:   -58.7038
    XY:     4.1536     XZ:     0.1089     YZ:     0.2328

  Traceless Quadrupole Moment: (Debye Ang)
    XX:     0.6520     YY:     1.8687     ZZ:    -2.5206
    XY:     4.1536     XZ:     0.1089     YZ:     0.2328

  Mulliken Charges: (a.u.)
   Center  Symbol    Alpha    Beta     Spin     Total
       1     O     4.10143  4.10143  0.00000 -0.20285
       2     C     2.82190  2.82190  0.00000  0.35620
       3     C     3.17325  3.17325  0.00000 -0.34650
       4     O     4.31061  4.31061  0.00000 -0.62121
       5     C     3.16085  3.16085  0.00000 -0.32170
       6     H     0.41232  0.41232  0.00000  0.17535
       7     H     0.42570  0.42570  0.00000  0.14859
       8     C     3.15164  3.15164  0.00000 -0.30329
       9     H     0.41978  0.41978  0.00000  0.16045
      10     H     0.41799  0.41799  0.00000  0.16401
      11     C     3.14571  3.14571  0.00000 -0.29143
      12     H     0.42116  0.42116  0.00000  0.15768
      13     H     0.41954  0.41954  0.00000  0.16091
      14     C     3.25589  3.25589  0.00000 -0.51179
      15     H     0.42110  0.42110  0.00000  0.15780
      16     H     0.41284  0.41284  0.00000  0.17431
      17     H     0.40778  0.40778  0.00000  0.18445
      18     H     0.40119  0.40119  0.00000  0.19763
      19     H     0.38260  0.38260  0.00000  0.23481
      20     C     3.08584  3.08584  0.00000 -0.17168
      21     H     0.42105  0.42105  0.00000  0.15790
      22     H     0.40755  0.40755  0.00000  0.18490
      23     H     0.42228  0.42228  0.00000  0.15545

   Total alpha = 36.00000, Total beta = 36.00000, Total charge = -0.00000


*** PSI4 exiting successfully. Buy a developer a beer!
