    -----------------------------------------------------------------------
          Psi4: An Open-Source Ab Initio Electronic Structure Package
                              Psi4 (no tag) Driver

                          Git: Rev {detached?}  

    J. M. Turney, A. C. Simmonett, R. M. Parrish, E. G. Hohenstein,
    F. A. Evangelista, J. T. Fermann, B. J. Mintz, L. A. Burns, J. J. Wilke,
    M. L. Abrams, N. J. Russ, M. L. Leininger, C. L. Janssen, E. T. Seidl,
    W. D. Allen, H. F. Schaefer, R. A. King, E. F. Valeev, C. D. Sherrill,
    and T. D. Crawford, WIREs Comput. Mol. Sci. 2, 556-565 (2012)
    (doi: 10.1002/wcms.93)

                         Additional Contributions by
    A. E. DePrince, M. Saitow, U. Bozkaya, A. Yu. Sokolov
    -----------------------------------------------------------------------


    Psi4 started on: Tue Jul  5 17:02:50 2016

    Process ID:  24252
    PSI4DATADIR: /export131/home/mjharvey/miniconda3/share
    Memory level set to 256.000 MB

  ==> Input File <==

--------------------------------------------------------------------------
set {
	reference rhf
	basis 6-31G*
}


set_num_threads( 1 )
memory 2 gb

molecule MOL {
0 1

O	 3.225979	 0.970355	 -0.599647
C	 2.701189	 0.057885	 -0.047330
C	 1.245376	 -0.013843	 0.345420
O	 3.347903	 -1.046386	 0.304773
C	 0.455112	 1.231400	 -0.050772
H	 0.838542	 -0.913825	 -0.103701
H	 1.208210	 -0.175333	 1.419774
C	 -0.998893	 1.219485	 0.433193
H	 0.482531	 1.345121	 -1.130325
H	 0.957290	 2.103070	 0.354729
C	 -1.883438	 0.145884	 -0.207175
H	 -1.431207	 2.195402	 0.224832
H	 -1.019646	 1.105716	 1.516076
C	 -3.347647	 0.245583	 0.225435
H	 -1.822183	 0.231698	 -1.291012
H	 -1.510341	 -0.844814	 0.042401
C	 -4.239992	 -0.825570	 -0.404234
H	 -3.732888	 1.230466	 -0.033079
H	 -3.408585	 0.170602	 1.310038
C	 -4.693990	 -0.468774	 -1.819255
H	 -3.705064	 -1.772698	 -0.425276
H	 -5.113217	 -0.982763	 0.225487
H	 -5.324543	 -1.246792	 -2.238418
H	 -3.843630	 -0.339108	 -2.482783
H	 -5.262084	 0.457230	 -1.826982
C	 4.728119	 -1.109107	 -0.004993
H	 4.882018	 -1.033965	 -1.071845
H	 5.068212	 -2.067527	 0.355250
H	 5.265056	 -0.311663	 0.488280

	symmetry c1
}
set optking {
	frozen_dihedral = ("
		17 14 11 15,
		15 11 8 5,
		6 3 5 9,
		11 8 5 9,
		2 4 26 27,
		1 2 4 26,
		6 3 2 1
	")
}

ee = energy('scf')
oeprop('DIPOLE', 'QUADRUPOLE', 'MULLIKEN_CHARGES')
f=open( 'psi4out.xyz', 'w' )
f.write( "29  " )
f.write( str(ee) + "\n" )
f.write( MOL.save_string_xyz() )
f.close()
--------------------------------------------------------------------------

  Memory set to   2.000 GiB by Python script.

*** tstart() called on cx1-3-14-1.cx1.hpc.ic.ac.uk
*** at Tue Jul  5 17:02:50 2016


         ---------------------------------------------------------
                                   SCF
            by Justin Turney, Rob Parrish, and Andy Simmonett
                              RHF Reference
                        1 Threads,   2000 MiB Core
         ---------------------------------------------------------

  ==> Geometry <==

    Molecular point group: c1
    Full point group: C1

    Geometry (in Angstrom), charge = 0, multiplicity = 1:

       Center              X                  Y                   Z               Mass       
    ------------   -----------------  -----------------  -----------------  -----------------
           O          3.130295676233     0.946808786408    -0.423994265056    15.994914619560
           C          2.605505676233     0.034338786408     0.128322734944    12.000000000000
           C          1.149692676233    -0.037389213592     0.521072734944    12.000000000000
           O          3.252219676233    -1.069932213592     0.480425734944    15.994914619560
           C          0.359428676233     1.207853786408     0.124880734944    12.000000000000
           H          0.742858676233    -0.937371213592     0.071951734944     1.007825032070
           H          1.112526676233    -0.198879213592     1.595426734944     1.007825032070
           C         -1.094576323767     1.195938786408     0.608845734944    12.000000000000
           H          0.386847676233     1.321574786408    -0.954672265056     1.007825032070
           H          0.861606676233     2.079523786408     0.530381734944     1.007825032070
           C         -1.979121323767     0.122337786408    -0.031522265056    12.000000000000
           H         -1.526890323767     2.171855786408     0.400484734944     1.007825032070
           H         -1.115329323767     1.082169786408     1.691728734944     1.007825032070
           C         -3.443330323767     0.222036786408     0.401087734944    12.000000000000
           H         -1.917866323767     0.208151786408    -1.115359265056     1.007825032070
           H         -1.606024323767    -0.868360213592     0.218053734944     1.007825032070
           C         -4.335675323767    -0.849116213592    -0.228581265056    12.000000000000
           H         -3.828571323767     1.206919786408     0.142573734944     1.007825032070
           H         -3.504268323767     0.147055786408     1.485690734944     1.007825032070
           C         -4.789673323767    -0.492320213592    -1.643602265056    12.000000000000
           H         -3.800747323767    -1.796244213592    -0.249623265056     1.007825032070
           H         -5.208900323767    -1.006309213592     0.401139734944     1.007825032070
           H         -5.420226323767    -1.270338213592    -2.062765265056     1.007825032070
           H         -3.939313323767    -0.362654213592    -2.307130265056     1.007825032070
           H         -5.357767323767     0.433683786408    -1.651329265056     1.007825032070
           C          4.632435676233    -1.132653213592     0.170659734944    12.000000000000
           H          4.786334676233    -1.057511213592    -0.896192265056     1.007825032070
           H          4.972528676233    -2.091073213592     0.530902734944     1.007825032070
           H          5.169372676233    -0.335209213592     0.663932734944     1.007825032070

  Running in c1 symmetry.

  Rotational constants: A =      0.09116  B =      0.00998  C =      0.00961 [cm^-1]
  Rotational constants: A =   2733.02671  B =    299.09300  C =    288.11780 [MHz]
  Nuclear repulsion =  615.151920632411361

  Charge       = 0
  Multiplicity = 1
  Electrons    = 88
  Nalpha       = 44
  Nbeta        = 44

  ==> Algorithm <==

  SCF Algorithm Type is DF.
  DIIS enabled.
  MOM disabled.
  Fractional occupation disabled.
  Guess Type is CORE.
  Energy threshold   = 1.00e-06
  Density threshold  = 1.00e-06
  Integral threshold = 0.00e+00

  ==> Primary Basis <==

  Basis Set: 6-31G*
    Number of shells: 102
    Number of basis function: 201
    Number of Cartesian functions: 201
    Spherical Harmonics?: false
    Max angular momentum: 2

  ==> Pre-Iterations <==

   -------------------------------------------------------
    Irrep   Nso     Nmo     Nalpha   Nbeta   Ndocc  Nsocc
   -------------------------------------------------------
     A        201     201       0       0       0       0
   -------------------------------------------------------
    Total     201     201      44      44      44       0
   -------------------------------------------------------

 OEINTS: Overlap, kinetic, potential, dipole, and quadrupole integrals
         stored in file 35.

  ==> Integral Setup <==

  ==> DFJK: Density-Fitted J/K Matrices <==

    J tasked:                  Yes
    K tasked:                  Yes
    wK tasked:                  No
    OpenMP threads:              1
    Integrals threads:           1
    Memory (MB):              1430
    Algorithm:                Core
    Integral Cache:           NONE
    Schwarz Cutoff:          1E-12
    Fitting Condition:       1E-12

   => Auxiliary Basis Set <=

  Basis Set: 
    Number of shells: 426
    Number of basis function: 1341
    Number of Cartesian functions: 1341
    Spherical Harmonics?: false
    Max angular momentum: 3

  Minimum eigenvalue in the overlap matrix is 2.5008025811E-03.
  Using Symmetric Orthogonalization.
  SCF Guess: Core (One-Electron) Hamiltonian.

  ==> Iterations <==

                           Total Energy        Delta E     RMS |[F,P]|

   @DF-RHF iter   1:  -324.23965254390953   -3.24240e+02   5.93745e-02 
   @DF-RHF iter   2:   106.54114974683318    4.30781e+02   8.08261e-02 DIIS
   @DF-RHF iter   3:  -201.92046533567589   -3.08462e+02   5.73983e-02 DIIS
   @DF-RHF iter   4:  -299.33835405716536   -9.74179e+01   5.44693e-02 DIIS
   @DF-RHF iter   5:  -384.45722066051474   -8.51189e+01   5.42638e-02 DIIS
   @DF-RHF iter   6:  -484.86470656041399   -1.00407e+02   1.26408e-02 DIIS
   @DF-RHF iter   7:  -395.73303019393086    8.91317e+01   3.53133e-02 DIIS
   @DF-RHF iter   8:  -475.15321206676833   -7.94202e+01   1.94104e-02 DIIS
   @DF-RHF iter   9:  -500.80473188690769   -2.56515e+01   3.54016e-03 DIIS
   @DF-RHF iter  10:  -501.00360942552072   -1.98878e-01   1.27140e-03 DIIS
   @DF-RHF iter  11:  -501.03562552313667   -3.20161e-02   4.27294e-04 DIIS
   @DF-RHF iter  12:  -501.03979962260712   -4.17410e-03   2.35768e-04 DIIS
   @DF-RHF iter  13:  -501.04117870909670   -1.37909e-03   1.02244e-04 DIIS
   @DF-RHF iter  14:  -501.04146063191240   -2.81923e-04   4.74525e-05 DIIS
   @DF-RHF iter  15:  -501.04152649603441   -6.58641e-05   1.25833e-05 DIIS
   @DF-RHF iter  16:  -501.04153142833400   -4.93230e-06   2.68640e-06 DIIS
   @DF-RHF iter  17:  -501.04153171245491   -2.84121e-07   8.54173e-07 DIIS

  ==> Post-Iterations <==

    Orbital Energies (a.u.)
    -----------------------

    Doubly Occupied:                                                      

       1A    -20.603367     2A    -20.545268     3A    -11.372026  
       4A    -11.280673     5A    -11.234787     6A    -11.219059  
       7A    -11.217526     8A    -11.215833     9A    -11.215283  
      10A    -11.213889    11A    -11.208721    12A     -1.469091  
      13A     -1.362545    14A     -1.098469    15A     -1.067257  
      16A     -1.018344    17A     -0.975893    18A     -0.928086  
      19A     -0.867230    20A     -0.801906    21A     -0.783882  
      22A     -0.764014    23A     -0.700522    24A     -0.682391  
      25A     -0.672133    26A     -0.642882    27A     -0.628860  
      28A     -0.609113    29A     -0.601230    30A     -0.583013  
      31A     -0.560661    32A     -0.554567    33A     -0.535463  
      34A     -0.525045    35A     -0.515772    36A     -0.508815  
      37A     -0.501457    38A     -0.476352    39A     -0.474043  
      40A     -0.459957    41A     -0.456640    42A     -0.453073  
      43A     -0.441177    44A     -0.435395  

    Virtual:                                                              

      45A      0.199185    46A      0.226280    47A      0.237671  
      48A      0.257452    49A      0.260980    50A      0.264039  
      51A      0.285333    52A      0.299224    53A      0.300830  
      54A      0.309764    55A      0.314585    56A      0.316848  
      57A      0.325676    58A      0.327469    59A      0.334780  
      60A      0.344532    61A      0.354415    62A      0.365998  
      63A      0.371311    64A      0.377988    65A      0.398805  
      66A      0.425043    67A      0.431005    68A      0.451182  
      69A      0.455968    70A      0.473019    71A      0.492107  
      72A      0.536783    73A      0.585972    74A      0.710965  
      75A      0.711646    76A      0.722044    77A      0.726613  
      78A      0.734829    79A      0.741649    80A      0.761881  
      81A      0.775400    82A      0.784837    83A      0.797109  
      84A      0.803124    85A      0.842597    86A      0.853361  
      87A      0.888375    88A      0.926933    89A      0.937775  
      90A      0.947706    91A      0.956240    92A      0.974227  
      93A      0.988093    94A      0.998181    95A      1.019007  
      96A      1.050406    97A      1.091023    98A      1.101493  
      99A      1.121658   100A      1.124363   101A      1.126927  
     102A      1.130922   103A      1.136955   104A      1.145030  
     105A      1.155012   106A      1.170220   107A      1.180777  
     108A      1.185530   109A      1.188898   110A      1.196370  
     111A      1.207681   112A      1.215627   113A      1.217125  
     114A      1.223880   115A      1.239304   116A      1.248635  
     117A      1.266223   118A      1.277524   119A      1.284384  
     120A      1.296291   121A      1.308757   122A      1.326931  
     123A      1.375133   124A      1.404487   125A      1.419998  
     126A      1.457458   127A      1.517790   128A      1.567299  
     129A      1.644525   130A      1.664955   131A      1.693896  
     132A      1.722749   133A      1.746771   134A      1.785659  
     135A      1.803332   136A      1.851257   137A      1.873306  
     138A      1.889856   139A      1.922048   140A      1.956042  
     141A      2.001966   142A      2.017810   143A      2.038250  
     144A      2.077913   145A      2.096122   146A      2.142344  
     147A      2.153061   148A      2.183435   149A      2.200776  
     150A      2.220873   151A      2.240682   152A      2.250686  
     153A      2.271951   154A      2.290977   155A      2.300602  
     156A      2.317156   157A      2.362478   158A      2.363340  
     159A      2.377109   160A      2.397167   161A      2.399463  
     162A      2.436926   163A      2.447212   164A      2.480612  
     165A      2.526398   166A      2.550514   167A      2.590455  
     168A      2.622661   169A      2.664814   170A      2.675999  
     171A      2.687299   172A      2.694005   173A      2.742900  
     174A      2.763245   175A      2.787531   176A      2.800963  
     177A      2.829892   178A      2.845128   179A      2.908061  
     180A      2.932286   181A      2.970221   182A      3.016564  
     183A      3.034331   184A      3.067487   185A      3.128750  
     186A      3.163607   187A      3.183942   188A      3.349852  
     189A      3.450975   190A      3.581176   191A      4.416939  
     192A      4.540486   193A      4.585671   194A      4.624096  
     195A      4.678315   196A      4.736420   197A      4.799632  
     198A      4.850675   199A      4.894986   200A      4.966274  
     201A      5.032041  

    Final Occupation by Irrep:
              A 
    DOCC [    44 ]

  Energy converged.

  @DF-RHF Final Energy:  -501.04153171245491

   => Energetics <=

    Nuclear Repulsion Energy =            615.1519206324113611
    One-Electron Energy =               -1901.4237387742705323
    Two-Electron Energy =                 785.2302864294030087
    DFT Exchange-Correlation Energy =       0.0000000000000000
    Empirical Dispersion Energy =           0.0000000000000000
    PCM Polarization Energy =               0.0000000000000000
    EFP Energy =                            0.0000000000000000
    Total Energy =                       -501.0415317124560488

    Alert: EFP and PCM quantities not currently incorporated into SCF psivars.

Properties will be evaluated at   0.000000,   0.000000,   0.000000 Bohr
  ==> Properties <==


Properties computed using the SCF density matrix

  Nuclear Dipole Moment: (a.u.)
     X:   -17.9630      Y:    -1.1940      Z:    -1.4104

  Electronic Dipole Moment: (a.u.)
     X:    17.8011      Y:     0.5769      Z:     1.7427

  Dipole Moment: (a.u.)
     X:    -0.1619      Y:    -0.6171      Z:     0.3323     Total:     0.7193

  Dipole Moment: (Debye)
     X:    -0.4114      Y:    -1.5684      Z:     0.8446     Total:     1.8283


  Saving occupied orbitals to File 180.

*** tstop() called on cx1-3-14-1.cx1.hpc.ic.ac.uk at Tue Jul  5 17:03:33 2016
Module time:
	user time   =      42.75 seconds =       0.71 minutes
	system time =       0.38 seconds =       0.01 minutes
	total time  =         43 seconds =       0.72 minutes
Total time:
	user time   =      42.75 seconds =       0.71 minutes
	system time =       0.38 seconds =       0.01 minutes
	total time  =         43 seconds =       0.72 minutes


Properties will be evaluated at   0.000000,   0.000000,   0.000000 Bohr

Properties computed using the  density matrix

  Nuclear Dipole Moment: (a.u.)
     X:   -17.9630      Y:    -1.1940      Z:    -1.4104

  Electronic Dipole Moment: (a.u.)
     X:    17.8011      Y:     0.5769      Z:     1.7427

  Dipole Moment: (a.u.)
     X:    -0.1619      Y:    -0.6171      Z:     0.3323     Total:     0.7193

  Dipole Moment: (Debye)
     X:    -0.4114      Y:    -1.5684      Z:     0.8446     Total:     1.8283

  Quadrupole Moment: (Debye Ang)
    XX:   -66.5280     YY:   -72.5064     ZZ:   -70.2828
    XY:    -7.6037     XZ:     2.2968     YZ:     2.0529

  Traceless Quadrupole Moment: (Debye Ang)
    XX:     3.2444     YY:    -2.7341     ZZ:    -0.5104
    XY:    -7.6037     XZ:     2.2968     YZ:     2.0529

  Mulliken Charges: (a.u.)
   Center  Symbol    Alpha    Beta     Spin     Total
       1     O     4.28593  4.28593  0.00000 -0.57186
       2     C     2.60485  2.60485  0.00000  0.79029
       3     C     3.20969  3.20969  0.00000 -0.41937
       4     O     4.30746  4.30746  0.00000 -0.61492
       5     C     3.15371  3.15371  0.00000 -0.30743
       6     H     0.39892  0.39892  0.00000  0.20216
       7     H     0.40121  0.40121  0.00000  0.19757
       8     C     3.15635  3.15635  0.00000 -0.31269
       9     H     0.41316  0.41316  0.00000  0.17367
      10     H     0.40880  0.40880  0.00000  0.18240
      11     C     3.15648  3.15648  0.00000 -0.31296
      12     H     0.41820  0.41820  0.00000  0.16360
      13     H     0.42384  0.42384  0.00000  0.15232
      14     C     3.15318  3.15318  0.00000 -0.30637
      15     H     0.42175  0.42175  0.00000  0.15649
      16     H     0.42333  0.42333  0.00000  0.15333
      17     C     3.15376  3.15376  0.00000 -0.30751
      18     H     0.42279  0.42279  0.00000  0.15443
      19     H     0.42179  0.42179  0.00000  0.15643
      20     C     3.24043  3.24043  0.00000 -0.48086
      21     H     0.42301  0.42301  0.00000  0.15398
      22     H     0.42040  0.42040  0.00000  0.15920
      23     H     0.41933  0.41933  0.00000  0.16134
      24     H     0.42113  0.42113  0.00000  0.15774
      25     H     0.42135  0.42135  0.00000  0.15731
      26     C     3.09242  3.09242  0.00000 -0.18484
      27     H     0.40909  0.40909  0.00000  0.18182
      28     H     0.40851  0.40851  0.00000  0.18298
      29     H     0.40912  0.40912  0.00000  0.18176

   Total alpha = 44.00000, Total beta = 44.00000, Total charge = -0.00000


*** PSI4 exiting successfully. Buy a developer a beer!
