    -----------------------------------------------------------------------
          Psi4: An Open-Source Ab Initio Electronic Structure Package
                              Psi4 (no tag) Driver

                          Git: Rev {detached?}  

    J. M. Turney, A. C. Simmonett, R. M. Parrish, E. G. Hohenstein,
    F. A. Evangelista, J. T. Fermann, B. J. Mintz, L. A. Burns, J. J. Wilke,
    M. L. Abrams, N. J. Russ, M. L. Leininger, C. L. Janssen, E. T. Seidl,
    W. D. Allen, H. F. Schaefer, R. A. King, E. F. Valeev, C. D. Sherrill,
    and T. D. Crawford, WIREs Comput. Mol. Sci. 2, 556-565 (2012)
    (doi: 10.1002/wcms.93)

                         Additional Contributions by
    A. E. DePrince, M. Saitow, U. Bozkaya, A. Yu. Sokolov
    -----------------------------------------------------------------------


    Psi4 started on: Tue Jul  5 16:40:07 2016

    Process ID:  23462
    PSI4DATADIR: /export131/home/mjharvey/miniconda3/share
    Memory level set to 256.000 MB

  ==> Input File <==

--------------------------------------------------------------------------
set {
	reference rhf
	basis 6-31G*
}


set_num_threads( 1 )
memory 2 gb

molecule MOL {
0 1

H	 -2.457809	 0.501296	 1.083509
C	 -1.464069	 0.070408	 1.121459
C	 -0.603454	 0.661669	 0.000000
H	 -1.552883	 -1.004126	 1.016909
H	 -1.035453	 0.283988	 2.093114
C	 0.763625	 0.112519	 0.000000
H	 -1.043655	 0.458321	 -0.969248
H	 -0.529504	 1.738272	 0.100137
N	 1.813038	 -0.320305	 0.000000

	symmetry c1
}
ee = energy('scf')
oeprop('DIPOLE', 'QUADRUPOLE', 'MULLIKEN_CHARGES')
f=open( 'psi4out.xyz', 'w' )
f.write( "9  " )
f.write( str(ee) + "\n" )
f.write( MOL.save_string_xyz() )
f.close()
--------------------------------------------------------------------------

  Memory set to   2.000 GiB by Python script.

*** tstart() called on cx1-3-16-4.cx1.hpc.ic.ac.uk
*** at Tue Jul  5 16:40:07 2016


         ---------------------------------------------------------
                                   SCF
            by Justin Turney, Rob Parrish, and Andy Simmonett
                              RHF Reference
                        1 Threads,   2000 MiB Core
         ---------------------------------------------------------

  ==> Geometry <==

    Molecular point group: c1
    Full point group: C1

    Geometry (in Angstrom), charge = 0, multiplicity = 1:

       Center              X                  Y                   Z               Mass       
    ------------   -----------------  -----------------  -----------------  -----------------
           H         -2.513588548564     0.362436643691     0.778144335145     1.007825032070
           C         -1.519848548564    -0.068451356309     0.816094335145    12.000000000000
           C         -0.659233548564     0.522809643691    -0.305364664855    12.000000000000
           H         -1.608662548564    -1.142985356309     0.711544335145     1.007825032070
           H         -1.091232548564     0.145128643691     1.787749335145     1.007825032070
           C          0.707845451436    -0.026340356309    -0.305364664855    12.000000000000
           H         -1.099434548564     0.319461643691    -1.274612664855     1.007825032070
           H         -0.585283548564     1.599412643691    -0.205227664855     1.007825032070
           N          1.757258451436    -0.459164356309    -0.305364664855    14.003074004780

  Running in c1 symmetry.

  Rotational constants: A =      0.94317  B =      0.15733  C =      0.14185 [cm^-1]
  Rotational constants: A =  28275.44661  B =   4716.61701  C =   4252.51766 [MHz]
  Nuclear repulsion =  103.401174663689602

  Charge       = 0
  Multiplicity = 1
  Electrons    = 30
  Nalpha       = 15
  Nbeta        = 15

  ==> Algorithm <==

  SCF Algorithm Type is DF.
  DIIS enabled.
  MOM disabled.
  Fractional occupation disabled.
  Guess Type is CORE.
  Energy threshold   = 1.00e-06
  Density threshold  = 1.00e-06
  Integral threshold = 0.00e+00

  ==> Primary Basis <==

  Basis Set: 6-31G*
    Number of shells: 34
    Number of basis function: 70
    Number of Cartesian functions: 70
    Spherical Harmonics?: false
    Max angular momentum: 2

  ==> Pre-Iterations <==

   -------------------------------------------------------
    Irrep   Nso     Nmo     Nalpha   Nbeta   Ndocc  Nsocc
   -------------------------------------------------------
     A         70      70       0       0       0       0
   -------------------------------------------------------
    Total      70      70      15      15      15       0
   -------------------------------------------------------

 OEINTS: Overlap, kinetic, potential, dipole, and quadrupole integrals
         stored in file 35.

  ==> Integral Setup <==

  ==> DFJK: Density-Fitted J/K Matrices <==

    J tasked:                  Yes
    K tasked:                  Yes
    wK tasked:                  No
    OpenMP threads:              1
    Integrals threads:           1
    Memory (MB):              1430
    Algorithm:                Core
    Integral Cache:           NONE
    Schwarz Cutoff:          1E-12
    Fitting Condition:       1E-12

   => Auxiliary Basis Set <=

  Basis Set: 
    Number of shells: 141
    Number of basis function: 449
    Number of Cartesian functions: 449
    Spherical Harmonics?: false
    Max angular momentum: 3

  Minimum eigenvalue in the overlap matrix is 1.3868319763E-03.
  Using Symmetric Orthogonalization.
  SCF Guess: Core (One-Electron) Hamiltonian.

  ==> Iterations <==

                           Total Energy        Delta E     RMS |[F,P]|

   @DF-RHF iter   1:  -133.96354861744035   -1.33964e+02   8.77714e-02 
   @DF-RHF iter   2:  -110.00664031751197    2.39569e+01   8.02014e-02 DIIS
   @DF-RHF iter   3:  -154.25167527329657   -4.42450e+01   4.92066e-02 DIIS
   @DF-RHF iter   4:  -159.48167431188133   -5.23000e+00   4.62858e-02 DIIS
   @DF-RHF iter   5:  -170.63852900125872   -1.11569e+01   1.15802e-02 DIIS
   @DF-RHF iter   6:  -170.89842497181613   -2.59896e-01   5.66566e-03 DIIS
   @DF-RHF iter   7:  -170.96012975595059   -6.17048e-02   7.28959e-04 DIIS
   @DF-RHF iter   8:  -170.96207821306032   -1.94846e-03   3.25596e-04 DIIS
   @DF-RHF iter   9:  -170.96238328543555   -3.05072e-04   6.87366e-05 DIIS
   @DF-RHF iter  10:  -170.96241569651764   -3.24111e-05   2.86912e-05 DIIS
   @DF-RHF iter  11:  -170.96242556184811   -9.86533e-06   1.37101e-05 DIIS
   @DF-RHF iter  12:  -170.96242856079496   -2.99895e-06   4.13706e-06 DIIS
   @DF-RHF iter  13:  -170.96242879639126   -2.35596e-07   1.17876e-06 DIIS
   @DF-RHF iter  14:  -170.96242880969672   -1.33055e-08   3.47883e-07 DIIS

  ==> Post-Iterations <==

    Orbital Energies (a.u.)
    -----------------------

    Doubly Occupied:                                                      

       1A    -15.567051     2A    -11.283668     3A    -11.269386  
       4A    -11.245862     5A     -1.224547     6A     -1.082266  
       7A     -0.911754     8A     -0.699379     9A     -0.659439  
      10A     -0.587715    11A     -0.560808    12A     -0.543912  
      13A     -0.536582    14A     -0.458567    15A     -0.458483  

    Virtual:                                                              

      16A      0.195267    17A      0.215107    18A      0.243469  
      19A      0.279577    20A      0.286951    21A      0.308393  
      22A      0.350166    23A      0.362596    24A      0.412595  
      25A      0.461932    26A      0.716571    27A      0.717640  
      28A      0.741060    29A      0.788410    30A      0.805155  
      31A      0.864277    32A      0.892515    33A      0.947567  
      34A      0.978538    35A      1.064391    36A      1.100536  
      37A      1.118254    38A      1.123869    39A      1.148203  
      40A      1.176511    41A      1.177547    42A      1.225108  
      43A      1.345432    44A      1.517541    45A      1.657225  
      46A      1.680991    47A      1.707589    48A      1.789535  
      49A      1.811028    50A      1.919709    51A      1.991934  
      52A      2.132514    53A      2.204114    54A      2.273929  
      55A      2.286429    56A      2.314146    57A      2.338821  
      58A      2.543487    59A      2.580103    60A      2.643668  
      61A      2.663439    62A      2.850169    63A      3.128382  
      64A      3.140529    65A      3.205610    66A      3.643909  
      67A      4.466408    68A      4.528402    69A      4.704131  
      70A      5.070635  

    Final Occupation by Irrep:
              A 
    DOCC [    15 ]

  Energy converged.

  @DF-RHF Final Energy:  -170.96242880969672

   => Energetics <=

    Nuclear Repulsion Energy =            103.4011746636896021
    One-Electron Energy =                -434.5483625984975333
    Two-Electron Energy =                 160.1847591251111567
    DFT Exchange-Correlation Energy =       0.0000000000000000
    Empirical Dispersion Energy =           0.0000000000000000
    PCM Polarization Energy =               0.0000000000000000
    EFP Energy =                            0.0000000000000000
    Total Energy =                       -170.9624288096967462

    Alert: EFP and PCM quantities not currently incorporated into SCF psivars.

Properties will be evaluated at   0.000000,   0.000000,   0.000000 Bohr
  ==> Properties <==


Properties computed using the SCF density matrix

  Nuclear Dipole Moment: (a.u.)
     X:    -6.4720      Y:     1.2045      Z:     1.6861

  Electronic Dipole Moment: (a.u.)
     X:     4.9409      Y:    -0.6373      Z:    -1.6197

  Dipole Moment: (a.u.)
     X:    -1.5311      Y:     0.5672      Z:     0.0664     Total:     1.6341

  Dipole Moment: (Debye)
     X:    -3.8916      Y:     1.4417      Z:     0.1687     Total:     4.1535


  Saving occupied orbitals to File 180.

*** tstop() called on cx1-3-16-4.cx1.hpc.ic.ac.uk at Tue Jul  5 16:40:10 2016
Module time:
	user time   =       2.11 seconds =       0.04 minutes
	system time =       0.04 seconds =       0.00 minutes
	total time  =          3 seconds =       0.05 minutes
Total time:
	user time   =       2.11 seconds =       0.04 minutes
	system time =       0.04 seconds =       0.00 minutes
	total time  =          3 seconds =       0.05 minutes


Properties will be evaluated at   0.000000,   0.000000,   0.000000 Bohr

Properties computed using the  density matrix

  Nuclear Dipole Moment: (a.u.)
     X:    -6.4720      Y:     1.2045      Z:     1.6861

  Electronic Dipole Moment: (a.u.)
     X:     4.9409      Y:    -0.6373      Z:    -1.6197

  Dipole Moment: (a.u.)
     X:    -1.5311      Y:     0.5672      Z:     0.0664     Total:     1.6341

  Dipole Moment: (Debye)
     X:    -3.8916      Y:     1.4417      Z:     0.1687     Total:     4.1535

  Quadrupole Moment: (Debye Ang)
    XX:   -30.0464     YY:   -24.2562     ZZ:   -23.9903
    XY:     1.6016     XZ:     1.0697     YZ:    -0.3720

  Traceless Quadrupole Moment: (Debye Ang)
    XX:    -3.9488     YY:     1.8414     ZZ:     2.1074
    XY:     1.6016     XZ:     1.0697     YZ:    -0.3720

  Mulliken Charges: (a.u.)
   Center  Symbol    Alpha    Beta     Spin     Total
       1     H     0.40906  0.40906  0.00000  0.18188
       2     C     3.24298  3.24298  0.00000 -0.48596
       3     C     3.18198  3.18198  0.00000 -0.36396
       4     H     0.40536  0.40536  0.00000  0.18927
       5     H     0.40542  0.40542  0.00000  0.18916
       6     C     2.84847  2.84847  0.00000  0.30307
       7     H     0.38844  0.38844  0.00000  0.22312
       8     H     0.38863  0.38863  0.00000  0.22275
       9     N     3.72966  3.72966  0.00000 -0.45933

   Total alpha = 15.00000, Total beta = 15.00000, Total charge =  0.00000


*** PSI4 exiting successfully. Buy a developer a beer!
