    -----------------------------------------------------------------------
          Psi4: An Open-Source Ab Initio Electronic Structure Package
                              Psi4 (no tag) Driver

                          Git: Rev {detached?}  

    J. M. Turney, A. C. Simmonett, R. M. Parrish, E. G. Hohenstein,
    F. A. Evangelista, J. T. Fermann, B. J. Mintz, L. A. Burns, J. J. Wilke,
    M. L. Abrams, N. J. Russ, M. L. Leininger, C. L. Janssen, E. T. Seidl,
    W. D. Allen, H. F. Schaefer, R. A. King, E. F. Valeev, C. D. Sherrill,
    and T. D. Crawford, WIREs Comput. Mol. Sci. 2, 556-565 (2012)
    (doi: 10.1002/wcms.93)

                         Additional Contributions by
    A. E. DePrince, M. Saitow, U. Bozkaya, A. Yu. Sokolov
    -----------------------------------------------------------------------


    Psi4 started on: Tue Jul  5 16:50:36 2016

    Process ID:  14491
    PSI4DATADIR: /export131/home/mjharvey/miniconda3/share
    Memory level set to 256.000 MB

  ==> Input File <==

--------------------------------------------------------------------------
set {
	reference rhf
	basis 6-31G*
}


set_num_threads( 1 )
memory 2 gb

molecule MOL {
0 1

H	 -0.000158	 1.970498	 0.756846
O	 -0.000074	 1.880206	 -0.189275
C	 -0.000015	 0.544847	 -0.545111
C	 1.423701	 0.087836	 -0.845379
C	 -0.979576	 0.313022	 -1.690849
H	 -0.351749	 -0.022771	 0.303533
F	 2.174523	 0.249236	 0.223152
F	 1.477629	 -1.180350	 -1.193455
F	 1.952269	 0.806887	 -1.822711
F	 -2.191736	 0.658607	 -1.312990
F	 -1.014681	 -0.946902	 -2.069976
F	 -0.658131	 1.051270	 -2.741201

	symmetry c1
}
set optking {
	frozen_dihedral = ("
		7 4 3 6
	")
}

ee = energy('scf')
oeprop('DIPOLE', 'QUADRUPOLE', 'MULLIKEN_CHARGES')
f=open( 'psi4out.xyz', 'w' )
f.write( "12  " )
f.write( str(ee) + "\n" )
f.write( MOL.save_string_xyz() )
f.close()
--------------------------------------------------------------------------

  Memory set to   2.000 GiB by Python script.

*** tstart() called on cx1-3-4-4.cx1.hpc.ic.ac.uk
*** at Tue Jul  5 16:50:36 2016


         ---------------------------------------------------------
                                   SCF
            by Justin Turney, Rob Parrish, and Andy Simmonett
                              RHF Reference
                        1 Threads,   2000 MiB Core
         ---------------------------------------------------------

  ==> Geometry <==

    Molecular point group: c1
    Full point group: C1

    Geometry (in Angstrom), charge = 0, multiplicity = 1:

       Center              X                  Y                   Z               Mass       
    ------------   -----------------  -----------------  -----------------  -----------------
           H         -0.226515510496     1.640021634952     1.996999624279     1.007825032070
           O         -0.226431510496     1.549729634952     1.050878624279    15.994914619560
           C         -0.226372510496     0.214370634952     0.695042624279    12.000000000000
           C          1.197343489504    -0.242640365048     0.394774624279    12.000000000000
           C         -1.205933510496    -0.017454365048    -0.450695375721    12.000000000000
           H         -0.578106510496    -0.353247365048     1.543686624279     1.007825032070
           F          1.948165489504    -0.081240365048     1.463305624279    18.998403224000
           F          1.251271489504    -1.510826365048     0.046698624279    18.998403224000
           F          1.725911489504     0.476410634952    -0.582557375721    18.998403224000
           F         -2.418093510496     0.328130634952    -0.072836375721    18.998403224000
           F         -1.241038510496    -1.277378365048    -0.829822375721    18.998403224000
           F         -0.884488510496     0.720793634952    -1.501047375721    18.998403224000

  Running in c1 symmetry.

  Rotational constants: A =      0.07139  B =      0.03580  C =      0.03155 [cm^-1]
  Rotational constants: A =   2140.21771  B =   1073.11336  C =    945.79653 [MHz]
  Nuclear repulsion =  668.950756707786240

  Charge       = 0
  Multiplicity = 1
  Electrons    = 82
  Nalpha       = 41
  Nbeta        = 41

  ==> Algorithm <==

  SCF Algorithm Type is DF.
  DIIS enabled.
  MOM disabled.
  Fractional occupation disabled.
  Guess Type is CORE.
  Energy threshold   = 1.00e-06
  Density threshold  = 1.00e-06
  Integral threshold = 0.00e+00

  ==> Primary Basis <==

  Basis Set: 6-31G*
    Number of shells: 64
    Number of basis function: 154
    Number of Cartesian functions: 154
    Spherical Harmonics?: false
    Max angular momentum: 2

  ==> Pre-Iterations <==

   -------------------------------------------------------
    Irrep   Nso     Nmo     Nalpha   Nbeta   Ndocc  Nsocc
   -------------------------------------------------------
     A        154     154       0       0       0       0
   -------------------------------------------------------
    Total     154     154      41      41      41       0
   -------------------------------------------------------

 OEINTS: Overlap, kinetic, potential, dipole, and quadrupole integrals
         stored in file 35.

  ==> Integral Setup <==

  ==> DFJK: Density-Fitted J/K Matrices <==

    J tasked:                  Yes
    K tasked:                  Yes
    wK tasked:                  No
    OpenMP threads:              1
    Integrals threads:           1
    Memory (MB):              1430
    Algorithm:                Core
    Integral Cache:           NONE
    Schwarz Cutoff:          1E-12
    Fitting Condition:       1E-12

   => Auxiliary Basis Set <=

  Basis Set: 
    Number of shells: 258
    Number of basis function: 860
    Number of Cartesian functions: 860
    Spherical Harmonics?: false
    Max angular momentum: 3

  Minimum eigenvalue in the overlap matrix is 1.6894328292E-03.
  Using Symmetric Orthogonalization.
  SCF Guess: Core (One-Electron) Hamiltonian.

  ==> Iterations <==

                           Total Energy        Delta E     RMS |[F,P]|

   @DF-RHF iter   1:  -698.18941602869199   -6.98189e+02   6.88109e-02 
   @DF-RHF iter   2:  -529.39747079871813    1.68792e+02   8.63022e-02 DIIS
   @DF-RHF iter   3:  -723.34736205043714   -1.93950e+02   5.73523e-02 DIIS
   @DF-RHF iter   4:  -750.48352668457119   -2.71362e+01   3.90995e-02 DIIS
   @DF-RHF iter   5:  -755.50006822954856   -5.01654e+00   3.87613e-02 DIIS
   @DF-RHF iter   6:  -784.83543490724742   -2.93354e+01   1.27683e-02 DIIS
   @DF-RHF iter   7:  -786.12849924573902   -1.29306e+00   3.58269e-03 DIIS
   @DF-RHF iter   8:  -786.23752312419128   -1.09024e-01   1.87458e-03 DIIS
   @DF-RHF iter   9:  -786.26646603751124   -2.89429e-02   7.57870e-04 DIIS
   @DF-RHF iter  10:  -786.27265911020595   -6.19307e-03   2.95862e-04 DIIS
   @DF-RHF iter  11:  -786.27366305749592   -1.00395e-03   7.85991e-05 DIIS
   @DF-RHF iter  12:  -786.27374707764875   -8.40202e-05   1.93120e-05 DIIS
   @DF-RHF iter  13:  -786.27375373220229   -6.65455e-06   5.46374e-06 DIIS
   @DF-RHF iter  14:  -786.27375435253498   -6.20333e-07   1.53470e-06 DIIS
   @DF-RHF iter  15:  -786.27375439872344   -4.61885e-08   5.19087e-07 DIIS

  ==> Post-Iterations <==

    Orbital Energies (a.u.)
    -----------------------

    Doubly Occupied:                                                      

       1A    -26.359301     2A    -26.358612     3A    -26.358187  
       4A    -26.354148     5A    -26.347683     6A    -26.347355  
       7A    -20.616609     8A    -11.522628     9A    -11.520919  
      10A    -11.349941    11A     -1.758305    12A     -1.752363  
      13A     -1.657548    14A     -1.653105    15A     -1.648589  
      16A     -1.644614    17A     -1.434734    18A     -1.101035  
      19A     -0.991407    20A     -0.931641    21A     -0.858679  
      22A     -0.853760    23A     -0.849984    24A     -0.836328  
      25A     -0.827147    26A     -0.781144    27A     -0.765799  
      28A     -0.725726    29A     -0.717414    30A     -0.716300  
      31A     -0.710578    32A     -0.680066    33A     -0.672164  
      34A     -0.665888    35A     -0.662734    36A     -0.655183  
      37A     -0.649194    38A     -0.623067    39A     -0.618920  
      40A     -0.552775    41A     -0.504704  

    Virtual:                                                              

      42A      0.176855    43A      0.260004    44A      0.314298  
      45A      0.346005    46A      0.351712    47A      0.405208  
      48A      0.455141    49A      0.463852    50A      0.468637  
      51A      0.531545    52A      0.556111    53A      0.666837  
      54A      0.677311    55A      0.714577    56A      0.734367  
      57A      0.748881    58A      0.797242    59A      0.817182  
      60A      0.847822    61A      0.901637    62A      0.934393  
      63A      1.047931    64A      1.100421    65A      1.140849  
      66A      1.183163    67A      1.245165    68A      1.257497  
      69A      1.290151    70A      1.314049    71A      1.349544  
      72A      1.358253    73A      1.384784    74A      1.390733  
      75A      1.448492    76A      1.468411    77A      1.503701  
      78A      1.548625    79A      1.584459    80A      1.598842  
      81A      1.604764    82A      1.612633    83A      1.621694  
      84A      1.651714    85A      1.652651    86A      1.663484  
      87A      1.666977    88A      1.674737    89A      1.711621  
      90A      1.745036    91A      1.750359    92A      1.780899  
      93A      1.870413    94A      1.887799    95A      1.909180  
      96A      1.950819    97A      1.973903    98A      1.983249  
      99A      1.995285   100A      2.102992   101A      2.112748  
     102A      2.117437   103A      2.126452   104A      2.130315  
     105A      2.149151   106A      2.155680   107A      2.167826  
     108A      2.190734   109A      2.295898   110A      2.306176  
     111A      2.329906   112A      2.335873   113A      2.357947  
     114A      2.367790   115A      2.383983   116A      2.404021  
     117A      2.408047   118A      2.424445   119A      2.449637  
     120A      2.475513   121A      2.505586   122A      2.557359  
     123A      2.561057   124A      2.614701   125A      2.684948  
     126A      2.713311   127A      2.718249   128A      2.868932  
     129A      2.887793   130A      2.908043   131A      2.936385  
     132A      3.061259   133A      3.156841   134A      3.184149  
     135A      3.201066   136A      3.225540   137A      3.276277  
     138A      3.353797   139A      3.405212   140A      3.420282  
     141A      3.454677   142A      3.457500   143A      3.461427  
     144A      3.487665   145A      4.150510   146A      4.626616  
     147A      4.760115   148A      4.815406   149A      5.039710  
     150A      5.101673   151A      5.269647   152A      5.653641  
     153A      5.801402   154A      6.359223  

    Final Occupation by Irrep:
              A 
    DOCC [    41 ]

  Energy converged.

  @DF-RHF Final Energy:  -786.27375439872344

   => Energetics <=

    Nuclear Repulsion Energy =            668.9507567077862404
    One-Electron Energy =               -2425.1762451799068003
    Two-Electron Energy =                 969.9517340733962101
    DFT Exchange-Correlation Energy =       0.0000000000000000
    Empirical Dispersion Energy =           0.0000000000000000
    PCM Polarization Energy =               0.0000000000000000
    EFP Energy =                            0.0000000000000000
    Total Energy =                       -786.2737543987243498

    Alert: EFP and PCM quantities not currently incorporated into SCF psivars.

Properties will be evaluated at   0.000000,   0.000000,   0.000000 Bohr
  ==> Properties <==


Properties computed using the SCF density matrix

  Nuclear Dipole Moment: (a.u.)
     X:    -1.1155      Y:     2.4817      Z:     4.7170

  Electronic Dipole Moment: (a.u.)
     X:     0.8766      Y:    -2.6006      Z:    -3.4592

  Dipole Moment: (a.u.)
     X:    -0.2389      Y:    -0.1189      Z:     1.2577     Total:     1.2857

  Dipole Moment: (Debye)
     X:    -0.6073      Y:    -0.3022      Z:     3.1969     Total:     3.2680


  Saving occupied orbitals to File 180.

*** tstop() called on cx1-3-4-4.cx1.hpc.ic.ac.uk at Tue Jul  5 16:50:55 2016
Module time:
	user time   =      17.83 seconds =       0.30 minutes
	system time =       0.21 seconds =       0.00 minutes
	total time  =         19 seconds =       0.32 minutes
Total time:
	user time   =      17.83 seconds =       0.30 minutes
	system time =       0.21 seconds =       0.00 minutes
	total time  =         19 seconds =       0.32 minutes


Properties will be evaluated at   0.000000,   0.000000,   0.000000 Bohr

Properties computed using the  density matrix

  Nuclear Dipole Moment: (a.u.)
     X:    -1.1155      Y:     2.4817      Z:     4.7170

  Electronic Dipole Moment: (a.u.)
     X:     0.8766      Y:    -2.6006      Z:    -3.4592

  Dipole Moment: (a.u.)
     X:    -0.2389      Y:    -0.1189      Z:     1.2577     Total:     1.2857

  Dipole Moment: (Debye)
     X:    -0.6073      Y:    -0.3022      Z:     3.1969     Total:     3.2680

  Quadrupole Moment: (Debye Ang)
    XX:   -56.2329     YY:   -54.9189     ZZ:   -46.4306
    XY:     0.4745     XZ:    -2.0195     YZ:     2.2975

  Traceless Quadrupole Moment: (Debye Ang)
    XX:    -3.7055     YY:    -2.3914     ZZ:     6.0969
    XY:     0.4745     XZ:    -2.0195     YZ:     2.2975

  Mulliken Charges: (a.u.)
   Center  Symbol    Alpha    Beta     Spin     Total
       1     H     0.26400  0.26400  0.00000  0.47200
       2     O     4.36099  4.36099  0.00000 -0.72198
       3     C     3.05449  3.05449  0.00000 -0.10899
       4     C     2.43804  2.43804  0.00000  1.12392
       5     C     2.43441  2.43441  0.00000  1.13118
       6     H     0.39068  0.39068  0.00000  0.21863
       7     F     4.68032  4.68032  0.00000 -0.36064
       8     F     4.67468  4.67468  0.00000 -0.34936
       9     F     4.67538  4.67538  0.00000 -0.35075
      10     F     4.67715  4.67715  0.00000 -0.35430
      11     F     4.67453  4.67453  0.00000 -0.34905
      12     F     4.67533  4.67533  0.00000 -0.35066

   Total alpha = 41.00000, Total beta = 41.00000, Total charge =  0.00000


*** PSI4 exiting successfully. Buy a developer a beer!
