    -----------------------------------------------------------------------
          Psi4: An Open-Source Ab Initio Electronic Structure Package
                              Psi4 (no tag) Driver

                          Git: Rev {detached?}  

    J. M. Turney, A. C. Simmonett, R. M. Parrish, E. G. Hohenstein,
    F. A. Evangelista, J. T. Fermann, B. J. Mintz, L. A. Burns, J. J. Wilke,
    M. L. Abrams, N. J. Russ, M. L. Leininger, C. L. Janssen, E. T. Seidl,
    W. D. Allen, H. F. Schaefer, R. A. King, E. F. Valeev, C. D. Sherrill,
    and T. D. Crawford, WIREs Comput. Mol. Sci. 2, 556-565 (2012)
    (doi: 10.1002/wcms.93)

                         Additional Contributions by
    A. E. DePrince, M. Saitow, U. Bozkaya, A. Yu. Sokolov
    -----------------------------------------------------------------------


    Psi4 started on: Tue Jul  5 16:42:12 2016

    Process ID:  23201
    PSI4DATADIR: /export131/home/mjharvey/miniconda3/share
    Memory level set to 256.000 MB

  ==> Input File <==

--------------------------------------------------------------------------
set {
	reference rhf
	basis 6-31G*
}


set_num_threads( 1 )
memory 2 gb

molecule MOL {
0 1

H	 2.591676	 2.013956	 0.335017
O	 3.341076	 1.666752	 -0.126416
C	 3.569581	 0.339145	 0.272707
C	 2.539767	 -0.640285	 -0.279495
H	 4.553106	 0.084646	 -0.100901
H	 3.608576	 0.269204	 1.359154
C	 1.115811	 -0.397273	 0.226630
H	 2.556196	 -0.582511	 -1.364741
H	 2.852081	 -1.648031	 -0.010655
C	 0.115918	 -1.429151	 -0.302766
H	 0.797950	 0.599468	 -0.066350
H	 1.109961	 -0.420744	 1.316472
C	 -0.613746	 -1.018751	 -1.587095
H	 0.630209	 -2.374265	 -0.467423
H	 -0.626711	 -1.619203	 0.469298
C	 0.278511	 -0.901782	 -2.825914
H	 -1.391165	 -1.752987	 -1.787927
H	 -1.127545	 -0.072928	 -1.421967
C	 -0.509328	 -0.594075	 -4.101086
H	 0.829331	 -1.831588	 -2.960702
H	 1.024356	 -0.124530	 -2.677939
C	 0.379639	 -0.470447	 -5.338065
H	 -1.248380	 -1.375395	 -4.264882
H	 -1.068002	 0.329606	 -3.964772
H	 0.927722	 -1.390524	 -5.520511
H	 -0.207786	 -0.254281	 -6.225104
H	 1.106760	 0.328216	 -5.220606

	symmetry c1
}
set optking {
	frozen_dihedral = ("
		14 10 13 16,
		10 7 4 8,
		8 4 3 2,
		10 13 16 20,
		20 16 19 22,
		4 3 2 1
	")
}

ee = energy('scf')
oeprop('DIPOLE', 'QUADRUPOLE', 'MULLIKEN_CHARGES')
f=open( 'psi4out.xyz', 'w' )
f.write( "27  " )
f.write( str(ee) + "\n" )
f.write( MOL.save_string_xyz() )
f.close()
--------------------------------------------------------------------------

  Memory set to   2.000 GiB by Python script.

*** tstart() called on cx1-3-4-2.cx1.hpc.ic.ac.uk
*** at Tue Jul  5 16:42:13 2016


         ---------------------------------------------------------
                                   SCF
            by Justin Turney, Rob Parrish, and Andy Simmonett
                              RHF Reference
                        1 Threads,   2000 MiB Core
         ---------------------------------------------------------

  ==> Geometry <==

    Molecular point group: c1
    Full point group: C1

    Geometry (in Angstrom), charge = 0, multiplicity = 1:

       Center              X                  Y                   Z               Mass       
    ------------   -----------------  -----------------  -----------------  -----------------
           H          1.415944004726     2.356602924254     1.887798870789     1.007825032070
           O          2.165344004726     2.009398924254     1.426365870789    15.994914619560
           C          2.393849004726     0.681791924254     1.825488870789    12.000000000000
           C          1.364035004726    -0.297638075746     1.273286870789    12.000000000000
           H          3.377374004726     0.427292924254     1.451880870789     1.007825032070
           H          2.432844004726     0.611850924254     2.911935870789     1.007825032070
           C         -0.059920995274    -0.054626075746     1.779411870789    12.000000000000
           H          1.380464004726    -0.239864075746     0.188040870789     1.007825032070
           H          1.676349004726    -1.305384075746     1.542126870789     1.007825032070
           C         -1.059813995274    -1.086504075746     1.250015870789    12.000000000000
           H         -0.377781995274     0.942114924254     1.486431870789     1.007825032070
           H         -0.065770995274    -0.078097075746     2.869253870789     1.007825032070
           C         -1.789477995274    -0.676104075746    -0.034313129211    12.000000000000
           H         -0.545522995274    -2.031618075746     1.085358870789     1.007825032070
           H         -1.802442995274    -1.276556075746     2.022079870789     1.007825032070
           C         -0.897220995274    -0.559135075746    -1.273132129211    12.000000000000
           H         -2.566896995274    -1.410340075746    -0.235145129211     1.007825032070
           H         -2.303276995274     0.269718924254     0.130814870789     1.007825032070
           C         -1.685059995274    -0.251428075746    -2.548304129211    12.000000000000
           H         -0.346400995274    -1.488941075746    -1.407920129211     1.007825032070
           H         -0.151375995274     0.218116924254    -1.125157129211     1.007825032070
           C         -0.796092995274    -0.127800075746    -3.785283129211    12.000000000000
           H         -2.424111995274    -1.032748075746    -2.712100129211     1.007825032070
           H         -2.243733995274     0.672252924254    -2.411990129211     1.007825032070
           H         -0.248009995274    -1.047877075746    -3.967729129211     1.007825032070
           H         -1.383517995274     0.088365924254    -4.672322129211     1.007825032070
           H         -0.068971995274     0.670862924254    -3.667824129211     1.007825032070

  Running in c1 symmetry.

  Rotational constants: A =      0.06792  B =      0.02240  C =      0.01839 [cm^-1]
  Rotational constants: A =   2036.22762  B =    671.55819  C =    551.20051 [MHz]
  Nuclear repulsion =  472.931796994859042

  Charge       = 0
  Multiplicity = 1
  Electrons    = 74
  Nalpha       = 37
  Nbeta        = 37

  ==> Algorithm <==

  SCF Algorithm Type is DF.
  DIIS enabled.
  MOM disabled.
  Fractional occupation disabled.
  Guess Type is CORE.
  Energy threshold   = 1.00e-06
  Density threshold  = 1.00e-06
  Integral threshold = 0.00e+00

  ==> Primary Basis <==

  Basis Set: 6-31G*
    Number of shells: 90
    Number of basis function: 171
    Number of Cartesian functions: 171
    Spherical Harmonics?: false
    Max angular momentum: 2

  ==> Pre-Iterations <==

   -------------------------------------------------------
    Irrep   Nso     Nmo     Nalpha   Nbeta   Ndocc  Nsocc
   -------------------------------------------------------
     A        171     171       0       0       0       0
   -------------------------------------------------------
    Total     171     171      37      37      37       0
   -------------------------------------------------------

 OEINTS: Overlap, kinetic, potential, dipole, and quadrupole integrals
         stored in file 35.

  ==> Integral Setup <==

  ==> DFJK: Density-Fitted J/K Matrices <==

    J tasked:                  Yes
    K tasked:                  Yes
    wK tasked:                  No
    OpenMP threads:              1
    Integrals threads:           1
    Memory (MB):              1430
    Algorithm:                Core
    Integral Cache:           NONE
    Schwarz Cutoff:          1E-12
    Fitting Condition:       1E-12

   => Auxiliary Basis Set <=

  Basis Set: 
    Number of shells: 378
    Number of basis function: 1179
    Number of Cartesian functions: 1179
    Spherical Harmonics?: false
    Max angular momentum: 3

  Minimum eigenvalue in the overlap matrix is 3.4905895858E-03.
  Using Symmetric Orthogonalization.
  SCF Guess: Core (One-Electron) Hamiltonian.

  ==> Iterations <==

                           Total Energy        Delta E     RMS |[F,P]|

   @DF-RHF iter   1:  -286.47425917531712   -2.86474e+02   5.96471e-02 
   @DF-RHF iter   2:     3.31122399657096    2.89785e+02   6.54814e-02 DIIS
   @DF-RHF iter   3:  -263.85069671056033   -2.67162e+02   4.81839e-02 DIIS
   @DF-RHF iter   4:  -233.93854829195823    2.99121e+01   6.76041e-02 DIIS
   @DF-RHF iter   5:  -380.74966157031554   -1.46811e+02   1.51100e-02 DIIS
   @DF-RHF iter   6:  -363.74191798714014    1.70077e+01   2.59785e-02 DIIS
   @DF-RHF iter   7:  -388.09386420744318   -2.43519e+01   3.43919e-03 DIIS
   @DF-RHF iter   8:  -388.25680577357514   -1.62942e-01   1.07570e-03 DIIS
   @DF-RHF iter   9:  -388.27356460649776   -1.67588e-02   4.09390e-04 DIIS
   @DF-RHF iter  10:  -388.27587144945835   -2.30684e-03   1.24437e-04 DIIS
   @DF-RHF iter  11:  -388.27621876365242   -3.47314e-04   4.86830e-05 DIIS
   @DF-RHF iter  12:  -388.27626692675858   -4.81631e-05   2.05427e-05 DIIS
   @DF-RHF iter  13:  -388.27627667036325   -9.74360e-06   5.01357e-06 DIIS
   @DF-RHF iter  14:  -388.27627736708780   -6.96725e-07   1.19747e-06 DIIS
   @DF-RHF iter  15:  -388.27627740787034   -4.07825e-08   3.23211e-07 DIIS

  ==> Post-Iterations <==

    Orbital Energies (a.u.)
    -----------------------

    Doubly Occupied:                                                      

       1A    -20.552138     2A    -11.266103     3A    -11.219239  
       4A    -11.216129     5A    -11.214462     6A    -11.213640  
       7A    -11.213431     8A    -11.211769     9A    -11.206775  
      10A     -1.358861    11A     -1.095630    12A     -1.058771  
      13A     -1.008980    14A     -0.948964    15A     -0.887203  
      16A     -0.824536    17A     -0.792500    18A     -0.779188  
      19A     -0.694720    20A     -0.647913    21A     -0.630708  
      22A     -0.617538    23A     -0.610337    24A     -0.582820  
      25A     -0.569912    26A     -0.552055    27A     -0.543476  
      28A     -0.522882    29A     -0.508937    30A     -0.498499  
      31A     -0.483952    32A     -0.472551    33A     -0.464751  
      34A     -0.459076    35A     -0.454308    36A     -0.435540  
      37A     -0.420648  

    Virtual:                                                              

      38A      0.219669    39A      0.234103    40A      0.245852  
      41A      0.255143    42A      0.270742    43A      0.276866  
      44A      0.286631    45A      0.302331    46A      0.312016  
      47A      0.318524    48A      0.322516    49A      0.334781  
      50A      0.339603    51A      0.347825    52A      0.355480  
      53A      0.365802    54A      0.370300    55A      0.388295  
      56A      0.409738    57A      0.416974    58A      0.431679  
      59A      0.436965    60A      0.452143    61A      0.463081  
      62A      0.472716    63A      0.504110    64A      0.696296  
      65A      0.704940    66A      0.719172    67A      0.736514  
      68A      0.755143    69A      0.759482    70A      0.782555  
      71A      0.807887    72A      0.829676    73A      0.852157  
      74A      0.874862    75A      0.889419    76A      0.911607  
      77A      0.925338    78A      0.952095    79A      0.975507  
      80A      0.984775    81A      1.017778    82A      1.038431  
      83A      1.056600    84A      1.083903    85A      1.093431  
      86A      1.114532    87A      1.135762    88A      1.145281  
      89A      1.149580    90A      1.161557    91A      1.177689  
      92A      1.181423    93A      1.186731    94A      1.192112  
      95A      1.205115    96A      1.207366    97A      1.222536  
      98A      1.224831    99A      1.227585   100A      1.241887  
     101A      1.258550   102A      1.264301   103A      1.275526  
     104A      1.293865   105A      1.305691   106A      1.340345  
     107A      1.349035   108A      1.377814   109A      1.428153  
     110A      1.486029   111A      1.592195   112A      1.624357  
     113A      1.669684   114A      1.708884   115A      1.747252  
     116A      1.764155   117A      1.813103   118A      1.827495  
     119A      1.875946   120A      1.899481   121A      1.956122  
     122A      2.004269   123A      2.009969   124A      2.071230  
     125A      2.085091   126A      2.128059   127A      2.150552  
     128A      2.188569   129A      2.207873   130A      2.227184  
     131A      2.249592   132A      2.272024   133A      2.303345  
     134A      2.310706   135A      2.338890   136A      2.344894  
     137A      2.387651   138A      2.393446   139A      2.445478  
     140A      2.460328   141A      2.500996   142A      2.567264  
     143A      2.607456   144A      2.615270   145A      2.634537  
     146A      2.671903   147A      2.692738   148A      2.723169  
     149A      2.749517   150A      2.753986   151A      2.772887  
     152A      2.801216   153A      2.839238   154A      2.895501  
     155A      2.940629   156A      2.943423   157A      2.994032  
     158A      3.074115   159A      3.099697   160A      3.116531  
     161A      3.174979   162A      3.220146   163A      4.186559  
     164A      4.548810   165A      4.613923   166A      4.688743  
     167A      4.768434   168A      4.820341   169A      4.889416  
     170A      4.983196   171A      5.008009  

    Final Occupation by Irrep:
              A 
    DOCC [    37 ]

  Energy converged.

  @DF-RHF Final Energy:  -388.27627740787034

   => Energetics <=

    Nuclear Repulsion Energy =            472.9317969948590417
    One-Electron Energy =               -1463.9382608372743562
    Two-Electron Energy =                 602.7301864345431568
    DFT Exchange-Correlation Energy =       0.0000000000000000
    Empirical Dispersion Energy =           0.0000000000000000
    PCM Polarization Energy =               0.0000000000000000
    EFP Energy =                            0.0000000000000000
    Total Energy =                       -388.2762774078721577

    Alert: EFP and PCM quantities not currently incorporated into SCF psivars.

Properties will be evaluated at   0.000000,   0.000000,   0.000000 Bohr
  ==> Properties <==


Properties computed using the SCF density matrix

  Nuclear Dipole Moment: (a.u.)
     X:    -3.9690      Y:    -3.4161      Z:    -4.3284

  Electronic Dipole Moment: (a.u.)
     X:     3.5111      Y:     3.0312      Z:     4.7476

  Dipole Moment: (a.u.)
     X:    -0.4579      Y:    -0.3849      Z:     0.4192     Total:     0.7304

  Dipole Moment: (Debye)
     X:    -1.1639      Y:    -0.9784      Z:     1.0654     Total:     1.8566


  Saving occupied orbitals to File 180.

*** tstop() called on cx1-3-4-2.cx1.hpc.ic.ac.uk at Tue Jul  5 16:42:46 2016
Module time:
	user time   =      32.88 seconds =       0.55 minutes
	system time =       0.31 seconds =       0.01 minutes
	total time  =         33 seconds =       0.55 minutes
Total time:
	user time   =      32.88 seconds =       0.55 minutes
	system time =       0.31 seconds =       0.01 minutes
	total time  =         33 seconds =       0.55 minutes


Properties will be evaluated at   0.000000,   0.000000,   0.000000 Bohr

Properties computed using the  density matrix

  Nuclear Dipole Moment: (a.u.)
     X:    -3.9690      Y:    -3.4161      Z:    -4.3284

  Electronic Dipole Moment: (a.u.)
     X:     3.5111      Y:     3.0312      Z:     4.7476

  Dipole Moment: (a.u.)
     X:    -0.4579      Y:    -0.3849      Z:     0.4192     Total:     0.7304

  Dipole Moment: (Debye)
     X:    -1.1639      Y:    -0.9784      Z:     1.0654     Total:     1.8566

  Quadrupole Moment: (Debye Ang)
    XX:   -64.1672     YY:   -61.9224     ZZ:   -57.3796
    XY:    -5.3667     XZ:     0.1559     YZ:     1.0381

  Traceless Quadrupole Moment: (Debye Ang)
    XX:    -3.0108     YY:    -0.7660     ZZ:     3.7768
    XY:    -5.3667     XZ:     0.1559     YZ:     1.0381

  Mulliken Charges: (a.u.)
   Center  Symbol    Alpha    Beta     Spin     Total
       1     H     0.27999  0.27999  0.00000  0.44002
       2     O     4.37146  4.37146  0.00000 -0.74291
       3     C     2.99718  2.99718  0.00000  0.00565
       4     C     3.16510  3.16510  0.00000 -0.33019
       5     H     0.41488  0.41488  0.00000  0.17023
       6     H     0.43234  0.43234  0.00000  0.13533
       7     C     3.16506  3.16506  0.00000 -0.33011
       8     H     0.41097  0.41097  0.00000  0.17807
       9     H     0.42416  0.42416  0.00000  0.15168
      10     C     3.15512  3.15512  0.00000 -0.31025
      11     H     0.42413  0.42413  0.00000  0.15175
      12     H     0.42216  0.42216  0.00000  0.15568
      13     C     3.15249  3.15249  0.00000 -0.30498
      14     H     0.42155  0.42155  0.00000  0.15691
      15     H     0.41944  0.41944  0.00000  0.16112
      16     C     3.15617  3.15617  0.00000 -0.31233
      17     H     0.42220  0.42220  0.00000  0.15560
      18     H     0.42394  0.42394  0.00000  0.15212
      19     C     3.15034  3.15034  0.00000 -0.30068
      20     H     0.42465  0.42465  0.00000  0.15070
      21     H     0.41793  0.41793  0.00000  0.16415
      22     C     3.23956  3.23956  0.00000 -0.47911
      23     H     0.42368  0.42368  0.00000  0.15263
      24     H     0.42328  0.42328  0.00000  0.15343
      25     H     0.42214  0.42214  0.00000  0.15572
      26     H     0.41965  0.41965  0.00000  0.16070
      27     H     0.42046  0.42046  0.00000  0.15908

   Total alpha = 37.00000, Total beta = 37.00000, Total charge =  0.00000


*** PSI4 exiting successfully. Buy a developer a beer!
