    -----------------------------------------------------------------------
          Psi4: An Open-Source Ab Initio Electronic Structure Package
                              Psi4 (no tag) Driver

                          Git: Rev {detached?}  

    J. M. Turney, A. C. Simmonett, R. M. Parrish, E. G. Hohenstein,
    F. A. Evangelista, J. T. Fermann, B. J. Mintz, L. A. Burns, J. J. Wilke,
    M. L. Abrams, N. J. Russ, M. L. Leininger, C. L. Janssen, E. T. Seidl,
    W. D. Allen, H. F. Schaefer, R. A. King, E. F. Valeev, C. D. Sherrill,
    and T. D. Crawford, WIREs Comput. Mol. Sci. 2, 556-565 (2012)
    (doi: 10.1002/wcms.93)

                         Additional Contributions by
    A. E. DePrince, M. Saitow, U. Bozkaya, A. Yu. Sokolov
    -----------------------------------------------------------------------


    Psi4 started on: Tue Jul  5 16:54:22 2016

    Process ID:  14838
    PSI4DATADIR: /export131/home/mjharvey/miniconda3/share
    Memory level set to 256.000 MB

  ==> Input File <==

--------------------------------------------------------------------------
set {
	reference rhf
	basis 6-31G*
}


set_num_threads( 1 )
memory 2 gb

molecule MOL {
0 1

H	 -2.153054	 -2.250733	 0.000000
O	 -2.462445	 -1.355403	 0.000000
C	 -1.434260	 -0.483044	 0.000000
C	 -0.160282	 -0.998433	 0.214627
C	 -1.606806	 0.873172	 -0.202032
H	 -0.050522	 -2.055314	 0.369249
C	 0.931284	 -0.154718	 0.225708
H	 -2.586306	 1.284548	 -0.369080
C	 -0.495009	 1.711703	 -0.187945
H	 1.912113	 -0.560710	 0.392185
C	 0.777868	 1.209965	 0.024721
C	 -0.683838	 3.129388	 -0.400099
H	 1.624995	 1.868669	 0.032793
N	 -0.834293	 4.242930	 -0.568300

	symmetry c1
}
set optking {
	frozen_dihedral = ("
		5 3 2 1
	")
}

ee = energy('scf')
oeprop('DIPOLE', 'QUADRUPOLE', 'MULLIKEN_CHARGES')
f=open( 'psi4out.xyz', 'w' )
f.write( "14  " )
f.write( str(ee) + "\n" )
f.write( MOL.save_string_xyz() )
f.close()
--------------------------------------------------------------------------

  Memory set to   2.000 GiB by Python script.

*** tstart() called on cx1-3-4-4.cx1.hpc.ic.ac.uk
*** at Tue Jul  5 16:54:23 2016


         ---------------------------------------------------------
                                   SCF
            by Justin Turney, Rob Parrish, and Andy Simmonett
                              RHF Reference
                        1 Threads,   2000 MiB Core
         ---------------------------------------------------------

  ==> Geometry <==

    Molecular point group: c1
    Full point group: C1

    Geometry (in Angstrom), charge = 0, multiplicity = 1:

       Center              X                  Y                   Z               Mass       
    ------------   -----------------  -----------------  -----------------  -----------------
           H         -1.444162844420    -3.086303956479     0.096018063649     1.007825032070
           O         -1.753553844420    -2.190973956479     0.096018063649    15.994914619560
           C         -0.725368844420    -1.318614956479     0.096018063649    12.000000000000
           C          0.548609155580    -1.834003956479     0.310645063649    12.000000000000
           C         -0.897914844420     0.037601043521    -0.106013936351    12.000000000000
           H          0.658369155580    -2.890884956479     0.465267063649     1.007825032070
           C          1.640175155580    -0.990288956479     0.321726063649    12.000000000000
           H         -1.877414844420     0.448977043521    -0.273061936351     1.007825032070
           C          0.213882155580     0.876132043521    -0.091926936351    12.000000000000
           H          2.621004155580    -1.396280956479     0.488203063649     1.007825032070
           C          1.486759155580     0.374394043521     0.120739063649    12.000000000000
           C          0.025053155580     2.293817043521    -0.304080936351    12.000000000000
           H          2.333886155580     1.033098043521     0.128811063649     1.007825032070
           N         -0.125401844420     3.407359043521    -0.472281936351    14.003074004780

  Running in c1 symmetry.

  Rotational constants: A =      0.11884  B =      0.04008  C =      0.02998 [cm^-1]
  Rotational constants: A =   3562.68853  B =   1201.64159  C =    898.64092 [MHz]
  Nuclear repulsion =  379.328267667474563

  Charge       = 0
  Multiplicity = 1
  Electrons    = 62
  Nalpha       = 31
  Nbeta        = 31

  ==> Algorithm <==

  SCF Algorithm Type is DF.
  DIIS enabled.
  MOM disabled.
  Fractional occupation disabled.
  Guess Type is CORE.
  Energy threshold   = 1.00e-06
  Density threshold  = 1.00e-06
  Integral threshold = 0.00e+00

  ==> Primary Basis <==

  Basis Set: 6-31G*
    Number of shells: 64
    Number of basis function: 145
    Number of Cartesian functions: 145
    Spherical Harmonics?: false
    Max angular momentum: 2

  ==> Pre-Iterations <==

   -------------------------------------------------------
    Irrep   Nso     Nmo     Nalpha   Nbeta   Ndocc  Nsocc
   -------------------------------------------------------
     A        145     145       0       0       0       0
   -------------------------------------------------------
    Total     145     145      31      31      31       0
   -------------------------------------------------------

 OEINTS: Overlap, kinetic, potential, dipole, and quadrupole integrals
         stored in file 35.

  ==> Integral Setup <==

  ==> DFJK: Density-Fitted J/K Matrices <==

    J tasked:                  Yes
    K tasked:                  Yes
    wK tasked:                  No
    OpenMP threads:              1
    Integrals threads:           1
    Memory (MB):              1430
    Algorithm:                Core
    Integral Cache:           NONE
    Schwarz Cutoff:          1E-12
    Fitting Condition:       1E-12

   => Auxiliary Basis Set <=

  Basis Set: 
    Number of shells: 261
    Number of basis function: 854
    Number of Cartesian functions: 854
    Spherical Harmonics?: false
    Max angular momentum: 3

  Minimum eigenvalue in the overlap matrix is 4.1967700996E-04.
  Using Symmetric Orthogonalization.
  SCF Guess: Core (One-Electron) Hamiltonian.

  ==> Iterations <==

                           Total Energy        Delta E     RMS |[F,P]|

   @DF-RHF iter   1:  -309.43288148350638   -3.09433e+02   6.50368e-02 
   @DF-RHF iter   2:  -146.48416077729684    1.62949e+02   7.88286e-02 DIIS
   @DF-RHF iter   3:  -317.84677831785535   -1.71363e+02   5.28102e-02 DIIS
   @DF-RHF iter   4:  -342.01620318563113   -2.41694e+01   5.26833e-02 DIIS
   @DF-RHF iter   5:  -395.88178119116986   -5.38656e+01   1.08037e-02 DIIS
   @DF-RHF iter   6:  -397.09028749986015   -1.20851e+00   4.29932e-03 DIIS
   @DF-RHF iter   7:  -397.27040569773516   -1.80118e-01   1.18763e-03 DIIS
   @DF-RHF iter   8:  -397.28588683410720   -1.54811e-02   4.36315e-04 DIIS
   @DF-RHF iter   9:  -397.28843717791602   -2.55034e-03   1.39870e-04 DIIS
   @DF-RHF iter  10:  -397.28882043004552   -3.83252e-04   6.02659e-05 DIIS
   @DF-RHF iter  11:  -397.28892300810099   -1.02578e-04   3.04379e-05 DIIS
   @DF-RHF iter  12:  -397.28897261039100   -4.96023e-05   1.36171e-05 DIIS
   @DF-RHF iter  13:  -397.28898210426865   -9.49388e-06   7.14198e-06 DIIS
   @DF-RHF iter  14:  -397.28898543545250   -3.33118e-06   2.39322e-06 DIIS
   @DF-RHF iter  15:  -397.28898568451979   -2.49067e-07   5.76042e-07 DIIS

  ==> Post-Iterations <==

    Orbital Energies (a.u.)
    -----------------------

    Doubly Occupied:                                                      

       1A    -20.611047     2A    -15.574811     3A    -11.327057  
       4A    -11.294963     5A    -11.275905     6A    -11.264869  
       7A    -11.261204     8A    -11.259545     9A    -11.258562  
      10A     -1.433015    11A     -1.232412    12A     -1.182513  
      13A     -1.063419    14A     -1.039942    15A     -0.898838  
      16A     -0.859235    17A     -0.793921    18A     -0.718018  
      19A     -0.691175    20A     -0.675869    21A     -0.628999  
      22A     -0.614658    23A     -0.592229    24A     -0.566872  
      25A     -0.547171    26A     -0.538131    27A     -0.522298  
      28A     -0.473587    29A     -0.472042    30A     -0.363658  
      31A     -0.337545  

    Virtual:                                                              

      32A      0.085756    33A      0.132542    34A      0.200313  
      35A      0.220282    36A      0.225916    37A      0.274088  
      38A      0.280447    39A      0.290826    40A      0.330339  
      41A      0.369285    42A      0.378529    43A      0.437633  
      44A      0.455208    45A      0.468660    46A      0.485828  
      47A      0.570766    48A      0.598714    49A      0.633631  
      50A      0.700305    51A      0.713991    52A      0.717189  
      53A      0.757324    54A      0.782776    55A      0.793266  
      56A      0.803104    57A      0.804023    58A      0.827391  
      59A      0.852285    60A      0.856731    61A      0.870992  
      62A      0.884262    63A      0.887598    64A      0.937567  
      65A      0.955046    66A      0.993281    67A      0.996673  
      68A      1.064712    69A      1.090037    70A      1.103507  
      71A      1.104235    72A      1.122996    73A      1.126890  
      74A      1.138662    75A      1.169695    76A      1.188555  
      77A      1.220814    78A      1.232548    79A      1.262174  
      80A      1.331355    81A      1.376312    82A      1.391971  
      83A      1.437744    84A      1.450177    85A      1.465310  
      86A      1.518128    87A      1.559033    88A      1.587426  
      89A      1.610026    90A      1.634439    91A      1.688037  
      92A      1.701496    93A      1.730378    94A      1.733407  
      95A      1.799781    96A      1.807020    97A      1.844982  
      98A      1.983265    99A      2.024173   100A      2.062268  
     101A      2.079603   102A      2.102673   103A      2.110557  
     104A      2.154388   105A      2.227313   106A      2.241781  
     107A      2.261979   108A      2.285182   109A      2.292205  
     110A      2.295554   111A      2.330004   112A      2.388332  
     113A      2.423005   114A      2.440275   115A      2.454464  
     116A      2.537166   117A      2.585690   118A      2.614096  
     119A      2.623418   120A      2.754230   121A      2.824848  
     122A      2.843178   123A      2.868045   124A      2.928901  
     125A      2.994052   126A      3.004511   127A      3.023802  
     128A      3.097886   129A      3.138707   130A      3.168867  
     131A      3.209237   132A      3.280558   133A      3.382019  
     134A      3.562889   135A      3.674680   136A      3.870770  
     137A      4.348308   138A      4.465621   139A      4.506274  
     140A      4.559793   141A      4.613368   142A      4.720944  
     143A      4.828451   144A      4.970596   145A      5.257817  

    Final Occupation by Irrep:
              A 
    DOCC [    31 ]

  Energy converged.

  @DF-RHF Final Energy:  -397.28898568451979

   => Energetics <=

    Nuclear Repulsion Energy =            379.3282676674745630
    One-Electron Energy =               -1290.4872676025684086
    Two-Electron Energy =                 513.8700142505756503
    DFT Exchange-Correlation Energy =       0.0000000000000000
    Empirical Dispersion Energy =           0.0000000000000000
    PCM Polarization Energy =               0.0000000000000000
    EFP Energy =                            0.0000000000000000
    Total Energy =                       -397.2889856845181384

    Alert: EFP and PCM quantities not currently incorporated into SCF psivars.

Properties will be evaluated at   0.000000,   0.000000,   0.000000 Bohr
  ==> Properties <==


Properties computed using the SCF density matrix

  Nuclear Dipole Moment: (a.u.)
     X:     2.1403      Y:    -5.5434      Z:     0.8505

  Electronic Dipole Moment: (a.u.)
     X:    -1.4439      Y:     3.3463      Z:    -0.5865

  Dipole Moment: (a.u.)
     X:     0.6964      Y:    -2.1971      Z:     0.2640     Total:     2.3199

  Dipole Moment: (Debye)
     X:     1.7701      Y:    -5.5846      Z:     0.6709     Total:     5.8967


  Saving occupied orbitals to File 180.

*** tstop() called on cx1-3-4-4.cx1.hpc.ic.ac.uk at Tue Jul  5 16:54:37 2016
Module time:
	user time   =      14.04 seconds =       0.23 minutes
	system time =       0.08 seconds =       0.00 minutes
	total time  =         14 seconds =       0.23 minutes
Total time:
	user time   =      14.04 seconds =       0.23 minutes
	system time =       0.08 seconds =       0.00 minutes
	total time  =         14 seconds =       0.23 minutes


Properties will be evaluated at   0.000000,   0.000000,   0.000000 Bohr

Properties computed using the  density matrix

  Nuclear Dipole Moment: (a.u.)
     X:     2.1403      Y:    -5.5434      Z:     0.8505

  Electronic Dipole Moment: (a.u.)
     X:    -1.4439      Y:     3.3463      Z:    -0.5865

  Dipole Moment: (a.u.)
     X:     0.6964      Y:    -2.1971      Z:     0.2640     Total:     2.3199

  Dipole Moment: (Debye)
     X:     1.7701      Y:    -5.5846      Z:     0.6709     Total:     5.8967

  Quadrupole Moment: (Debye Ang)
    XX:   -48.8409     YY:   -56.9745     ZZ:   -54.2012
    XY:    -0.2420     XZ:     1.0668     YZ:     1.3796

  Traceless Quadrupole Moment: (Debye Ang)
    XX:     4.4980     YY:    -3.6356     ZZ:    -0.8623
    XY:    -0.2420     XZ:     1.0668     YZ:     1.3796

  Mulliken Charges: (a.u.)
   Center  Symbol    Alpha    Beta     Spin     Total
       1     H     0.26692  0.26692  0.00000  0.46615
       2     O     4.37907  4.37907  0.00000 -0.75814
       3     C     2.78298  2.78298  0.00000  0.43404
       4     C     3.13897  3.13897  0.00000 -0.27794
       5     C     3.11587  3.11587  0.00000 -0.23173
       6     H     0.39660  0.39660  0.00000  0.20680
       7     C     3.09483  3.09483  0.00000 -0.18966
       8     H     0.37402  0.37402  0.00000  0.25196
       9     C     2.99089  2.99089  0.00000  0.01822
      10     H     0.38938  0.38938  0.00000  0.22125
      11     C     3.09958  3.09958  0.00000 -0.19917
      12     C     2.86528  2.86528  0.00000  0.26944
      13     H     0.38122  0.38122  0.00000  0.23755
      14     N     3.72439  3.72439  0.00000 -0.44877

   Total alpha = 31.00000, Total beta = 31.00000, Total charge =  0.00000


*** PSI4 exiting successfully. Buy a developer a beer!
