    -----------------------------------------------------------------------
          Psi4: An Open-Source Ab Initio Electronic Structure Package
                              Psi4 (no tag) Driver

                          Git: Rev {detached?}  

    J. M. Turney, A. C. Simmonett, R. M. Parrish, E. G. Hohenstein,
    F. A. Evangelista, J. T. Fermann, B. J. Mintz, L. A. Burns, J. J. Wilke,
    M. L. Abrams, N. J. Russ, M. L. Leininger, C. L. Janssen, E. T. Seidl,
    W. D. Allen, H. F. Schaefer, R. A. King, E. F. Valeev, C. D. Sherrill,
    and T. D. Crawford, WIREs Comput. Mol. Sci. 2, 556-565 (2012)
    (doi: 10.1002/wcms.93)

                         Additional Contributions by
    A. E. DePrince, M. Saitow, U. Bozkaya, A. Yu. Sokolov
    -----------------------------------------------------------------------


    Psi4 started on: Tue Jul  5 17:47:22 2016

    Process ID:  28013
    PSI4DATADIR: /export131/home/mjharvey/miniconda3/share
    Memory level set to 256.000 MB

  ==> Input File <==

--------------------------------------------------------------------------
set {
	reference rhf
	basis 6-31G*
}


set_num_threads( 1 )
memory 2 gb

molecule MOL {
0 1

H	 -3.489899	 1.228218	 -1.029938
O	 -3.452007	 0.283848	 -0.965577
C	 -3.181085	 -0.079926	 0.364119
C	 -1.765924	 0.277073	 0.805136
H	 -3.327791	 -1.152017	 0.410903
H	 -3.905698	 0.375695	 1.036898
C	 -1.689583	 0.816496	 2.234022
H	 -1.131907	 -0.605039	 0.710993
H	 -1.366067	 1.012947	 0.109561
C	 -2.358141	 2.183196	 2.396313
H	 -0.648702	 0.879421	 2.536211
H	 -2.160179	 0.102437	 2.907856
C	 -3.752138	 2.240341	 1.765763
H	 -2.419150	 2.423518	 3.455058
H	 -1.729443	 2.949781	 1.944992
C	 -3.769776	 2.129375	 0.236864
H	 -4.243906	 3.165073	 2.063638
H	 -4.353317	 1.432118	 2.177072
C	 -5.157224	 1.908846	 -0.368744
H	 -3.126982	 1.302610	 -0.055653
H	 -3.325947	 3.024773	 -0.193811
H	 -5.630990	 1.026302	 0.052920
H	 -5.090616	 1.765450	 -1.442912
H	 -5.815844	 2.753202	 -0.194252

	symmetry c1
}
set optking {
	frozen_dihedral = ("
		20 16 13 17,
		17 13 10 7,
		13 10 7 11,
		11 7 4 3,
		1 2 3 5
	")
}

ee = energy('scf')
oeprop('DIPOLE', 'QUADRUPOLE', 'MULLIKEN_CHARGES')
f=open( 'psi4out.xyz', 'w' )
f.write( "24  " )
f.write( str(ee) + "\n" )
f.write( MOL.save_string_xyz() )
f.close()
--------------------------------------------------------------------------

  Memory set to   2.000 GiB by Python script.

*** tstart() called on cx1-1-3-2.cx1.hpc.ic.ac.uk
*** at Tue Jul  5 17:47:22 2016


         ---------------------------------------------------------
                                   SCF
            by Justin Turney, Rob Parrish, and Andy Simmonett
                              RHF Reference
                        1 Threads,   2000 MiB Core
         ---------------------------------------------------------

  ==> Geometry <==

    Molecular point group: c1
    Full point group: C1

    Geometry (in Angstrom), charge = 0, multiplicity = 1:

       Center              X                  Y                   Z               Mass       
    ------------   -----------------  -----------------  -----------------  -----------------
           H         -0.325309291759     0.021716377204    -1.790876544621     1.007825032070
           O         -0.287417291759    -0.922653622796    -1.726515544621    15.994914619560
           C         -0.016495291759    -1.286427622796    -0.396819544621    12.000000000000
           C          1.398665708241    -0.929428622796     0.044197455379    12.000000000000
           H         -0.163201291759    -2.358518622796    -0.350035544621     1.007825032070
           H         -0.741108291759    -0.830806622796     0.275959455379     1.007825032070
           C          1.475006708241    -0.390005622796     1.473083455379    12.000000000000
           H          2.032682708241    -1.811540622796    -0.049945544621     1.007825032070
           H          1.798522708241    -0.193554622796    -0.651377544621     1.007825032070
           C          0.806448708241     0.976694377204     1.635374455379    12.000000000000
           H          2.515887708241    -0.327080622796     1.775272455379     1.007825032070
           H          1.004410708241    -1.104064622796     2.146917455379     1.007825032070
           C         -0.587548291759     1.033839377204     1.004824455379    12.000000000000
           H          0.745439708241     1.217016377204     2.694119455379     1.007825032070
           H          1.435146708241     1.743279377204     1.184053455379     1.007825032070
           C         -0.605186291759     0.922873377204    -0.524074544621    12.000000000000
           H         -1.079316291759     1.958571377204     1.302699455379     1.007825032070
           H         -1.188727291759     0.225616377204     1.416133455379     1.007825032070
           C         -1.992634291759     0.702344377204    -1.129682544621    12.000000000000
           H          0.037607708241     0.096108377204    -0.816591544621     1.007825032070
           H         -0.161357291759     1.818271377204    -0.954749544621     1.007825032070
           H         -2.466400291759    -0.180199622796    -0.708018544621     1.007825032070
           H         -1.926026291759     0.558948377204    -2.203850544621     1.007825032070
           H         -2.651254291759     1.546700377204    -0.955190544621     1.007825032070

  Running in c1 symmetry.

  Rotational constants: A =      0.09203  B =      0.06109  C =      0.04108 [cm^-1]
  Rotational constants: A =   2758.90354  B =   1831.43959  C =   1231.45692 [MHz]
  Nuclear repulsion =  445.915641998592037

  Charge       = 0
  Multiplicity = 1
  Electrons    = 66
  Nalpha       = 33
  Nbeta        = 33

  ==> Algorithm <==

  SCF Algorithm Type is DF.
  DIIS enabled.
  MOM disabled.
  Fractional occupation disabled.
  Guess Type is CORE.
  Energy threshold   = 1.00e-06
  Density threshold  = 1.00e-06
  Integral threshold = 0.00e+00

  ==> Primary Basis <==

  Basis Set: 6-31G*
    Number of shells: 80
    Number of basis function: 152
    Number of Cartesian functions: 152
    Spherical Harmonics?: false
    Max angular momentum: 2

  ==> Pre-Iterations <==

   -------------------------------------------------------
    Irrep   Nso     Nmo     Nalpha   Nbeta   Ndocc  Nsocc
   -------------------------------------------------------
     A        152     152       0       0       0       0
   -------------------------------------------------------
    Total     152     152      33      33      33       0
   -------------------------------------------------------

 OEINTS: Overlap, kinetic, potential, dipole, and quadrupole integrals
         stored in file 35.

  ==> Integral Setup <==

  ==> DFJK: Density-Fitted J/K Matrices <==

    J tasked:                  Yes
    K tasked:                  Yes
    wK tasked:                  No
    OpenMP threads:              1
    Integrals threads:           1
    Memory (MB):              1430
    Algorithm:                Core
    Integral Cache:           NONE
    Schwarz Cutoff:          1E-12
    Fitting Condition:       1E-12

   => Auxiliary Basis Set <=

  Basis Set: 
    Number of shells: 336
    Number of basis function: 1048
    Number of Cartesian functions: 1048
    Spherical Harmonics?: false
    Max angular momentum: 3

  Minimum eigenvalue in the overlap matrix is 2.8334685658E-03.
  Using Symmetric Orthogonalization.
  SCF Guess: Core (One-Electron) Hamiltonian.

  ==> Iterations <==

                           Total Energy        Delta E     RMS |[F,P]|

   @DF-RHF iter   1:  -268.68521382826816   -2.68685e+02   6.44488e-02 
   @DF-RHF iter   2:  -244.62242183486342    2.40628e+01   4.96313e-02 DIIS
   @DF-RHF iter   3:  -277.38153916353644   -3.27591e+01   6.25433e-02 DIIS
   @DF-RHF iter   4:  -339.00954044912135   -6.16280e+01   2.28049e-02 DIIS
   @DF-RHF iter   5:  -347.42619356843238   -8.41665e+00   1.07497e-02 DIIS
   @DF-RHF iter   6:  -348.92199140491175   -1.49580e+00   2.65383e-03 DIIS
   @DF-RHF iter   7:  -349.01076632122283   -8.87749e-02   6.43838e-04 DIIS
   @DF-RHF iter   8:  -349.01645075901638   -5.68444e-03   2.60629e-04 DIIS
   @DF-RHF iter   9:  -349.01733359019011   -8.82831e-04   8.49109e-05 DIIS
   @DF-RHF iter  10:  -349.01743732543923   -1.03735e-04   3.25790e-05 DIIS
   @DF-RHF iter  11:  -349.01745092490000   -1.35995e-05   7.85547e-06 DIIS
   @DF-RHF iter  12:  -349.01745189480130   -9.69901e-07   1.91029e-06 DIIS
   @DF-RHF iter  13:  -349.01745198112735   -8.63261e-08   6.56216e-07 DIIS

  ==> Post-Iterations <==

    Orbital Energies (a.u.)
    -----------------------

    Doubly Occupied:                                                      

       1A    -20.532696     2A    -11.263452     3A    -11.221627  
       4A    -11.220062     5A    -11.219553     6A    -11.218094  
       7A    -11.211672     8A    -11.194991     9A     -1.409995  
      10A     -1.111826    11A     -1.055060    12A     -0.994749  
      13A     -0.942452    14A     -0.873840    15A     -0.821381  
      16A     -0.795054    17A     -0.737856    18A     -0.664920  
      19A     -0.632328    20A     -0.621694    21A     -0.594992  
      22A     -0.575924    23A     -0.565715    24A     -0.545540  
      25A     -0.531406    26A     -0.517570    27A     -0.508042  
      28A     -0.483066    29A     -0.466883    30A     -0.465740  
      31A     -0.439077    32A     -0.419959    33A     -0.402963  

    Virtual:                                                              

      34A      0.229160    35A      0.244528    36A      0.253717  
      37A      0.265874    38A      0.278491    39A      0.303380  
      40A      0.305617    41A      0.311810    42A      0.314603  
      43A      0.326631    44A      0.337178    45A      0.349765  
      46A      0.363771    47A      0.369860    48A      0.379042  
      49A      0.397817    50A      0.422243    51A      0.432112  
      52A      0.439993    53A      0.462283    54A      0.488183  
      55A      0.509728    56A      0.550709    57A      0.698472  
      58A      0.719459    59A      0.732959    60A      0.761172  
      61A      0.778610    62A      0.794092    63A      0.828687  
      64A      0.839120    65A      0.872221    66A      0.903672  
      67A      0.915398    68A      0.938964    69A      0.966236  
      70A      0.988505    71A      1.006205    72A      1.019852  
      73A      1.040034    74A      1.085142    75A      1.091244  
      76A      1.126736    77A      1.137779    78A      1.143479  
      79A      1.150995    80A      1.155417    81A      1.178996  
      82A      1.188842    83A      1.190221    84A      1.201318  
      85A      1.217194    86A      1.225470    87A      1.235298  
      88A      1.243816    89A      1.259127    90A      1.273984  
      91A      1.307120    92A      1.329183    93A      1.366295  
      94A      1.399003    95A      1.421512    96A      1.487702  
      97A      1.498383    98A      1.573172    99A      1.633948  
     100A      1.683760   101A      1.720064   102A      1.744970  
     103A      1.834534   104A      1.872301   105A      1.895090  
     106A      1.953342   107A      2.008215   108A      2.038083  
     109A      2.060670   110A      2.098419   111A      2.135604  
     112A      2.182008   113A      2.212528   114A      2.247706  
     115A      2.251434   116A      2.283641   117A      2.290201  
     118A      2.317078   119A      2.323787   120A      2.346817  
     121A      2.393403   122A      2.420698   123A      2.430869  
     124A      2.499297   125A      2.562310   126A      2.603868  
     127A      2.622564   128A      2.647162   129A      2.652338  
     130A      2.711459   131A      2.736749   132A      2.744382  
     133A      2.776441   134A      2.803445   135A      2.835747  
     136A      2.858899   137A      2.934133   138A      2.963890  
     139A      3.012418   140A      3.057949   141A      3.089189  
     142A      3.113504   143A      3.141315   144A      3.285338  
     145A      4.390263   146A      4.570728   147A      4.680264  
     148A      4.764504   149A      4.830444   150A      4.970298  
     151A      5.034110   152A      5.062866  

    Final Occupation by Irrep:
              A 
    DOCC [    33 ]

  Energy converged.

  @DF-RHF Final Energy:  -349.01745198112735

   => Energetics <=

    Nuclear Repulsion Energy =            445.9156419985920365
    One-Electron Energy =               -1357.3455020720789435
    Two-Electron Energy =                 562.4124080923592146
    DFT Exchange-Correlation Energy =       0.0000000000000000
    Empirical Dispersion Energy =           0.0000000000000000
    PCM Polarization Energy =               0.0000000000000000
    EFP Energy =                            0.0000000000000000
    Total Energy =                       -349.0174519811276923

    Alert: EFP and PCM quantities not currently incorporated into SCF psivars.

Properties will be evaluated at   0.000000,   0.000000,   0.000000 Bohr
  ==> Properties <==


Properties computed using the SCF density matrix

  Nuclear Dipole Moment: (a.u.)
     X:    -1.0635      Y:     2.2272      Z:     2.1615

  Electronic Dipole Moment: (a.u.)
     X:     1.2411      Y:    -1.8918      Z:    -1.5675

  Dipole Moment: (a.u.)
     X:     0.1775      Y:     0.3353      Z:     0.5939     Total:     0.7048

  Dipole Moment: (Debye)
     X:     0.4512      Y:     0.8524      Z:     1.5097     Total:     1.7914


  Saving occupied orbitals to File 180.

*** tstop() called on cx1-1-3-2.cx1.hpc.ic.ac.uk at Tue Jul  5 17:47:44 2016
Module time:
	user time   =      20.87 seconds =       0.35 minutes
	system time =       0.22 seconds =       0.00 minutes
	total time  =         22 seconds =       0.37 minutes
Total time:
	user time   =      20.87 seconds =       0.35 minutes
	system time =       0.22 seconds =       0.00 minutes
	total time  =         22 seconds =       0.37 minutes


Properties will be evaluated at   0.000000,   0.000000,   0.000000 Bohr

Properties computed using the  density matrix

  Nuclear Dipole Moment: (a.u.)
     X:    -1.0635      Y:     2.2272      Z:     2.1615

  Electronic Dipole Moment: (a.u.)
     X:     1.2411      Y:    -1.8918      Z:    -1.5675

  Dipole Moment: (a.u.)
     X:     0.1775      Y:     0.3353      Z:     0.5939     Total:     0.7048

  Dipole Moment: (Debye)
     X:     0.4512      Y:     0.8524      Z:     1.5097     Total:     1.7914

  Quadrupole Moment: (Debye Ang)
    XX:   -53.5927     YY:   -54.1775     ZZ:   -56.8467
    XY:    -0.4583     XZ:    -0.4919     YZ:    -4.3064

  Traceless Quadrupole Moment: (Debye Ang)
    XX:     1.2796     YY:     0.6948     ZZ:    -1.9744
    XY:    -0.4583     XZ:    -0.4919     YZ:    -4.3064

  Mulliken Charges: (a.u.)
   Center  Symbol    Alpha    Beta     Spin     Total
       1     H     0.24516  0.24516  0.00000  0.50969
       2     O     4.38718  4.38718  0.00000 -0.77437
       3     C     3.04343  3.04343  0.00000 -0.08685
       4     C     3.17419  3.17419  0.00000 -0.34838
       5     H     0.40305  0.40305  0.00000  0.19390
       6     H     0.41116  0.41116  0.00000  0.17767
       7     C     3.15960  3.15960  0.00000 -0.31919
       8     H     0.41004  0.41004  0.00000  0.17993
       9     H     0.40717  0.40717  0.00000  0.18565
      10     C     3.14938  3.14938  0.00000 -0.29877
      11     H     0.41592  0.41592  0.00000  0.16817
      12     H     0.42171  0.42171  0.00000  0.15658
      13     C     3.16220  3.16220  0.00000 -0.32440
      14     H     0.41680  0.41680  0.00000  0.16640
      15     H     0.42147  0.42147  0.00000  0.15705
      16     C     3.24571  3.24571  0.00000 -0.49142
      17     H     0.41696  0.41696  0.00000  0.16609
      18     H     0.41603  0.41603  0.00000  0.16793
      19     C     3.23924  3.23924  0.00000 -0.47847
      20     H     0.39661  0.39661  0.00000  0.20679
      21     H     0.41741  0.41741  0.00000  0.16518
      22     H     0.41241  0.41241  0.00000  0.17519
      23     H     0.40886  0.40886  0.00000  0.18228
      24     H     0.41832  0.41832  0.00000  0.16336

   Total alpha = 33.00000, Total beta = 33.00000, Total charge =  0.00000


*** PSI4 exiting successfully. Buy a developer a beer!
