    -----------------------------------------------------------------------
          Psi4: An Open-Source Ab Initio Electronic Structure Package
                              Psi4 (no tag) Driver

                          Git: Rev {detached?}  

    J. M. Turney, A. C. Simmonett, R. M. Parrish, E. G. Hohenstein,
    F. A. Evangelista, J. T. Fermann, B. J. Mintz, L. A. Burns, J. J. Wilke,
    M. L. Abrams, N. J. Russ, M. L. Leininger, C. L. Janssen, E. T. Seidl,
    W. D. Allen, H. F. Schaefer, R. A. King, E. F. Valeev, C. D. Sherrill,
    and T. D. Crawford, WIREs Comput. Mol. Sci. 2, 556-565 (2012)
    (doi: 10.1002/wcms.93)

                         Additional Contributions by
    A. E. DePrince, M. Saitow, U. Bozkaya, A. Yu. Sokolov
    -----------------------------------------------------------------------


    Psi4 started on: Tue Jul  5 16:35:49 2016

    Process ID:  18405
    PSI4DATADIR: /export131/home/mjharvey/miniconda3/share
    Memory level set to 256.000 MB

  ==> Input File <==

--------------------------------------------------------------------------
set {
	reference rhf
	basis 6-31G*
}


set_num_threads( 1 )
memory 2 gb

molecule MOL {
0 1

H	 -2.098997	 -0.674324	 -0.616650
O	 -2.035884	 -0.060112	 0.102722
C	 -0.955155	 0.788182	 -0.092531
C	 0.353668	 0.040312	 -0.004810
H	 -0.985057	 1.290372	 -1.054184
H	 -0.974469	 1.533190	 0.688632
F	 0.221056	 -1.191729	 -0.483414
F	 1.284514	 0.651045	 -0.720163
F	 0.794869	 -0.061230	 1.232356

	symmetry c1
}
set optking {
	frozen_dihedral = ("
		1 2 3 5
	")
}

ee = energy('scf')
oeprop('DIPOLE', 'QUADRUPOLE', 'MULLIKEN_CHARGES')
f=open( 'psi4out.xyz', 'w' )
f.write( "9  " )
f.write( str(ee) + "\n" )
f.write( MOL.save_string_xyz() )
f.close()
--------------------------------------------------------------------------

  Memory set to   2.000 GiB by Python script.

*** tstart() called on cx1-3-2-1.cx1.hpc.ic.ac.uk
*** at Tue Jul  5 16:35:50 2016


         ---------------------------------------------------------
                                   SCF
            by Justin Turney, Rob Parrish, and Andy Simmonett
                              RHF Reference
                        1 Threads,   2000 MiB Core
         ---------------------------------------------------------

  ==> Geometry <==

    Molecular point group: c1
    Full point group: C1

    Geometry (in Angstrom), charge = 0, multiplicity = 1:

       Center              X                  Y                   Z               Mass       
    ------------   -----------------  -----------------  -----------------  -----------------
           H         -2.097324746279    -0.671435319548    -0.616968005791     1.007825032070
           O         -2.034211746279    -0.057223319548     0.102403994209    15.994914619560
           C         -0.953482746279     0.791070680452    -0.092849005791    12.000000000000
           C          0.355340253721     0.043200680452    -0.005128005791    12.000000000000
           H         -0.983384746279     1.293260680452    -1.054502005791     1.007825032070
           H         -0.972796746279     1.536078680452     0.688313994209     1.007825032070
           F          0.222728253721    -1.188840319548    -0.483732005791    18.998403224000
           F          1.286186253721     0.653933680452    -0.720481005791    18.998403224000
           F          0.796541253721    -0.058341319548     1.232037994209    18.998403224000

  Running in c1 symmetry.

  Rotational constants: A =      0.18229  B =      0.09644  C =      0.09546 [cm^-1]
  Rotational constants: A =   5465.04449  B =   2891.13109  C =   2861.68824 [MHz]
  Nuclear repulsion =  277.326843394054777

  Charge       = 0
  Multiplicity = 1
  Electrons    = 50
  Nalpha       = 25
  Nbeta        = 25

  ==> Algorithm <==

  SCF Algorithm Type is DF.
  DIIS enabled.
  MOM disabled.
  Fractional occupation disabled.
  Guess Type is CORE.
  Energy threshold   = 1.00e-06
  Density threshold  = 1.00e-06
  Integral threshold = 0.00e+00

  ==> Primary Basis <==

  Basis Set: 6-31G*
    Number of shells: 42
    Number of basis function: 96
    Number of Cartesian functions: 96
    Spherical Harmonics?: false
    Max angular momentum: 2

  ==> Pre-Iterations <==

   -------------------------------------------------------
    Irrep   Nso     Nmo     Nalpha   Nbeta   Ndocc  Nsocc
   -------------------------------------------------------
     A         96      96       0       0       0       0
   -------------------------------------------------------
    Total      96      96      25      25      25       0
   -------------------------------------------------------

 OEINTS: Overlap, kinetic, potential, dipole, and quadrupole integrals
         stored in file 35.

  ==> Integral Setup <==

  ==> DFJK: Density-Fitted J/K Matrices <==

    J tasked:                  Yes
    K tasked:                  Yes
    wK tasked:                  No
    OpenMP threads:              1
    Integrals threads:           1
    Memory (MB):              1430
    Algorithm:                Core
    Integral Cache:           NONE
    Schwarz Cutoff:          1E-12
    Fitting Condition:       1E-12

   => Auxiliary Basis Set <=

  Basis Set: 
    Number of shells: 171
    Number of basis function: 561
    Number of Cartesian functions: 561
    Spherical Harmonics?: false
    Max angular momentum: 3

  Minimum eigenvalue in the overlap matrix is 1.8472022944E-03.
  Using Symmetric Orthogonalization.
  SCF Guess: Core (One-Electron) Hamiltonian.

  ==> Iterations <==

                           Total Energy        Delta E     RMS |[F,P]|

   @DF-RHF iter   1:  -399.63846370988631   -3.99638e+02   9.02233e-02 
   @DF-RHF iter   2:  -272.32646940114182    1.27312e+02   9.68822e-02 DIIS
   @DF-RHF iter   3:  -397.04186385347055   -1.24715e+02   6.50525e-02 DIIS
   @DF-RHF iter   4:  -449.13933850888304   -5.20975e+01   1.98818e-02 DIIS
   @DF-RHF iter   5:  -450.44324835421128   -1.30391e+00   7.81470e-03 DIIS
   @DF-RHF iter   6:  -450.58549851218140   -1.42250e-01   4.05230e-03 DIIS
   @DF-RHF iter   7:  -450.65042168781633   -6.49232e-02   1.26518e-03 DIIS
   @DF-RHF iter   8:  -450.65922313749752   -8.80145e-03   3.02203e-04 DIIS
   @DF-RHF iter   9:  -450.65982474263615   -6.01605e-04   1.06943e-04 DIIS
   @DF-RHF iter  10:  -450.65987557698645   -5.08344e-05   3.65073e-05 DIIS
   @DF-RHF iter  11:  -450.65988600817752   -1.04312e-05   7.12012e-06 DIIS
   @DF-RHF iter  12:  -450.65988649659766   -4.88420e-07   2.04853e-06 DIIS
   @DF-RHF iter  13:  -450.65988652101203   -2.44144e-08   5.73432e-07 DIIS

  ==> Post-Iterations <==

    Orbital Energies (a.u.)
    -----------------------

    Doubly Occupied:                                                      

       1A    -26.343283     2A    -26.342875     3A    -26.340476  
       4A    -20.588391     5A    -11.500331     6A    -11.308461  
       7A     -1.740552     8A     -1.639023     9A     -1.637622  
      10A     -1.400868    11A     -1.048161    12A     -0.923255  
      13A     -0.830743    14A     -0.828944    15A     -0.807317  
      16A     -0.724659    17A     -0.711936    18A     -0.699439  
      19A     -0.664315    20A     -0.660207    21A     -0.642914  
      22A     -0.627539    23A     -0.612064    24A     -0.529480  
      25A     -0.479727  

    Virtual:                                                              

      26A      0.215993    27A      0.268379    28A      0.284872  
      29A      0.330402    30A      0.419126    31A      0.435425  
      32A      0.477074    33A      0.494207    34A      0.694892  
      35A      0.742067    36A      0.754708    37A      0.775182  
      38A      0.814593    39A      0.888471    40A      0.938513  
      41A      1.052150    42A      1.127463    43A      1.145377  
      44A      1.187114    45A      1.224351    46A      1.318412  
      47A      1.337444    48A      1.355509    49A      1.370854  
      50A      1.440311    51A      1.482469    52A      1.595385  
      53A      1.609085    54A      1.630933    55A      1.631727  
      56A      1.668830    57A      1.671536    58A      1.703338  
      59A      1.723608    60A      1.889478    61A      1.917124  
      62A      1.966382    63A      1.992032    64A      2.011168  
      65A      2.114066    66A      2.136271    67A      2.144181  
      68A      2.159391    69A      2.259254    70A      2.281124  
      71A      2.309763    72A      2.361566    73A      2.388071  
      74A      2.399917    75A      2.405155    76A      2.413699  
      77A      2.479529    78A      2.573443    79A      2.670788  
      80A      2.676463    81A      2.767623    82A      2.886839  
      83A      2.921955    84A      3.099636    85A      3.143639  
      86A      3.174676    87A      3.250351    88A      3.418281  
      89A      3.426182    90A      3.436025    91A      4.132354  
      92A      4.595667    93A      4.799704    94A      4.909877  
      95A      5.037602    96A      5.749188  

    Final Occupation by Irrep:
              A 
    DOCC [    25 ]

  Energy converged.

  @DF-RHF Final Energy:  -450.65988652101203

   => Energetics <=

    Nuclear Repulsion Energy =            277.3268433940547766
    One-Electron Energy =               -1176.7082393511786904
    Two-Electron Energy =                 448.7215094361113756
    DFT Exchange-Correlation Energy =       0.0000000000000000
    Empirical Dispersion Energy =           0.0000000000000000
    PCM Polarization Energy =               0.0000000000000000
    EFP Energy =                            0.0000000000000000
    Total Energy =                       -450.6598865210125382

    Alert: EFP and PCM quantities not currently incorporated into SCF psivars.

Properties will be evaluated at   0.000000,   0.000000,   0.000000 Bohr
  ==> Properties <==


Properties computed using the SCF density matrix

  Nuclear Dipole Moment: (a.u.)
     X:    -5.9847      Y:     2.5823      Z:    -0.9474

  Electronic Dipole Moment: (a.u.)
     X:     5.6815      Y:    -2.2375      Z:     0.3684

  Dipole Moment: (a.u.)
     X:    -0.3031      Y:     0.3449      Z:    -0.5790     Total:     0.7390

  Dipole Moment: (Debye)
     X:    -0.7705      Y:     0.8765      Z:    -1.4718     Total:     1.8783


  Saving occupied orbitals to File 180.

*** tstop() called on cx1-3-2-1.cx1.hpc.ic.ac.uk at Tue Jul  5 16:35:54 2016
Module time:
	user time   =       3.88 seconds =       0.06 minutes
	system time =       0.03 seconds =       0.00 minutes
	total time  =          4 seconds =       0.07 minutes
Total time:
	user time   =       3.88 seconds =       0.06 minutes
	system time =       0.03 seconds =       0.00 minutes
	total time  =          4 seconds =       0.07 minutes


Properties will be evaluated at   0.000000,   0.000000,   0.000000 Bohr

Properties computed using the  density matrix

  Nuclear Dipole Moment: (a.u.)
     X:    -5.9847      Y:     2.5823      Z:    -0.9474

  Electronic Dipole Moment: (a.u.)
     X:     5.6815      Y:    -2.2375      Z:     0.3684

  Dipole Moment: (a.u.)
     X:    -0.3031      Y:     0.3449      Z:    -0.5790     Total:     0.7390

  Dipole Moment: (Debye)
     X:    -0.7705      Y:     0.8765      Z:    -1.4718     Total:     1.8783

  Quadrupole Moment: (Debye Ang)
    XX:   -35.6716     YY:   -30.6683     ZZ:   -32.1263
    XY:     0.3615     XZ:     3.3978     YZ:     1.1653

  Traceless Quadrupole Moment: (Debye Ang)
    XX:    -2.8495     YY:     2.1538     ZZ:     0.6957
    XY:     0.3615     XZ:     3.3978     YZ:     1.1653

  Mulliken Charges: (a.u.)
   Center  Symbol    Alpha    Beta     Spin     Total
       1     H     0.27212  0.27212  0.00000  0.45576
       2     O     4.36096  4.36096  0.00000 -0.72192
       3     C     3.06564  3.06564  0.00000 -0.13128
       4     C     2.45376  2.45376  0.00000  1.09248
       5     H     0.40821  0.40821  0.00000  0.18359
       6     H     0.39338  0.39338  0.00000  0.21324
       7     F     4.68651  4.68651  0.00000 -0.37301
       8     F     4.68299  4.68299  0.00000 -0.36597
       9     F     4.67644  4.67644  0.00000 -0.35288

   Total alpha = 25.00000, Total beta = 25.00000, Total charge =  0.00000


*** PSI4 exiting successfully. Buy a developer a beer!
