    -----------------------------------------------------------------------
          Psi4: An Open-Source Ab Initio Electronic Structure Package
                              Psi4 (no tag) Driver

                          Git: Rev {detached?}  

    J. M. Turney, A. C. Simmonett, R. M. Parrish, E. G. Hohenstein,
    F. A. Evangelista, J. T. Fermann, B. J. Mintz, L. A. Burns, J. J. Wilke,
    M. L. Abrams, N. J. Russ, M. L. Leininger, C. L. Janssen, E. T. Seidl,
    W. D. Allen, H. F. Schaefer, R. A. King, E. F. Valeev, C. D. Sherrill,
    and T. D. Crawford, WIREs Comput. Mol. Sci. 2, 556-565 (2012)
    (doi: 10.1002/wcms.93)

                         Additional Contributions by
    A. E. DePrince, M. Saitow, U. Bozkaya, A. Yu. Sokolov
    -----------------------------------------------------------------------


    Psi4 started on: Tue Jul  5 16:33:25 2016

    Process ID:   4760
    PSI4DATADIR: /export131/home/mjharvey/miniconda3/share
    Memory level set to 256.000 MB

  ==> Input File <==

--------------------------------------------------------------------------
set {
	reference rhf
	basis 6-31G*
}


set_num_threads( 1 )
memory 2 gb

molecule MOL {
0 1

H	 -1.836216	 1.387520	 -0.000064
C	 -1.301823	 0.443321	 -0.000031
O	 -0.003969	 0.658512	 0.000451
O	 -1.829879	 -0.616434	 -0.000857
C	 0.539226	 1.390376	 1.098859
C	 0.043682	 2.815716	 0.984136
H	 1.618278	 1.335354	 1.054837
H	 0.217634	 0.925941	 2.020908
H	 0.368417	 3.262140	 0.051245
H	 0.435830	 3.408761	 1.803741
H	 -1.039007	 2.850915	 1.021973

	symmetry c1
}
set optking {
	frozen_dihedral = ("
		7 5 3 2
	")
}

ee = energy('scf')
oeprop('DIPOLE', 'QUADRUPOLE', 'MULLIKEN_CHARGES')
f=open( 'psi4out.xyz', 'w' )
f.write( "11  " )
f.write( str(ee) + "\n" )
f.write( MOL.save_string_xyz() )
f.close()
--------------------------------------------------------------------------

  Memory set to   2.000 GiB by Python script.

*** tstart() called on cx1-3-6-1.cx1.hpc.ic.ac.uk
*** at Tue Jul  5 16:33:25 2016


         ---------------------------------------------------------
                                   SCF
            by Justin Turney, Rob Parrish, and Andy Simmonett
                              RHF Reference
                        1 Threads,   2000 MiB Core
         ---------------------------------------------------------

  ==> Geometry <==

    Molecular point group: c1
    Full point group: C1

    Geometry (in Angstrom), charge = 0, multiplicity = 1:

       Center              X                  Y                   Z               Mass       
    ------------   -----------------  -----------------  -----------------  -----------------
           H         -1.320308556945     0.445560042222    -0.418616696396     1.007825032070
           C         -0.785915556945    -0.498638957778    -0.418583696396    12.000000000000
           O          0.511938443055    -0.283447957778    -0.418101696396    15.994914619560
           O         -1.313971556945    -1.558393957778    -0.419409696396    15.994914619560
           C          1.055133443055     0.448416042222     0.680306303604    12.000000000000
           C          0.559589443055     1.873756042222     0.565583303604    12.000000000000
           H          2.134185443055     0.393394042222     0.636284303604     1.007825032070
           H          0.733541443055    -0.016018957778     1.602355303604     1.007825032070
           H          0.884324443055     2.320180042222    -0.367307696396     1.007825032070
           H          0.951737443055     2.466801042222     1.385188303604     1.007825032070
           H         -0.523099556945     1.908955042222     0.603420303604     1.007825032070

  Running in c1 symmetry.

  Rotational constants: A =      0.51199  B =      0.10089  C =      0.09246 [cm^-1]
  Rotational constants: A =  15348.94875  B =   3024.69620  C =   2772.02445 [MHz]
  Nuclear repulsion =  179.879126754304963

  Charge       = 0
  Multiplicity = 1
  Electrons    = 40
  Nalpha       = 20
  Nbeta        = 20

  ==> Algorithm <==

  SCF Algorithm Type is DF.
  DIIS enabled.
  MOM disabled.
  Fractional occupation disabled.
  Guess Type is CORE.
  Energy threshold   = 1.00e-06
  Density threshold  = 1.00e-06
  Integral threshold = 0.00e+00

  ==> Primary Basis <==

  Basis Set: 6-31G*
    Number of shells: 42
    Number of basis function: 87
    Number of Cartesian functions: 87
    Spherical Harmonics?: false
    Max angular momentum: 2

  ==> Pre-Iterations <==

   -------------------------------------------------------
    Irrep   Nso     Nmo     Nalpha   Nbeta   Ndocc  Nsocc
   -------------------------------------------------------
     A         87      87       0       0       0       0
   -------------------------------------------------------
    Total      87      87      20      20      20       0
   -------------------------------------------------------

 OEINTS: Overlap, kinetic, potential, dipole, and quadrupole integrals
         stored in file 35.

  ==> Integral Setup <==

  ==> DFJK: Density-Fitted J/K Matrices <==

    J tasked:                  Yes
    K tasked:                  Yes
    wK tasked:                  No
    OpenMP threads:              1
    Integrals threads:           1
    Memory (MB):              1430
    Algorithm:                Core
    Integral Cache:           NONE
    Schwarz Cutoff:          1E-12
    Fitting Condition:       1E-12

   => Auxiliary Basis Set <=

  Basis Set: 
    Number of shells: 174
    Number of basis function: 555
    Number of Cartesian functions: 555
    Spherical Harmonics?: false
    Max angular momentum: 3

  Minimum eigenvalue in the overlap matrix is 4.8850118396E-03.
  Using Symmetric Orthogonalization.
  SCF Guess: Core (One-Electron) Hamiltonian.

  ==> Iterations <==

                           Total Energy        Delta E     RMS |[F,P]|

   @DF-RHF iter   1:  -216.81933113844016   -2.16819e+02   8.29107e-02 
   @DF-RHF iter   2:  -159.78742568553307    5.70319e+01   9.20406e-02 DIIS
   @DF-RHF iter   3:  -249.81185511234295   -9.00244e+01   4.01687e-02 DIIS
   @DF-RHF iter   4:  -237.71524047321108    1.20966e+01   5.98409e-02 DIIS
   @DF-RHF iter   5:  -266.32285823391192   -2.86076e+01   1.15616e-02 DIIS
   @DF-RHF iter   6:  -266.56064827815783   -2.37790e-01   8.88645e-03 DIIS
   @DF-RHF iter   7:  -266.78542693538452   -2.24779e-01   1.76079e-03 DIIS
   @DF-RHF iter   8:  -266.80086105371151   -1.54341e-02   6.27141e-04 DIIS
   @DF-RHF iter   9:  -266.80284686179584   -1.98581e-03   1.77756e-04 DIIS
   @DF-RHF iter  10:  -266.80306727912250   -2.20417e-04   3.66538e-05 DIIS
   @DF-RHF iter  11:  -266.80307732221638   -1.00431e-05   1.30161e-05 DIIS
   @DF-RHF iter  12:  -266.80307858807976   -1.26586e-06   4.26570e-06 DIIS
   @DF-RHF iter  13:  -266.80307875522726   -1.67148e-07   1.84224e-06 DIIS
   @DF-RHF iter  14:  -266.80307878632527   -3.10980e-08   6.77520e-07 DIIS

  ==> Post-Iterations <==

    Orbital Energies (a.u.)
    -----------------------

    Doubly Occupied:                                                      

       1A    -20.597708     2A    -20.564576     3A    -11.378411  
       4A    -11.308891     5A    -11.237494     6A     -1.470324  
       7A     -1.378991     8A     -1.055386     9A     -0.917416  
      10A     -0.816171    11A     -0.744497    12A     -0.690240  
      13A     -0.666064    14A     -0.615379    15A     -0.595600  
      16A     -0.566175    17A     -0.532331    18A     -0.497935  
      19A     -0.463926    20A     -0.447931  

    Virtual:                                                              

      21A      0.166530    22A      0.236811    23A      0.256505  
      24A      0.279048    25A      0.300804    26A      0.310108  
      27A      0.328797    28A      0.365339    29A      0.390917  
      30A      0.473147    31A      0.529612    32A      0.686092  
      33A      0.709110    34A      0.753081    35A      0.772926  
      36A      0.785463    37A      0.844024    38A      0.874293  
      39A      0.917059    40A      0.984276    41A      1.033533  
      42A      1.097705    43A      1.109648    44A      1.130210  
      45A      1.148775    46A      1.173340    47A      1.185479  
      48A      1.233217    49A      1.258503    50A      1.278169  
      51A      1.337976    52A      1.367241    53A      1.418656  
      54A      1.507911    55A      1.593705    56A      1.661846  
      57A      1.716261    58A      1.791376    59A      1.827707  
      60A      1.922305    61A      1.953718    62A      2.049188  
      63A      2.117236    64A      2.166182    65A      2.191832  
      66A      2.226062    67A      2.246784    68A      2.293418  
      69A      2.382410    70A      2.494628    71A      2.557645  
      72A      2.580412    73A      2.651628    74A      2.687089  
      75A      2.783530    76A      2.898123    77A      2.921461  
      78A      3.056094    79A      3.177815    80A      3.206038  
      81A      3.329499    82A      3.459052    83A      4.313544  
      84A      4.386776    85A      4.604794    86A      4.650982  
      87A      4.838810  

    Final Occupation by Irrep:
              A 
    DOCC [    20 ]

  Energy converged.

  @DF-RHF Final Energy:  -266.80307878632527

   => Energetics <=

    Nuclear Repulsion Energy =            179.8791267543049628
    One-Electron Energy =                -720.2735064511604151
    Two-Electron Energy =                 273.5913009105298670
    DFT Exchange-Correlation Energy =       0.0000000000000000
    Empirical Dispersion Energy =           0.0000000000000000
    PCM Polarization Energy =               0.0000000000000000
    EFP Energy =                            0.0000000000000000
    Total Energy =                       -266.8030787863256137

    Alert: EFP and PCM quantities not currently incorporated into SCF psivars.

Properties will be evaluated at   0.000000,   0.000000,   0.000000 Bohr
  ==> Properties <==


Properties computed using the SCF density matrix

  Nuclear Dipole Moment: (a.u.)
     X:     2.6777      Y:     7.0399      Z:     3.2221

  Electronic Dipole Moment: (a.u.)
     X:    -2.1251      Y:    -5.6129      Z:    -2.5878

  Dipole Moment: (a.u.)
     X:     0.5526      Y:     1.4270      Z:     0.6343     Total:     1.6565

  Dipole Moment: (Debye)
     X:     1.4045      Y:     3.6270      Z:     1.6122     Total:     4.2103


  Saving occupied orbitals to File 180.

*** tstop() called on cx1-3-6-1.cx1.hpc.ic.ac.uk at Tue Jul  5 16:33:30 2016
Module time:
	user time   =       3.98 seconds =       0.07 minutes
	system time =       0.04 seconds =       0.00 minutes
	total time  =          5 seconds =       0.08 minutes
Total time:
	user time   =       3.98 seconds =       0.07 minutes
	system time =       0.04 seconds =       0.00 minutes
	total time  =          5 seconds =       0.08 minutes


Properties will be evaluated at   0.000000,   0.000000,   0.000000 Bohr

Properties computed using the  density matrix

  Nuclear Dipole Moment: (a.u.)
     X:     2.6777      Y:     7.0399      Z:     3.2221

  Electronic Dipole Moment: (a.u.)
     X:    -2.1251      Y:    -5.6129      Z:    -2.5878

  Dipole Moment: (a.u.)
     X:     0.5526      Y:     1.4270      Z:     0.6343     Total:     1.6565

  Dipole Moment: (Debye)
     X:     1.4045      Y:     3.6270      Z:     1.6122     Total:     4.2103

  Quadrupole Moment: (Debye Ang)
    XX:   -30.6529     YY:   -34.5986     ZZ:   -29.0898
    XY:    -2.6325     XZ:     1.2386     YZ:    -1.0106

  Traceless Quadrupole Moment: (Debye Ang)
    XX:     0.7942     YY:    -3.1516     ZZ:     2.3573
    XY:    -2.6325     XZ:     1.2386     YZ:    -1.0106

  Mulliken Charges: (a.u.)
   Center  Symbol    Alpha    Beta     Spin     Total
       1     H     0.43115  0.43115  0.00000  0.13769
       2     C     2.72641  2.72641  0.00000  0.54717
       3     O     4.29396  4.29396  0.00000 -0.58792
       4     O     4.23880  4.23880  0.00000 -0.47759
       5     C     3.01034  3.01034  0.00000 -0.02069
       6     C     3.25889  3.25889  0.00000 -0.51777
       7     H     0.39816  0.39816  0.00000  0.20368
       8     H     0.40957  0.40957  0.00000  0.18087
       9     H     0.40525  0.40525  0.00000  0.18949
      10     H     0.41266  0.41266  0.00000  0.17468
      11     H     0.41480  0.41480  0.00000  0.17040

   Total alpha = 20.00000, Total beta = 20.00000, Total charge =  0.00000


*** PSI4 exiting successfully. Buy a developer a beer!
