    -----------------------------------------------------------------------
          Psi4: An Open-Source Ab Initio Electronic Structure Package
                              Psi4 (no tag) Driver

                          Git: Rev {detached?}  

    J. M. Turney, A. C. Simmonett, R. M. Parrish, E. G. Hohenstein,
    F. A. Evangelista, J. T. Fermann, B. J. Mintz, L. A. Burns, J. J. Wilke,
    M. L. Abrams, N. J. Russ, M. L. Leininger, C. L. Janssen, E. T. Seidl,
    W. D. Allen, H. F. Schaefer, R. A. King, E. F. Valeev, C. D. Sherrill,
    and T. D. Crawford, WIREs Comput. Mol. Sci. 2, 556-565 (2012)
    (doi: 10.1002/wcms.93)

                         Additional Contributions by
    A. E. DePrince, M. Saitow, U. Bozkaya, A. Yu. Sokolov
    -----------------------------------------------------------------------


    Psi4 started on: Tue Jul  5 17:02:46 2016

    Process ID:  14122
    PSI4DATADIR: /export131/home/mjharvey/miniconda3/share
    Memory level set to 256.000 MB

  ==> Input File <==

--------------------------------------------------------------------------
set {
	reference rhf
	basis 6-31G*
}


set_num_threads( 1 )
memory 2 gb

molecule MOL {
0 1

O	 -2.042549	 -1.228399	 -0.269030
C	 -1.653912	 -0.146171	 0.050137
C	 -0.332303	 0.024011	 0.778412
C	 -2.438579	 1.106236	 -0.272369
C	 -0.030082	 -1.197630	 1.660528
H	 0.476529	 0.177378	 0.069432
H	 -0.410614	 0.909434	 1.399554
C	 -0.990452	 -1.321203	 2.844357
H	 0.991431	 -1.139411	 2.032288
H	 -0.087042	 -2.090993	 1.045874
C	 -2.454804	 -1.164670	 2.436463
H	 -0.849727	 -2.286973	 3.324887
H	 -0.739588	 -0.568944	 3.588496
H	 -2.745650	 -1.925065	 1.717254
H	 -2.633125	 -0.194541	 1.982046
H	 -3.112005	 -1.253752	 3.295635
H	 -3.277823	 0.863061	 -0.908988
H	 -1.806773	 1.843019	 -0.759671
H	 -2.802853	 1.554979	 0.648059

	symmetry c1
}
set optking {
	frozen_dihedral = ("
		11 8 5 9,
		9 5 3 2
	")
}

ee = energy('scf')
oeprop('DIPOLE', 'QUADRUPOLE', 'MULLIKEN_CHARGES')
f=open( 'psi4out.xyz', 'w' )
f.write( "19  " )
f.write( str(ee) + "\n" )
f.write( MOL.save_string_xyz() )
f.close()
--------------------------------------------------------------------------

  Memory set to   2.000 GiB by Python script.

*** tstart() called on cx1-1-2-2.cx1.hpc.ic.ac.uk
*** at Tue Jul  5 17:02:46 2016


         ---------------------------------------------------------
                                   SCF
            by Justin Turney, Rob Parrish, and Andy Simmonett
                              RHF Reference
                        1 Threads,   2000 MiB Core
         ---------------------------------------------------------

  ==> Geometry <==

    Molecular point group: c1
    Full point group: C1

    Geometry (in Angstrom), charge = 0, multiplicity = 1:

       Center              X                  Y                   Z               Mass       
    ------------   -----------------  -----------------  -----------------  -----------------
           O         -0.597809897004    -0.667045124937    -1.300499085741    15.994914619560
           C         -0.209172897004     0.415182875063    -0.981332085741    12.000000000000
           C          1.112436102996     0.585364875063    -0.253057085741    12.000000000000
           C         -0.993839897004     1.667589875063    -1.303838085741    12.000000000000
           C          1.414657102996    -0.636276124937     0.629058914259    12.000000000000
           H          1.921268102996     0.738731875063    -0.962037085741     1.007825032070
           H          1.034125102996     1.470787875063     0.368084914259     1.007825032070
           C          0.454287102996    -0.759849124937     1.812887914259    12.000000000000
           H          2.436170102996    -0.578057124937     1.000818914259     1.007825032070
           H          1.357697102996    -1.529639124937     0.014404914259     1.007825032070
           C         -1.010064897004    -0.603316124937     1.404993914259    12.000000000000
           H          0.595012102996    -1.725619124937     2.293417914259     1.007825032070
           H          0.705151102996    -0.007590124937     2.557026914259     1.007825032070
           H         -1.300910897004    -1.363711124937     0.685784914259     1.007825032070
           H         -1.188385897004     0.366812875063     0.950576914259     1.007825032070
           H         -1.667265897004    -0.692398124937     2.264165914259     1.007825032070
           H         -1.833083897004     1.424414875063    -1.940457085741     1.007825032070
           H         -0.362033897004     2.404372875063    -1.791140085741     1.007825032070
           H         -1.358113897004     2.116332875063    -0.383410085741     1.007825032070

  Running in c1 symmetry.

  Rotational constants: A =      0.13003  B =      0.06607  C =      0.05791 [cm^-1]
  Rotational constants: A =   3898.33513  B =   1980.65625  C =   1736.00468 [MHz]
  Nuclear repulsion =  324.698630807885934

  Charge       = 0
  Multiplicity = 1
  Electrons    = 56
  Nalpha       = 28
  Nbeta        = 28

  ==> Algorithm <==

  SCF Algorithm Type is DF.
  DIIS enabled.
  MOM disabled.
  Fractional occupation disabled.
  Guess Type is CORE.
  Energy threshold   = 1.00e-06
  Density threshold  = 1.00e-06
  Integral threshold = 0.00e+00

  ==> Primary Basis <==

  Basis Set: 6-31G*
    Number of shells: 66
    Number of basis function: 129
    Number of Cartesian functions: 129
    Spherical Harmonics?: false
    Max angular momentum: 2

  ==> Pre-Iterations <==

   -------------------------------------------------------
    Irrep   Nso     Nmo     Nalpha   Nbeta   Ndocc  Nsocc
   -------------------------------------------------------
     A        129     129       0       0       0       0
   -------------------------------------------------------
    Total     129     129      28      28      28       0
   -------------------------------------------------------

 OEINTS: Overlap, kinetic, potential, dipole, and quadrupole integrals
         stored in file 35.

  ==> Integral Setup <==

  ==> DFJK: Density-Fitted J/K Matrices <==

    J tasked:                  Yes
    K tasked:                  Yes
    wK tasked:                  No
    OpenMP threads:              1
    Integrals threads:           1
    Memory (MB):              1430
    Algorithm:                Core
    Integral Cache:           NONE
    Schwarz Cutoff:          1E-12
    Fitting Condition:       1E-12

   => Auxiliary Basis Set <=

  Basis Set: 
    Number of shells: 276
    Number of basis function: 867
    Number of Cartesian functions: 867
    Spherical Harmonics?: false
    Max angular momentum: 3

  Minimum eigenvalue in the overlap matrix is 3.2616342744E-03.
  Using Symmetric Orthogonalization.
  SCF Guess: Core (One-Electron) Hamiltonian.

  ==> Iterations <==

                           Total Energy        Delta E     RMS |[F,P]|

   @DF-RHF iter   1:  -236.68269896948868   -2.36683e+02   7.32011e-02 
   @DF-RHF iter   2:  -214.93265864406794    2.17500e+01   5.53141e-02 DIIS
   @DF-RHF iter   3:  -257.72137938408741   -4.27887e+01   5.58715e-02 DIIS
   @DF-RHF iter   4:  -304.20386073360135   -4.64825e+01   2.16594e-02 DIIS
   @DF-RHF iter   5:  -308.61042440047208   -4.40656e+00   7.21123e-03 DIIS
   @DF-RHF iter   6:  -309.00805543274350   -3.97631e-01   2.28536e-03 DIIS
   @DF-RHF iter   7:  -309.04190693778855   -3.38515e-02   8.13880e-04 DIIS
   @DF-RHF iter   8:  -309.04702946280634   -5.12253e-03   2.63860e-04 DIIS
   @DF-RHF iter   9:  -309.04769839072912   -6.68928e-04   6.58387e-05 DIIS
   @DF-RHF iter  10:  -309.04777737732149   -7.89866e-05   2.06491e-05 DIIS
   @DF-RHF iter  11:  -309.04778555345604   -8.17613e-06   8.83947e-06 DIIS
   @DF-RHF iter  12:  -309.04778709237712   -1.53892e-06   3.62477e-06 DIIS
   @DF-RHF iter  13:  -309.04778739515496   -3.02778e-07   1.06715e-06 DIIS
   @DF-RHF iter  14:  -309.04778742254098   -2.73860e-08   3.36002e-07 DIIS

  ==> Post-Iterations <==

    Orbital Energies (a.u.)
    -----------------------

    Doubly Occupied:                                                      

       1A    -20.544735     2A    -11.326223     3A    -11.230831  
       4A    -11.229486     5A    -11.217876     6A    -11.215748  
       7A    -11.201849     8A     -1.396024     9A     -1.087584  
      10A     -1.024155    11A     -0.980891    12A     -0.894949  
      13A     -0.792965    14A     -0.728040    15A     -0.664375  
      16A     -0.656578    17A     -0.626088    18A     -0.599037  
      19A     -0.587377    20A     -0.569087    21A     -0.545009  
      22A     -0.536683    23A     -0.513368    24A     -0.501342  
      25A     -0.471559    26A     -0.462345    27A     -0.446198  
      28A     -0.399837  

    Virtual:                                                              

      29A      0.165091    30A      0.219155    31A      0.252812  
      32A      0.289118    33A      0.294367    34A      0.303856  
      35A      0.308307    36A      0.313929    37A      0.324438  
      38A      0.340500    39A      0.345519    40A      0.352454  
      41A      0.384675    42A      0.395200    43A      0.421106  
      44A      0.444051    45A      0.455335    46A      0.483228  
      47A      0.540773    48A      0.709129    49A      0.726829  
      50A      0.735015    51A      0.749522    52A      0.783621  
      53A      0.822554    54A      0.837293    55A      0.845321  
      56A      0.876253    57A      0.904751    58A      0.928663  
      59A      0.954736    60A      0.981185    61A      0.990967  
      62A      1.026769    63A      1.042486    64A      1.100749  
      65A      1.101557    66A      1.132872    67A      1.143576  
      68A      1.154750    69A      1.174099    70A      1.180704  
      71A      1.198370    72A      1.210078    73A      1.221524  
      74A      1.225714    75A      1.242373    76A      1.259322  
      77A      1.289537    78A      1.309818    79A      1.353010  
      80A      1.380588    81A      1.423662    82A      1.475058  
      83A      1.506563    84A      1.652462    85A      1.706916  
      86A      1.741085    87A      1.807447    88A      1.840064  
      89A      1.874504    90A      1.923815    91A      1.989995  
      92A      2.068488    93A      2.093975    94A      2.095415  
      95A      2.132073    96A      2.164999    97A      2.214241  
      98A      2.246567    99A      2.258756   100A      2.285873  
     101A      2.322412   102A      2.339939   103A      2.430549  
     104A      2.474815   105A      2.484848   106A      2.516496  
     107A      2.584384   108A      2.636529   109A      2.661777  
     110A      2.674031   111A      2.707793   112A      2.731771  
     113A      2.760731   114A      2.810013   115A      2.876053  
     116A      2.886794   117A      2.987817   118A      3.003324  
     119A      3.082756   120A      3.164911   121A      3.389446  
     122A      3.400312   123A      4.507378   124A      4.547698  
     125A      4.614961   126A      4.752019   127A      4.802125  
     128A      4.974271   129A      5.017165  

    Final Occupation by Irrep:
              A 
    DOCC [    28 ]

  Energy converged.

  @DF-RHF Final Energy:  -309.04778742254098

   => Energetics <=

    Nuclear Repulsion Energy =            324.6986308078859338
    One-Electron Energy =               -1062.5923917308259661
    Two-Electron Energy =                 428.8459735003995092
    DFT Exchange-Correlation Energy =       0.0000000000000000
    Empirical Dispersion Energy =           0.0000000000000000
    PCM Polarization Energy =               0.0000000000000000
    EFP Energy =                            0.0000000000000000
    Total Energy =                       -309.0477874225405230

    Alert: EFP and PCM quantities not currently incorporated into SCF psivars.

Properties will be evaluated at   0.000000,   0.000000,   0.000000 Bohr
  ==> Properties <==


Properties computed using the SCF density matrix

  Nuclear Dipole Moment: (a.u.)
     X:     0.3155      Y:     2.4571      Z:     4.7348

  Electronic Dipole Moment: (a.u.)
     X:     0.0826      Y:    -1.5144      Z:    -4.4413

  Dipole Moment: (a.u.)
     X:     0.3981      Y:     0.9427      Z:     0.2934     Total:     1.0646

  Dipole Moment: (Debye)
     X:     1.0118      Y:     2.3962      Z:     0.7458     Total:     2.7059


  Saving occupied orbitals to File 180.

*** tstop() called on cx1-1-2-2.cx1.hpc.ic.ac.uk at Tue Jul  5 17:02:58 2016
Module time:
	user time   =      10.97 seconds =       0.18 minutes
	system time =       0.06 seconds =       0.00 minutes
	total time  =         12 seconds =       0.20 minutes
Total time:
	user time   =      10.97 seconds =       0.18 minutes
	system time =       0.06 seconds =       0.00 minutes
	total time  =         12 seconds =       0.20 minutes


Properties will be evaluated at   0.000000,   0.000000,   0.000000 Bohr

Properties computed using the  density matrix

  Nuclear Dipole Moment: (a.u.)
     X:     0.3155      Y:     2.4571      Z:     4.7348

  Electronic Dipole Moment: (a.u.)
     X:     0.0826      Y:    -1.5144      Z:    -4.4413

  Dipole Moment: (a.u.)
     X:     0.3981      Y:     0.9427      Z:     0.2934     Total:     1.0646

  Dipole Moment: (Debye)
     X:     1.0118      Y:     2.3962      Z:     0.7458     Total:     2.7059

  Quadrupole Moment: (Debye Ang)
    XX:   -44.8582     YY:   -44.4095     ZZ:   -46.5983
    XY:    -1.4085     XZ:    -1.3173     YZ:    -3.5717

  Traceless Quadrupole Moment: (Debye Ang)
    XX:     0.4304     YY:     0.8792     ZZ:    -1.3096
    XY:    -1.4085     XZ:    -1.3173     YZ:    -3.5717

  Mulliken Charges: (a.u.)
   Center  Symbol    Alpha    Beta     Spin     Total
       1     O     4.26496  4.26496  0.00000 -0.52991
       2     C     2.74374  2.74374  0.00000  0.51251
       3     C     3.20607  3.20607  0.00000 -0.41213
       4     C     3.28581  3.28581  0.00000 -0.57162
       5     C     3.15611  3.15611  0.00000 -0.31223
       6     H     0.39964  0.39964  0.00000  0.20073
       7     H     0.41545  0.41545  0.00000  0.16909
       8     C     3.15215  3.15215  0.00000 -0.30430
       9     H     0.41956  0.41956  0.00000  0.16087
      10     H     0.40406  0.40406  0.00000  0.19189
      11     C     3.24921  3.24921  0.00000 -0.49843
      12     H     0.41754  0.41754  0.00000  0.16492
      13     H     0.42522  0.42522  0.00000  0.14955
      14     H     0.39506  0.39506  0.00000  0.20989
      15     H     0.43378  0.43378  0.00000  0.13245
      16     H     0.42062  0.42062  0.00000  0.15876
      17     H     0.39638  0.39638  0.00000  0.20725
      18     H     0.40891  0.40891  0.00000  0.18217
      19     H     0.40573  0.40573  0.00000  0.18855

   Total alpha = 28.00000, Total beta = 28.00000, Total charge = -0.00000


*** PSI4 exiting successfully. Buy a developer a beer!
