    -----------------------------------------------------------------------
          Psi4: An Open-Source Ab Initio Electronic Structure Package
                              Psi4 (no tag) Driver

                          Git: Rev {detached?}  

    J. M. Turney, A. C. Simmonett, R. M. Parrish, E. G. Hohenstein,
    F. A. Evangelista, J. T. Fermann, B. J. Mintz, L. A. Burns, J. J. Wilke,
    M. L. Abrams, N. J. Russ, M. L. Leininger, C. L. Janssen, E. T. Seidl,
    W. D. Allen, H. F. Schaefer, R. A. King, E. F. Valeev, C. D. Sherrill,
    and T. D. Crawford, WIREs Comput. Mol. Sci. 2, 556-565 (2012)
    (doi: 10.1002/wcms.93)

                         Additional Contributions by
    A. E. DePrince, M. Saitow, U. Bozkaya, A. Yu. Sokolov
    -----------------------------------------------------------------------


    Psi4 started on: Tue Jul  5 16:25:50 2016

    Process ID:   1910
    PSI4DATADIR: /export131/home/mjharvey/miniconda3/share
    Memory level set to 256.000 MB

  ==> Input File <==

--------------------------------------------------------------------------
set {
	reference rhf
	basis 6-31G*
}


set_num_threads( 1 )
memory 2 gb

molecule MOL {
0 1

H	 -0.928221	 1.762403	 -0.853665
C	 -0.255323	 0.926834	 -1.051958
N	 0.538815	 0.649616	 0.000000
O	 -0.255262	 0.349643	 -2.098887
C	 1.521968	 -0.411503	 0.000000
H	 0.437862	 1.208398	 0.815999
H	 2.150599	 -0.357004	 -0.881901
H	 0.999455	 -1.354525	 0.000000
H	 2.150599	 -0.357004	 0.881901

	symmetry c1
}
set optking {
	frozen_dihedral = ("
		1 2 3 6
	")
}

ee = energy('scf')
oeprop('DIPOLE', 'QUADRUPOLE', 'MULLIKEN_CHARGES')
f=open( 'psi4out.xyz', 'w' )
f.write( "9  " )
f.write( str(ee) + "\n" )
f.write( MOL.save_string_xyz() )
f.close()
--------------------------------------------------------------------------

  Memory set to   2.000 GiB by Python script.

*** tstart() called on cx1-1-4-3.cx1.hpc.ic.ac.uk
*** at Tue Jul  5 16:25:50 2016


         ---------------------------------------------------------
                                   SCF
            by Justin Turney, Rob Parrish, and Andy Simmonett
                              RHF Reference
                        1 Threads,   2000 MiB Core
         ---------------------------------------------------------

  ==> Geometry <==

    Molecular point group: c1
    Full point group: C1

    Geometry (in Angstrom), charge = 0, multiplicity = 1:

       Center              X                  Y                   Z               Mass       
    ------------   -----------------  -----------------  -----------------  -----------------
           H         -1.326442485129     1.393441346311    -0.070547870200     1.007825032070
           C         -0.653544485129     0.557872346311    -0.268840870200    12.000000000000
           N          0.140593514871     0.280654346311     0.783117129800    14.003074004780
           O         -0.653483485129    -0.019318653689    -1.315769870200    15.994914619560
           C          1.123746514871    -0.780464653689     0.783117129800    12.000000000000
           H          0.039640514871     0.839436346311     1.599116129800     1.007825032070
           H          1.752377514871    -0.725965653689    -0.098783870200     1.007825032070
           H          0.601233514871    -1.723486653689     0.783117129800     1.007825032070
           H          1.752377514871    -0.725965653689     1.665018129800     1.007825032070

  Running in c1 symmetry.

  Rotational constants: A =      0.68499  B =      0.20546  C =      0.16281 [cm^-1]
  Rotational constants: A =  20535.34935  B =   6159.45323  C =   4880.89825 [MHz]
  Nuclear repulsion =  122.359624875777300

  Charge       = 0
  Multiplicity = 1
  Electrons    = 32
  Nalpha       = 16
  Nbeta        = 16

  ==> Algorithm <==

  SCF Algorithm Type is DF.
  DIIS enabled.
  MOM disabled.
  Fractional occupation disabled.
  Guess Type is CORE.
  Energy threshold   = 1.00e-06
  Density threshold  = 1.00e-06
  Integral threshold = 0.00e+00

  ==> Primary Basis <==

  Basis Set: 6-31G*
    Number of shells: 34
    Number of basis function: 70
    Number of Cartesian functions: 70
    Spherical Harmonics?: false
    Max angular momentum: 2

  ==> Pre-Iterations <==

   -------------------------------------------------------
    Irrep   Nso     Nmo     Nalpha   Nbeta   Ndocc  Nsocc
   -------------------------------------------------------
     A         70      70       0       0       0       0
   -------------------------------------------------------
    Total      70      70      16      16      16       0
   -------------------------------------------------------

 OEINTS: Overlap, kinetic, potential, dipole, and quadrupole integrals
         stored in file 35.

  ==> Integral Setup <==

  ==> DFJK: Density-Fitted J/K Matrices <==

    J tasked:                  Yes
    K tasked:                  Yes
    wK tasked:                  No
    OpenMP threads:              1
    Integrals threads:           1
    Memory (MB):              1430
    Algorithm:                Core
    Integral Cache:           NONE
    Schwarz Cutoff:          1E-12
    Fitting Condition:       1E-12

   => Auxiliary Basis Set <=

  Basis Set: 
    Number of shells: 141
    Number of basis function: 449
    Number of Cartesian functions: 449
    Spherical Harmonics?: false
    Max angular momentum: 3

  Minimum eigenvalue in the overlap matrix is 4.5401472440E-03.
  Using Symmetric Orthogonalization.
  SCF Guess: Core (One-Electron) Hamiltonian.

  ==> Iterations <==

                           Total Energy        Delta E     RMS |[F,P]|

   @DF-RHF iter   1:  -166.87413546243914   -1.66874e+02   9.45821e-02 
   @DF-RHF iter   2:  -133.27194912759410    3.36022e+01   9.20996e-02 DIIS
   @DF-RHF iter   3:  -192.27806223502068   -5.90061e+01   4.59204e-02 DIIS
   @DF-RHF iter   4:  -185.35416773054681    6.92389e+00   6.46560e-02 DIIS
   @DF-RHF iter   5:  -207.49722136230628   -2.21431e+01   1.43080e-02 DIIS
   @DF-RHF iter   6:  -207.82478807844240   -3.27567e-01   8.57977e-03 DIIS
   @DF-RHF iter   7:  -207.95606682283767   -1.31279e-01   1.15467e-03 DIIS
   @DF-RHF iter   8:  -207.95948778521904   -3.42096e-03   4.89761e-04 DIIS
   @DF-RHF iter   9:  -207.96008796720002   -6.00182e-04   2.32950e-04 DIIS
   @DF-RHF iter  10:  -207.96026235301895   -1.74386e-04   6.94623e-05 DIIS
   @DF-RHF iter  11:  -207.96027973666060   -1.73836e-05   2.09504e-05 DIIS
   @DF-RHF iter  12:  -207.96028167109864   -1.93444e-06   4.74910e-06 DIIS
   @DF-RHF iter  13:  -207.96028188082528   -2.09727e-07   2.37469e-06 DIIS
   @DF-RHF iter  14:  -207.96028191267686   -3.18516e-08   5.97926e-07 DIIS

  ==> Post-Iterations <==

    Orbital Energies (a.u.)
    -----------------------

    Doubly Occupied:                                                      

       1A    -20.526086     2A    -15.590580     3A    -11.343199  
       4A    -11.262359     5A     -1.388403     6A     -1.236510  
       7A     -0.969306     8A     -0.806898     9A     -0.745639  
      10A     -0.640813    11A     -0.628405    12A     -0.594547  
      13A     -0.557417    14A     -0.533296    15A     -0.423150  
      16A     -0.390623  

    Virtual:                                                              

      17A      0.210352    18A      0.218362    19A      0.263068  
      20A      0.296562    21A      0.316500    22A      0.336039  
      23A      0.389609    24A      0.442785    25A      0.569811  
      26A      0.715375    27A      0.734159    28A      0.772965  
      29A      0.788266    30A      0.838137    31A      0.959182  
      32A      1.020034    33A      1.039873    34A      1.057734  
      35A      1.098326    36A      1.125164    37A      1.139007  
      38A      1.193688    39A      1.206010    40A      1.218878  
      41A      1.320394    42A      1.331134    43A      1.384042  
      44A      1.576739    45A      1.613622    46A      1.638592  
      47A      1.687768    48A      1.819711    49A      1.854024  
      50A      2.054724    51A      2.144636    52A      2.185052  
      53A      2.235477    54A      2.341509    55A      2.362487  
      56A      2.453691    57A      2.509147    58A      2.553079  
      59A      2.696142    60A      2.716593    61A      2.860507  
      62A      2.922791    63A      3.043693    64A      3.116128  
      65A      3.330520    66A      3.493414    67A      4.236496  
      68A      4.401284    69A      4.582859    70A      4.742350  

    Final Occupation by Irrep:
              A 
    DOCC [    16 ]

  Energy converged.

  @DF-RHF Final Energy:  -207.96028191267686

   => Energetics <=

    Nuclear Repulsion Energy =            122.3596248757772997
    One-Electron Energy =                -525.3654063722204910
    Two-Electron Energy =                 195.0454995837664285
    DFT Exchange-Correlation Energy =       0.0000000000000000
    Empirical Dispersion Energy =           0.0000000000000000
    PCM Polarization Energy =               0.0000000000000000
    EFP Energy =                            0.0000000000000000
    Total Energy =                       -207.9602819126767770

    Alert: EFP and PCM quantities not currently incorporated into SCF psivars.

Properties will be evaluated at   0.000000,   0.000000,   0.000000 Bohr
  ==> Properties <==


Properties computed using the SCF density matrix

  Nuclear Dipole Moment: (a.u.)
     X:     2.6394      Y:    -0.8845      Z:     3.6268

  Electronic Dipole Moment: (a.u.)
     X:    -2.2569      Y:     1.3332      Z:    -2.0935

  Dipole Moment: (a.u.)
     X:     0.3824      Y:     0.4486      Z:     1.5334     Total:     1.6428

  Dipole Moment: (Debye)
     X:     0.9721      Y:     1.1403      Z:     3.8974     Total:     4.1755


  Saving occupied orbitals to File 180.

*** tstop() called on cx1-1-4-3.cx1.hpc.ic.ac.uk at Tue Jul  5 16:25:53 2016
Module time:
	user time   =       2.58 seconds =       0.04 minutes
	system time =       0.03 seconds =       0.00 minutes
	total time  =          3 seconds =       0.05 minutes
Total time:
	user time   =       2.58 seconds =       0.04 minutes
	system time =       0.03 seconds =       0.00 minutes
	total time  =          3 seconds =       0.05 minutes


Properties will be evaluated at   0.000000,   0.000000,   0.000000 Bohr

Properties computed using the  density matrix

  Nuclear Dipole Moment: (a.u.)
     X:     2.6394      Y:    -0.8845      Z:     3.6268

  Electronic Dipole Moment: (a.u.)
     X:    -2.2569      Y:     1.3332      Z:    -2.0935

  Dipole Moment: (a.u.)
     X:     0.3824      Y:     0.4486      Z:     1.5334     Total:     1.6428

  Dipole Moment: (Debye)
     X:     0.9721      Y:     1.1403      Z:     3.8974     Total:     4.1755

  Quadrupole Moment: (Debye Ang)
    XX:   -23.1572     YY:   -22.2481     ZZ:   -26.1974
    XY:    -2.1287     XZ:    -1.1811     YZ:     0.4215

  Traceless Quadrupole Moment: (Debye Ang)
    XX:     0.7104     YY:     1.6195     ZZ:    -2.3299
    XY:    -2.1287     XZ:    -1.1811     YZ:     0.4215

  Mulliken Charges: (a.u.)
   Center  Symbol    Alpha    Beta     Spin     Total
       1     H     0.42811  0.42811  0.00000  0.14379
       2     C     2.74636  2.74636  0.00000  0.50728
       3     N     3.87597  3.87597  0.00000 -0.75194
       4     O     4.28255  4.28255  0.00000 -0.56510
       5     C     3.13792  3.13792  0.00000 -0.27583
       6     H     0.30788  0.30788  0.00000  0.38424
       7     H     0.40082  0.40082  0.00000  0.19836
       8     H     0.40630  0.40630  0.00000  0.18741
       9     H     0.41410  0.41410  0.00000  0.17180

   Total alpha = 16.00000, Total beta = 16.00000, Total charge = -0.00000


*** PSI4 exiting successfully. Buy a developer a beer!
