    -----------------------------------------------------------------------
          Psi4: An Open-Source Ab Initio Electronic Structure Package
                              Psi4 (no tag) Driver

                          Git: Rev {detached?}  

    J. M. Turney, A. C. Simmonett, R. M. Parrish, E. G. Hohenstein,
    F. A. Evangelista, J. T. Fermann, B. J. Mintz, L. A. Burns, J. J. Wilke,
    M. L. Abrams, N. J. Russ, M. L. Leininger, C. L. Janssen, E. T. Seidl,
    W. D. Allen, H. F. Schaefer, R. A. King, E. F. Valeev, C. D. Sherrill,
    and T. D. Crawford, WIREs Comput. Mol. Sci. 2, 556-565 (2012)
    (doi: 10.1002/wcms.93)

                         Additional Contributions by
    A. E. DePrince, M. Saitow, U. Bozkaya, A. Yu. Sokolov
    -----------------------------------------------------------------------


    Psi4 started on: Tue Jul  5 16:28:57 2016

    Process ID:  13753
    PSI4DATADIR: /export131/home/mjharvey/miniconda3/share
    Memory level set to 256.000 MB

  ==> Input File <==

--------------------------------------------------------------------------
set {
	reference rhf
	basis 6-31G*
}


set_num_threads( 1 )
memory 2 gb

molecule MOL {
0 1

H	 2.661951	 -0.388125	 0.923978
N	 1.682203	 -0.185530	 0.944231
C	 0.913315	 -1.409907	 1.072392
C	 1.294347	 0.563651	 -0.236873
H	 1.222304	 -1.926680	 1.974745
H	 1.062193	 -2.087084	 0.228054
C	 -0.565000	 -1.062658	 1.164236
H	 1.879271	 1.476085	 -0.282662
H	 1.466303	 0.006005	 -1.160509
C	 -0.184203	 0.909677	 -0.144218
H	 -0.744917	 -0.510406	 2.091462
H	 -1.150599	 -1.975367	 1.204009
N	 -0.975995	 -0.298722	 0.000000
H	 -0.494805	 1.421321	 -1.049366
H	 -0.338609	 1.594068	 0.695346
C	 -2.393863	 -0.024976	 0.000000
H	 -2.854032	 -0.467193	 -0.876721
H	 -2.854032	 -0.467193	 0.876721
H	 -2.623281	 1.044943	 0.000000

	symmetry c1
}
ee = energy('scf')
oeprop('DIPOLE', 'QUADRUPOLE', 'MULLIKEN_CHARGES')
f=open( 'psi4out.xyz', 'w' )
f.write( "19  " )
f.write( str(ee) + "\n" )
f.write( MOL.save_string_xyz() )
f.close()
--------------------------------------------------------------------------

  Memory set to   2.000 GiB by Python script.

*** tstart() called on cx1-3-2-1.cx1.hpc.ic.ac.uk
*** at Tue Jul  5 16:28:57 2016


         ---------------------------------------------------------
                                   SCF
            by Justin Turney, Rob Parrish, and Andy Simmonett
                              RHF Reference
                        1 Threads,   2000 MiB Core
         ---------------------------------------------------------

  ==> Geometry <==

    Molecular point group: c1
    Full point group: C1

    Geometry (in Angstrom), charge = 0, multiplicity = 1:

       Center              X                  Y                   Z               Mass       
    ------------   -----------------  -----------------  -----------------  -----------------
           H          2.703166562309    -0.174648212703     0.522881003206     1.007825032070
           N          1.723418562309     0.027946787297     0.543134003206    14.003074004780
           C          0.954530562309    -1.196430212703     0.671295003206    12.000000000000
           C          1.335562562309     0.777127787297    -0.637969996794    12.000000000000
           H          1.263519562309    -1.713203212703     1.573648003206     1.007825032070
           H          1.103408562309    -1.873607212703    -0.173042996794     1.007825032070
           C         -0.523784437691    -0.849181212703     0.763139003206    12.000000000000
           H          1.920486562309     1.689561787297    -0.683758996794     1.007825032070
           H          1.507518562309     0.219481787297    -1.561605996794     1.007825032070
           C         -0.142987437691     1.123153787297    -0.545314996794    12.000000000000
           H         -0.703701437691    -0.296929212703     1.690365003206     1.007825032070
           H         -1.109383437691    -1.761890212703     0.802912003206     1.007825032070
           N         -0.934779437691    -0.085245212703    -0.401096996794    14.003074004780
           H         -0.453589437691     1.634797787297    -1.450462996794     1.007825032070
           H         -0.297393437691     1.807544787297     0.294249003206     1.007825032070
           C         -2.352647437691     0.188500787297    -0.401096996794    12.000000000000
           H         -2.812816437691    -0.253716212703    -1.277817996794     1.007825032070
           H         -2.812816437691    -0.253716212703     0.475624003206     1.007825032070
           H         -2.582065437691     1.258419787297    -0.401096996794     1.007825032070

  Running in c1 symmetry.

  Rotational constants: A =      0.15718  B =      0.07859  C =      0.05697 [cm^-1]
  Rotational constants: A =   4712.01001  B =   2356.13548  C =   1707.80680 [MHz]
  Nuclear repulsion =  339.935618482381528

  Charge       = 0
  Multiplicity = 1
  Electrons    = 56
  Nalpha       = 28
  Nbeta        = 28

  ==> Algorithm <==

  SCF Algorithm Type is DF.
  DIIS enabled.
  MOM disabled.
  Fractional occupation disabled.
  Guess Type is CORE.
  Energy threshold   = 1.00e-06
  Density threshold  = 1.00e-06
  Integral threshold = 0.00e+00

  ==> Primary Basis <==

  Basis Set: 6-31G*
    Number of shells: 66
    Number of basis function: 129
    Number of Cartesian functions: 129
    Spherical Harmonics?: false
    Max angular momentum: 2

  ==> Pre-Iterations <==

   -------------------------------------------------------
    Irrep   Nso     Nmo     Nalpha   Nbeta   Ndocc  Nsocc
   -------------------------------------------------------
     A        129     129       0       0       0       0
   -------------------------------------------------------
    Total     129     129      28      28      28       0
   -------------------------------------------------------

 OEINTS: Overlap, kinetic, potential, dipole, and quadrupole integrals
         stored in file 35.

  ==> Integral Setup <==

  ==> DFJK: Density-Fitted J/K Matrices <==

    J tasked:                  Yes
    K tasked:                  Yes
    wK tasked:                  No
    OpenMP threads:              1
    Integrals threads:           1
    Memory (MB):              1430
    Algorithm:                Core
    Integral Cache:           NONE
    Schwarz Cutoff:          1E-12
    Fitting Condition:       1E-12

   => Auxiliary Basis Set <=

  Basis Set: 
    Number of shells: 276
    Number of basis function: 867
    Number of Cartesian functions: 867
    Spherical Harmonics?: false
    Max angular momentum: 3

  Minimum eigenvalue in the overlap matrix is 3.3740752739E-03.
  Using Symmetric Orthogonalization.
  SCF Guess: Core (One-Electron) Hamiltonian.

  ==> Iterations <==

                           Total Energy        Delta E     RMS |[F,P]|

   @DF-RHF iter   1:  -233.39300442032004   -2.33393e+02   7.07339e-02 
   @DF-RHF iter   2:  -173.47327616751477    5.99197e+01   7.22639e-02 DIIS
   @DF-RHF iter   3:  -252.50294973321559   -7.90297e+01   5.17478e-02 DIIS
   @DF-RHF iter   4:  -248.87491645468413    3.62803e+00   6.16200e-02 DIIS
   @DF-RHF iter   5:  -304.66148814627820   -5.57866e+01   7.72690e-03 DIIS
   @DF-RHF iter   6:  -305.15288576517980   -4.91398e-01   2.10104e-03 DIIS
   @DF-RHF iter   7:  -305.18654157201092   -3.36558e-02   7.85598e-04 DIIS
   @DF-RHF iter   8:  -305.19176226112302   -5.22069e-03   2.50369e-04 DIIS
   @DF-RHF iter   9:  -305.19254515476916   -7.82894e-04   6.88896e-05 DIIS
   @DF-RHF iter  10:  -305.19259110872099   -4.59540e-05   2.95614e-05 DIIS
   @DF-RHF iter  11:  -305.19260228062251   -1.11719e-05   5.54227e-06 DIIS
   @DF-RHF iter  12:  -305.19260271790722   -4.37285e-07   1.72521e-06 DIIS
   @DF-RHF iter  13:  -305.19260275079262   -3.28854e-08   5.07303e-07 DIIS

  ==> Post-Iterations <==

    Orbital Energies (a.u.)
    -----------------------

    Doubly Occupied:                                                      

       1A    -15.537530     2A    -15.536121     3A    -11.237956  
       4A    -11.237708     5A    -11.237071     6A    -11.236806  
       7A    -11.233316     8A     -1.246647     9A     -1.185072  
      10A     -1.022520    11A     -0.963775    12A     -0.861020  
      13A     -0.856685    14A     -0.757675    15A     -0.690262  
      16A     -0.631050    17A     -0.623451    18A     -0.606429  
      19A     -0.604882    20A     -0.579693    21A     -0.544368  
      22A     -0.533831    23A     -0.511875    24A     -0.487809  
      25A     -0.465114    26A     -0.455194    27A     -0.362544  
      28A     -0.342024  

    Virtual:                                                              

      29A      0.231643    30A      0.253515    31A      0.283278  
      32A      0.286529    33A      0.295378    34A      0.305904  
      35A      0.314528    36A      0.330561    37A      0.336553  
      38A      0.350117    39A      0.351428    40A      0.360043  
      41A      0.364399    42A      0.408598    43A      0.432308  
      44A      0.438144    45A      0.469778    46A      0.473498  
      47A      0.501379    48A      0.735723    49A      0.745210  
      50A      0.763652    51A      0.791689    52A      0.793148  
      53A      0.806464    54A      0.841037    55A      0.871494  
      56A      0.894854    57A      0.923999    58A      0.936251  
      59A      0.949107    60A      0.990131    61A      1.046316  
      62A      1.058297    63A      1.099213    64A      1.100809  
      65A      1.132743    66A      1.134863    67A      1.142986  
      68A      1.147956    69A      1.156300    70A      1.166038  
      71A      1.181242    72A      1.204900    73A      1.213645  
      74A      1.233088    75A      1.248895    76A      1.267512  
      77A      1.279970    78A      1.291206    79A      1.315991  
      80A      1.415849    81A      1.521965    82A      1.541567  
      83A      1.601239    84A      1.640355    85A      1.693767  
      86A      1.699693    87A      1.785880    88A      1.859048  
      89A      1.883339    90A      2.016677    91A      2.057776  
      92A      2.086089    93A      2.136305    94A      2.179389  
      95A      2.227054    96A      2.292775    97A      2.313498  
      98A      2.320882    99A      2.332570   100A      2.348483  
     101A      2.387856   102A      2.437770   103A      2.453555  
     104A      2.490858   105A      2.565845   106A      2.570921  
     107A      2.616010   108A      2.637803   109A      2.663660  
     110A      2.678049   111A      2.744213   112A      2.755693  
     113A      2.804559   114A      2.874185   115A      2.904014  
     116A      2.917243   117A      3.059212   118A      3.119676  
     119A      3.133931   120A      3.179141   121A      3.242086  
     122A      3.268994   123A      4.359424   124A      4.535206  
     125A      4.659997   126A      4.687348   127A      4.804190  
     128A      4.954892   129A      4.976419  

    Final Occupation by Irrep:
              A 
    DOCC [    28 ]

  Energy converged.

  @DF-RHF Final Energy:  -305.19260275079262

   => Energetics <=

    Nuclear Repulsion Energy =            339.9356184823815283
    One-Electron Energy =               -1087.0795203450707049
    Two-Electron Energy =                 441.9512991118980381
    DFT Exchange-Correlation Energy =       0.0000000000000000
    Empirical Dispersion Energy =           0.0000000000000000
    PCM Polarization Energy =               0.0000000000000000
    EFP Energy =                            0.0000000000000000
    Total Energy =                       -305.1926027507911385

    Alert: EFP and PCM quantities not currently incorporated into SCF psivars.

Properties will be evaluated at   0.000000,   0.000000,   0.000000 Bohr
  ==> Properties <==


Properties computed using the SCF density matrix

  Nuclear Dipole Moment: (a.u.)
     X:    -2.1338      Y:     0.2646      Z:    -0.1768

  Electronic Dipole Moment: (a.u.)
     X:     2.2035      Y:    -0.3207      Z:     0.1236

  Dipole Moment: (a.u.)
     X:     0.0698      Y:    -0.0560      Z:    -0.0532     Total:     0.1041

  Dipole Moment: (Debye)
     X:     0.1773      Y:    -0.1424      Z:    -0.1352     Total:     0.2646


  Saving occupied orbitals to File 180.

*** tstop() called on cx1-3-2-1.cx1.hpc.ic.ac.uk at Tue Jul  5 16:29:09 2016
Module time:
	user time   =      11.45 seconds =       0.19 minutes
	system time =       0.06 seconds =       0.00 minutes
	total time  =         12 seconds =       0.20 minutes
Total time:
	user time   =      11.45 seconds =       0.19 minutes
	system time =       0.06 seconds =       0.00 minutes
	total time  =         12 seconds =       0.20 minutes


Properties will be evaluated at   0.000000,   0.000000,   0.000000 Bohr

Properties computed using the  density matrix

  Nuclear Dipole Moment: (a.u.)
     X:    -2.1338      Y:     0.2646      Z:    -0.1768

  Electronic Dipole Moment: (a.u.)
     X:     2.2035      Y:    -0.3207      Z:     0.1236

  Dipole Moment: (a.u.)
     X:     0.0698      Y:    -0.0560      Z:    -0.0532     Total:     0.1041

  Dipole Moment: (Debye)
     X:     0.1773      Y:    -0.1424      Z:    -0.1352     Total:     0.2646

  Quadrupole Moment: (Debye Ang)
    XX:   -40.9634     YY:   -43.9208     ZZ:   -47.1145
    XY:    -1.3634     XZ:    -1.6838     YZ:    -2.8784

  Traceless Quadrupole Moment: (Debye Ang)
    XX:     3.0362     YY:     0.0787     ZZ:    -3.1149
    XY:    -1.3634     XZ:    -1.6838     YZ:    -2.8784

  Mulliken Charges: (a.u.)
   Center  Symbol    Alpha    Beta     Spin     Total
       1     H     0.32953  0.32953  0.00000  0.34095
       2     N     3.85433  3.85433  0.00000 -0.70865
       3     C     3.06344  3.06344  0.00000 -0.12688
       4     C     3.06355  3.06355  0.00000 -0.12710
       5     H     0.41784  0.41784  0.00000  0.16433
       6     H     0.42764  0.42764  0.00000  0.14472
       7     C     3.05847  3.05847  0.00000 -0.11695
       8     H     0.41794  0.41794  0.00000  0.16411
       9     H     0.42772  0.42772  0.00000  0.14456
      10     C     3.05745  3.05745  0.00000 -0.11490
      11     H     0.42799  0.42799  0.00000  0.14402
      12     H     0.41767  0.41767  0.00000  0.16465
      13     N     3.78713  3.78713  0.00000 -0.57425
      14     H     0.41782  0.41782  0.00000  0.16437
      15     H     0.42807  0.42807  0.00000  0.14386
      16     C     3.14104  3.14104  0.00000 -0.28207
      17     H     0.41618  0.41618  0.00000  0.16764
      18     H     0.42239  0.42239  0.00000  0.15522
      19     H     0.42380  0.42380  0.00000  0.15239

   Total alpha = 28.00000, Total beta = 28.00000, Total charge =  0.00000


*** PSI4 exiting successfully. Buy a developer a beer!
