    -----------------------------------------------------------------------
          Psi4: An Open-Source Ab Initio Electronic Structure Package
                              Psi4 (no tag) Driver

                          Git: Rev {detached?}  

    J. M. Turney, A. C. Simmonett, R. M. Parrish, E. G. Hohenstein,
    F. A. Evangelista, J. T. Fermann, B. J. Mintz, L. A. Burns, J. J. Wilke,
    M. L. Abrams, N. J. Russ, M. L. Leininger, C. L. Janssen, E. T. Seidl,
    W. D. Allen, H. F. Schaefer, R. A. King, E. F. Valeev, C. D. Sherrill,
    and T. D. Crawford, WIREs Comput. Mol. Sci. 2, 556-565 (2012)
    (doi: 10.1002/wcms.93)

                         Additional Contributions by
    A. E. DePrince, M. Saitow, U. Bozkaya, A. Yu. Sokolov
    -----------------------------------------------------------------------


    Psi4 started on: Tue Jul  5 16:52:03 2016

    Process ID:  14595
    PSI4DATADIR: /export131/home/mjharvey/miniconda3/share
    Memory level set to 256.000 MB

  ==> Input File <==

--------------------------------------------------------------------------
set {
	reference rhf
	basis 6-31G*
}


set_num_threads( 1 )
memory 2 gb

molecule MOL {
0 1

H	 -2.646374	 -0.642757	 1.268656
C	 -2.083525	 -0.384536	 0.393091
O	 -0.807605	 -0.127164	 0.768327
F	 -2.118945	 -1.383102	 -0.486752
F	 -2.621877	 0.670592	 -0.209486
C	 0.084052	 0.273579	 -0.209957
C	 1.353033	 -0.546803	 -0.018071
Cl	 0.433844	 2.004619	 -0.074457
H	 -0.288836	 0.092657	 -1.202930
F	 1.510705	 -1.389674	 -1.016493
F	 1.242331	 -1.245781	 1.093960
F	 2.421229	 0.207593	 0.070348

	symmetry c1
}
set optking {
	frozen_dihedral = ("
		9 6 3 2,
		6 3 2 4
	")
}

ee = energy('scf')
oeprop('DIPOLE', 'QUADRUPOLE', 'MULLIKEN_CHARGES')
f=open( 'psi4out.xyz', 'w' )
f.write( "12  " )
f.write( str(ee) + "\n" )
f.write( MOL.save_string_xyz() )
f.close()
--------------------------------------------------------------------------

  Memory set to   2.000 GiB by Python script.

*** tstart() called on cx1-3-4-4.cx1.hpc.ic.ac.uk
*** at Tue Jul  5 16:52:04 2016


         ---------------------------------------------------------
                                   SCF
            by Justin Turney, Rob Parrish, and Andy Simmonett
                              RHF Reference
                        1 Threads,   2000 MiB Core
         ---------------------------------------------------------

  ==> Geometry <==

    Molecular point group: c1
    Full point group: C1

    Geometry (in Angstrom), charge = 0, multiplicity = 1:

       Center              X                  Y                   Z               Mass       
    ------------   -----------------  -----------------  -----------------  -----------------
           H         -2.645138594493    -0.642516044615     1.261516392004     1.007825032070
           C         -2.082289594493    -0.384295044615     0.385951392004    12.000000000000
           O         -0.806369594493    -0.126923044615     0.761187392004    15.994914619560
           F         -2.117709594493    -1.382861044615    -0.493891607996    18.998403224000
           F         -2.620641594493     0.670832955385    -0.216625607996    18.998403224000
           C          0.085287405507     0.273819955385    -0.217096607996    12.000000000000
           C          1.354268405507    -0.546562044615    -0.025210607996    12.000000000000
          CL          0.435079405507     2.004859955385    -0.081596607996    34.968852682000
           H         -0.287600594493     0.092897955385    -1.210069607996     1.007825032070
           F          1.511940405507    -1.389433044615    -1.023632607996    18.998403224000
           F          1.243566405507    -1.245540044615     1.086820392004    18.998403224000
           F          2.422464405507     0.207833955385     0.063208392004    18.998403224000

  Running in c1 symmetry.

  Rotational constants: A =      0.05233  B =      0.03004  C =      0.02225 [cm^-1]
  Rotational constants: A =   1568.83360  B =    900.57944  C =    667.00575 [MHz]
  Nuclear repulsion =  739.038851948911542

  Charge       = 0
  Multiplicity = 1
  Electrons    = 90
  Nalpha       = 45
  Nbeta        = 45

  ==> Algorithm <==

  SCF Algorithm Type is DF.
  DIIS enabled.
  MOM disabled.
  Fractional occupation disabled.
  Guess Type is CORE.
  Energy threshold   = 1.00e-06
  Density threshold  = 1.00e-06
  Integral threshold = 0.00e+00

  ==> Primary Basis <==

  Basis Set: 6-31G*
    Number of shells: 66
    Number of basis function: 158
    Number of Cartesian functions: 158
    Spherical Harmonics?: false
    Max angular momentum: 2

  ==> Pre-Iterations <==

   -------------------------------------------------------
    Irrep   Nso     Nmo     Nalpha   Nbeta   Ndocc  Nsocc
   -------------------------------------------------------
     A        158     158       0       0       0       0
   -------------------------------------------------------
    Total     158     158      45      45      45       0
   -------------------------------------------------------

 OEINTS: Overlap, kinetic, potential, dipole, and quadrupole integrals
         stored in file 35.

  ==> Integral Setup <==

  ==> DFJK: Density-Fitted J/K Matrices <==

    J tasked:                  Yes
    K tasked:                  Yes
    wK tasked:                  No
    OpenMP threads:              1
    Integrals threads:           1
    Memory (MB):              1430
    Algorithm:                Core
    Integral Cache:           NONE
    Schwarz Cutoff:          1E-12
    Fitting Condition:       1E-12

   => Auxiliary Basis Set <=

  Basis Set: 
    Number of shells: 270
    Number of basis function: 909
    Number of Cartesian functions: 909
    Spherical Harmonics?: false
    Max angular momentum: 3

  Minimum eigenvalue in the overlap matrix is 1.4933967869E-03.
  Using Symmetric Orthogonalization.
  SCF Guess: Core (One-Electron) Hamiltonian.

  ==> Iterations <==

                           Total Energy        Delta E     RMS |[F,P]|

   @DF-RHF iter   1: -1049.02215585606154   -1.04902e+03   6.75589e-02 
   @DF-RHF iter   2:  -721.94553722170303    3.27077e+02   7.98535e-02 DIIS
   @DF-RHF iter   3:  -962.94563499956803   -2.41000e+02   6.92782e-02 DIIS
   @DF-RHF iter   4: -1097.44842906196868   -1.34503e+02   4.70555e-02 DIIS
   @DF-RHF iter   5: -1116.18751132706939   -1.87391e+01   3.78550e-02 DIIS
   @DF-RHF iter   6: -1135.52214602261029   -1.93346e+01   2.18320e-02 DIIS
   @DF-RHF iter   7: -1145.00497131214570   -9.48283e+00   1.19494e-02 DIIS
   @DF-RHF iter   8: -1146.19681704450068   -1.19185e+00   3.10184e-03 DIIS
   @DF-RHF iter   9: -1146.27651677013455   -7.96997e-02   1.54328e-03 DIIS
   @DF-RHF iter  10: -1146.29904540406255   -2.25286e-02   5.27969e-04 DIIS
   @DF-RHF iter  11: -1146.30171841042670   -2.67301e-03   2.54153e-04 DIIS
   @DF-RHF iter  12: -1146.30250490679919   -7.86496e-04   8.89139e-05 DIIS
   @DF-RHF iter  13: -1146.30261461422151   -1.09707e-04   2.13853e-05 DIIS
   @DF-RHF iter  14: -1146.30262275502605   -8.14080e-06   5.47285e-06 DIIS
   @DF-RHF iter  15: -1146.30262324839828   -4.93372e-07   2.16434e-06 DIIS
   @DF-RHF iter  16: -1146.30262333757423   -8.91760e-08   5.33684e-07 DIIS

  ==> Post-Iterations <==

    Orbital Energies (a.u.)
    -----------------------

    Doubly Occupied:                                                      

       1A   -104.840998     2A    -26.362246     3A    -26.358446  
       4A    -26.351087     5A    -26.345985     6A    -26.344777  
       7A    -20.646154     8A    -11.526941     9A    -11.488103  
      10A    -11.398584    11A    -10.575782    12A     -8.045119  
      13A     -8.041589    14A     -8.041504    15A     -1.760887  
      16A     -1.716936    17A     -1.659854    18A     -1.653067  
      19A     -1.637691    20A     -1.483616    21A     -1.178366  
      22A     -1.051125    23A     -0.986147    24A     -0.917110  
      25A     -0.859841    26A     -0.850878    27A     -0.846040  
      28A     -0.823070    29A     -0.811575    30A     -0.791822  
      31A     -0.727049    32A     -0.723587    33A     -0.705133  
      34A     -0.700499    35A     -0.680167    36A     -0.673939  
      37A     -0.658150    38A     -0.655874    39A     -0.645014  
      40A     -0.624550    41A     -0.595816    42A     -0.578945  
      43A     -0.521860    44A     -0.473417    45A     -0.467044  

    Virtual:                                                              

      46A      0.172087    47A      0.236686    48A      0.257961  
      49A      0.273636    50A      0.349263    51A      0.364377  
      52A      0.409831    53A      0.420248    54A      0.449358  
      55A      0.479336    56A      0.497638    57A      0.551082  
      58A      0.623659    59A      0.628203    60A      0.645021  
      61A      0.669482    62A      0.701579    63A      0.710583  
      64A      0.740236    65A      0.756235    66A      0.764460  
      67A      0.795784    68A      0.850297    69A      0.929837  
      70A      0.973868    71A      0.979475    72A      1.058547  
      73A      1.065484    74A      1.099747    75A      1.132337  
      76A      1.169188    77A      1.205892    78A      1.249694  
      79A      1.279219    80A      1.289043    81A      1.313199  
      82A      1.321856    83A      1.379260    84A      1.392074  
      85A      1.413192    86A      1.434806    87A      1.458748  
      88A      1.504627    89A      1.587276    90A      1.594749  
      91A      1.615301    92A      1.630233    93A      1.635776  
      94A      1.646665    95A      1.652051    96A      1.658180  
      97A      1.667255    98A      1.682155    99A      1.699875  
     100A      1.760826   101A      1.769522   102A      1.805483  
     103A      1.923842   104A      1.956499   105A      1.968297  
     106A      1.992702   107A      2.011332   108A      2.041632  
     109A      2.087972   110A      2.094541   111A      2.103635  
     112A      2.119686   113A      2.130310   114A      2.154263  
     115A      2.190277   116A      2.250384   117A      2.264321  
     118A      2.297699   119A      2.300602   120A      2.313031  
     121A      2.343172   122A      2.363870   123A      2.386359  
     124A      2.396161   125A      2.396809   126A      2.407264  
     127A      2.433057   128A      2.505853   129A      2.570816  
     130A      2.619073   131A      2.643693   132A      2.718415  
     133A      2.740126   134A      2.790437   135A      2.869965  
     136A      2.896896   137A      2.999781   138A      3.034315  
     139A      3.125481   140A      3.164324   141A      3.179657  
     142A      3.273778   143A      3.308883   144A      3.399896  
     145A      3.410254   146A      3.417970   147A      3.447490  
     148A      3.463319   149A      4.337256   150A      4.516766  
     151A      4.591387   152A      4.703544   153A      4.722372  
     154A      4.922239   155A      4.933555   156A      5.135918  
     157A      5.688750   158A      6.017331  

    Final Occupation by Irrep:
              A 
    DOCC [    45 ]

  Energy converged.

  @DF-RHF Final Energy: -1146.30262333757423

   => Energetics <=

    Nuclear Repulsion Energy =            739.0388519489115424
    One-Electron Energy =               -3061.0300350856477962
    Two-Electron Energy =                1175.6885597991590657
    DFT Exchange-Correlation Energy =       0.0000000000000000
    Empirical Dispersion Energy =           0.0000000000000000
    PCM Polarization Energy =               0.0000000000000000
    EFP Energy =                            0.0000000000000000
    Total Energy =                      -1146.3026233375771881

    Alert: EFP and PCM quantities not currently incorporated into SCF psivars.

Properties will be evaluated at   0.000000,   0.000000,   0.000000 Bohr
  ==> Properties <==


Properties computed using the SCF density matrix

  Nuclear Dipole Moment: (a.u.)
     X:    -3.5662      Y:     0.6102      Z:     0.6776

  Electronic Dipole Moment: (a.u.)
     X:     2.9985      Y:    -0.8232      Z:    -0.6580

  Dipole Moment: (a.u.)
     X:    -0.5677      Y:    -0.2130      Z:     0.0196     Total:     0.6067

  Dipole Moment: (Debye)
     X:    -1.4429      Y:    -0.5414      Z:     0.0498     Total:     1.5420


  Saving occupied orbitals to File 180.

*** tstop() called on cx1-3-4-4.cx1.hpc.ic.ac.uk at Tue Jul  5 16:52:24 2016
Module time:
	user time   =      19.41 seconds =       0.32 minutes
	system time =       0.23 seconds =       0.00 minutes
	total time  =         20 seconds =       0.33 minutes
Total time:
	user time   =      19.41 seconds =       0.32 minutes
	system time =       0.23 seconds =       0.00 minutes
	total time  =         20 seconds =       0.33 minutes


Properties will be evaluated at   0.000000,   0.000000,   0.000000 Bohr

Properties computed using the  density matrix

  Nuclear Dipole Moment: (a.u.)
     X:    -3.5662      Y:     0.6102      Z:     0.6776

  Electronic Dipole Moment: (a.u.)
     X:     2.9985      Y:    -0.8232      Z:    -0.6580

  Dipole Moment: (a.u.)
     X:    -0.5677      Y:    -0.2130      Z:     0.0196     Total:     0.6067

  Dipole Moment: (Debye)
     X:    -1.4429      Y:    -0.5414      Z:     0.0498     Total:     1.5420

  Quadrupole Moment: (Debye Ang)
    XX:   -59.6787     YY:   -63.2813     ZZ:   -58.7751
    XY:     1.8235     XZ:    -3.9777     YZ:    -1.0742

  Traceless Quadrupole Moment: (Debye Ang)
    XX:     0.8997     YY:    -2.7030     ZZ:     1.8033
    XY:     1.8235     XZ:    -3.9777     YZ:    -1.0742

  Mulliken Charges: (a.u.)
   Center  Symbol    Alpha    Beta     Spin     Total
       1     H     0.40131  0.40131  0.00000  0.19738
       2     C     2.56594  2.56594  0.00000  0.86811
       3     O     4.29260  4.29260  0.00000 -0.58519
       4     F     4.68715  4.68715  0.00000 -0.37430
       5     F     4.68468  4.68468  0.00000 -0.36935
       6     C     3.07722  3.07722  0.00000 -0.15444
       7     C     2.41717  2.41717  0.00000  1.16566
       8    CL     8.49514  8.49514  0.00000  0.00972
       9     H     0.36284  0.36284  0.00000  0.27432
      10     F     4.67579  4.67579  0.00000 -0.35159
      11     F     4.67205  4.67205  0.00000 -0.34410
      12     F     4.66810  4.66810  0.00000 -0.33621

   Total alpha = 45.00000, Total beta = 45.00000, Total charge =  0.00000


*** PSI4 exiting successfully. Buy a developer a beer!
