    -----------------------------------------------------------------------
          Psi4: An Open-Source Ab Initio Electronic Structure Package
                              Psi4 (no tag) Driver

                          Git: Rev {detached?}  

    J. M. Turney, A. C. Simmonett, R. M. Parrish, E. G. Hohenstein,
    F. A. Evangelista, J. T. Fermann, B. J. Mintz, L. A. Burns, J. J. Wilke,
    M. L. Abrams, N. J. Russ, M. L. Leininger, C. L. Janssen, E. T. Seidl,
    W. D. Allen, H. F. Schaefer, R. A. King, E. F. Valeev, C. D. Sherrill,
    and T. D. Crawford, WIREs Comput. Mol. Sci. 2, 556-565 (2012)
    (doi: 10.1002/wcms.93)

                         Additional Contributions by
    A. E. DePrince, M. Saitow, U. Bozkaya, A. Yu. Sokolov
    -----------------------------------------------------------------------


    Psi4 started on: Tue Jul  5 16:27:35 2016

    Process ID:  20451
    PSI4DATADIR: /export131/home/mjharvey/miniconda3/share
    Memory level set to 256.000 MB

  ==> Input File <==

--------------------------------------------------------------------------
set {
	reference rhf
	basis 6-31G*
}


set_num_threads( 1 )
memory 2 gb

molecule MOL {
0 1

H	 -0.944757	 -0.000069	 1.678017
O	 -0.042387	 -0.000390	 1.388199
C	 -0.001487	 0.000018	 -0.026623
C	 -0.478959	 1.355136	 -0.552282
C	 1.423774	 -0.295391	 -0.497799
C	 -0.953598	 -1.111654	 -0.453343
H	 -0.499370	 1.374242	 -1.637232
H	 0.181685	 2.152803	 -0.220345
H	 -1.476145	 1.570107	 -0.184283
H	 1.481367	 -0.341435	 -1.580690
H	 2.109579	 0.479662	 -0.163290
H	 1.764000	 -1.242251	 -0.093349
H	 -0.995111	 -1.194378	 -1.534629
H	 -1.952763	 -0.911775	 -0.082932
H	 -0.626717	 -2.061667	 -0.045892

	symmetry c1
}
ee = energy('scf')
oeprop('DIPOLE', 'QUADRUPOLE', 'MULLIKEN_CHARGES')
f=open( 'psi4out.xyz', 'w' )
f.write( "15  " )
f.write( str(ee) + "\n" )
f.write( MOL.save_string_xyz() )
f.close()
--------------------------------------------------------------------------

  Memory set to   2.000 GiB by Python script.

*** tstart() called on cx1-3-15-2.cx1.hpc.ic.ac.uk
*** at Tue Jul  5 16:27:36 2016


         ---------------------------------------------------------
                                   SCF
            by Justin Turney, Rob Parrish, and Andy Simmonett
                              RHF Reference
                        1 Threads,   2000 MiB Core
         ---------------------------------------------------------

  ==> Geometry <==

    Molecular point group: c1
    Full point group: C1

    Geometry (in Angstrom), charge = 0, multiplicity = 1:

       Center              X                  Y                   Z               Mass       
    ------------   -----------------  -----------------  -----------------  -----------------
           H         -0.920902927563     0.010799423508     1.678709630518     1.007825032070
           O         -0.018532927563     0.010478423508     1.388891630518    15.994914619560
           C          0.022367072437     0.010886423508    -0.025930369482    12.000000000000
           C         -0.455104927563     1.366004423508    -0.551589369482    12.000000000000
           C          1.447628072437    -0.284522576492    -0.497106369482    12.000000000000
           C         -0.929743927563    -1.100785576492    -0.452650369482    12.000000000000
           H         -0.475515927563     1.385110423508    -1.636539369482     1.007825032070
           H          0.205539072437     2.163671423508    -0.219652369482     1.007825032070
           H         -1.452290927563     1.580975423508    -0.183590369482     1.007825032070
           H          1.505221072437    -0.330566576492    -1.579997369482     1.007825032070
           H          2.133433072437     0.490530423508    -0.162597369482     1.007825032070
           H          1.787854072437    -1.231382576492    -0.092656369482     1.007825032070
           H         -0.971256927563    -1.183509576492    -1.533936369482     1.007825032070
           H         -1.928908927563    -0.900906576492    -0.082239369482     1.007825032070
           H         -0.602862927563    -2.050798576492    -0.045199369482     1.007825032070

  Running in c1 symmetry.

  Rotational constants: A =      0.16096  B =      0.15809  C =      0.14875 [cm^-1]
  Rotational constants: A =   4825.57046  B =   4739.38801  C =   4459.46958 [MHz]
  Nuclear repulsion =  200.430759784854530

  Charge       = 0
  Multiplicity = 1
  Electrons    = 42
  Nalpha       = 21
  Nbeta        = 21

  ==> Algorithm <==

  SCF Algorithm Type is DF.
  DIIS enabled.
  MOM disabled.
  Fractional occupation disabled.
  Guess Type is CORE.
  Energy threshold   = 1.00e-06
  Density threshold  = 1.00e-06
  Integral threshold = 0.00e+00

  ==> Primary Basis <==

  Basis Set: 6-31G*
    Number of shells: 50
    Number of basis function: 95
    Number of Cartesian functions: 95
    Spherical Harmonics?: false
    Max angular momentum: 2

  ==> Pre-Iterations <==

   -------------------------------------------------------
    Irrep   Nso     Nmo     Nalpha   Nbeta   Ndocc  Nsocc
   -------------------------------------------------------
     A         95      95       0       0       0       0
   -------------------------------------------------------
    Total      95      95      21      21      21       0
   -------------------------------------------------------

 OEINTS: Overlap, kinetic, potential, dipole, and quadrupole integrals
         stored in file 35.

  ==> Integral Setup <==

  ==> DFJK: Density-Fitted J/K Matrices <==

    J tasked:                  Yes
    K tasked:                  Yes
    wK tasked:                  No
    OpenMP threads:              1
    Integrals threads:           1
    Memory (MB):              1430
    Algorithm:                Core
    Integral Cache:           NONE
    Schwarz Cutoff:          1E-12
    Fitting Condition:       1E-12

   => Auxiliary Basis Set <=

  Basis Set: 
    Number of shells: 210
    Number of basis function: 655
    Number of Cartesian functions: 655
    Spherical Harmonics?: false
    Max angular momentum: 3

  Minimum eigenvalue in the overlap matrix is 3.3336427200E-03.
  Using Symmetric Orthogonalization.
  SCF Guess: Core (One-Electron) Hamiltonian.

  ==> Iterations <==

                           Total Energy        Delta E     RMS |[F,P]|

   @DF-RHF iter   1:  -175.11352589596797   -1.75114e+02   1.02064e-01 
   @DF-RHF iter   2:  -187.02210682524802   -1.19086e+01   4.72635e-02 DIIS
   @DF-RHF iter   3:  -189.47231714804221   -2.45021e+00   7.55938e-02 DIIS
   @DF-RHF iter   4:  -218.29761395107570   -2.88253e+01   4.63343e-02 DIIS
   @DF-RHF iter   5:  -227.95175581805418   -9.65414e+00   3.03957e-02 DIIS
   @DF-RHF iter   6:  -229.53456166464852   -1.58281e+00   2.34461e-02 DIIS
   @DF-RHF iter   7:  -231.33050275973292   -1.79594e+00   1.28819e-02 DIIS
   @DF-RHF iter   8:  -232.07086689280342   -7.40364e-01   3.75380e-03 DIIS
   @DF-RHF iter   9:  -232.13395562736102   -6.30887e-02   1.84245e-03 DIIS
   @DF-RHF iter  10:  -232.15014520525366   -1.61896e-02   3.25840e-04 DIIS
   @DF-RHF iter  11:  -232.15071133948786   -5.66134e-04   8.52295e-05 DIIS
   @DF-RHF iter  12:  -232.15078519367680   -7.38542e-05   3.03455e-05 DIIS
   @DF-RHF iter  13:  -232.15079098811989   -5.79444e-06   5.80487e-06 DIIS
   @DF-RHF iter  14:  -232.15079125966653   -2.71547e-07   1.19729e-06 DIIS
   @DF-RHF iter  15:  -232.15079127340388   -1.37373e-08   3.11688e-07 DIIS

  ==> Post-Iterations <==

    Orbital Energies (a.u.)
    -----------------------

    Doubly Occupied:                                                      

       1A    -20.546973     2A    -11.282340     3A    -11.210798  
       4A    -11.209685     5A    -11.209497     6A     -1.360337  
       7A     -1.063220     8A     -0.942590     9A     -0.939414  
      10A     -0.776965    11A     -0.667639    12A     -0.626435  
      13A     -0.619932    14A     -0.574575    15A     -0.559054  
      16A     -0.536293    17A     -0.517554    18A     -0.508924  
      19A     -0.503114    20A     -0.455209    21A     -0.422934  

    Virtual:                                                              

      22A      0.206674    23A      0.265313    24A      0.276644  
      25A      0.303733    26A      0.309416    27A      0.312127  
      28A      0.323744    29A      0.356111    30A      0.358715  
      31A      0.381139    32A      0.386781    33A      0.428157  
      34A      0.431104    35A      0.456243    36A      0.707187  
      37A      0.708458    38A      0.765011    39A      0.781460  
      40A      0.797620    41A      0.871005    42A      0.904434  
      43A      0.917874    44A      0.924126    45A      1.000462  
      46A      1.004134    47A      1.092092    48A      1.125137  
      49A      1.149163    50A      1.163111    51A      1.178833  
      52A      1.182055    53A      1.193726    54A      1.215918  
      55A      1.218504    56A      1.220013    57A      1.258566  
      58A      1.265073    59A      1.312274    60A      1.346597  
      61A      1.465506    62A      1.626865    63A      1.673738  
      64A      1.680494    65A      1.705876    66A      1.838980  
      67A      2.013959    68A      2.024860    69A      2.035641  
      70A      2.064636    71A      2.154965    72A      2.173550  
      73A      2.228357    74A      2.258021    75A      2.415537  
      76A      2.422793    77A      2.476332    78A      2.552625  
      79A      2.568425    80A      2.575319    81A      2.604590  
      82A      2.620059    83A      2.630313    84A      2.718482  
      85A      2.779900    86A      2.973431    87A      3.022055  
      88A      3.073703    89A      3.095202    90A      3.272852  
      91A      4.220996    92A      4.622407    93A      4.740144  
      94A      4.745111    95A      5.061934  

    Final Occupation by Irrep:
              A 
    DOCC [    21 ]

  Energy converged.

  @DF-RHF Final Energy:  -232.15079127340388

   => Energetics <=

    Nuclear Repulsion Energy =            200.4307597848545299
    One-Electron Energy =                -712.0960315365978204
    Two-Electron Energy =                 279.5144804783404879
    DFT Exchange-Correlation Energy =       0.0000000000000000
    Empirical Dispersion Energy =           0.0000000000000000
    PCM Polarization Energy =               0.0000000000000000
    EFP Energy =                            0.0000000000000000
    Total Energy =                       -232.1507912734027741

    Alert: EFP and PCM quantities not currently incorporated into SCF psivars.

Properties will be evaluated at   0.000000,   0.000000,   0.000000 Bohr
  ==> Properties <==


Properties computed using the SCF density matrix

  Nuclear Dipole Moment: (a.u.)
     X:    -0.6748      Y:    -0.0619      Z:    -3.6098

  Electronic Dipole Moment: (a.u.)
     X:     0.1854      Y:     0.0478      Z:     3.1915

  Dipole Moment: (a.u.)
     X:    -0.4894      Y:    -0.0141      Z:    -0.4183     Total:     0.6440

  Dipole Moment: (Debye)
     X:    -1.2440      Y:    -0.0358      Z:    -1.0633     Total:     1.6369


  Saving occupied orbitals to File 180.

*** tstop() called on cx1-3-15-2.cx1.hpc.ic.ac.uk at Tue Jul  5 16:27:43 2016
Module time:
	user time   =       6.61 seconds =       0.11 minutes
	system time =       0.04 seconds =       0.00 minutes
	total time  =          7 seconds =       0.12 minutes
Total time:
	user time   =       6.61 seconds =       0.11 minutes
	system time =       0.04 seconds =       0.00 minutes
	total time  =          7 seconds =       0.12 minutes


Properties will be evaluated at   0.000000,   0.000000,   0.000000 Bohr

Properties computed using the  density matrix

  Nuclear Dipole Moment: (a.u.)
     X:    -0.6748      Y:    -0.0619      Z:    -3.6098

  Electronic Dipole Moment: (a.u.)
     X:     0.1854      Y:     0.0478      Z:     3.1915

  Dipole Moment: (a.u.)
     X:    -0.4894      Y:    -0.0141      Z:    -0.4183     Total:     0.6440

  Dipole Moment: (Debye)
     X:    -1.2440      Y:    -0.0358      Z:    -1.0633     Total:     1.6369

  Quadrupole Moment: (Debye Ang)
    XX:   -31.6594     YY:   -33.5781     ZZ:   -34.6067
    XY:    -0.0415     XZ:    -3.1794     YZ:    -0.0515

  Traceless Quadrupole Moment: (Debye Ang)
    XX:     1.6220     YY:    -0.2967     ZZ:    -1.3253
    XY:    -0.0415     XZ:    -3.1794     YZ:    -0.0515

  Mulliken Charges: (a.u.)
   Center  Symbol    Alpha    Beta     Spin     Total
       1     H     0.28250  0.28250  0.00000  0.43499
       2     O     4.37749  4.37749  0.00000 -0.75498
       3     C     2.85164  2.85164  0.00000  0.29671
       4     C     3.23646  3.23646  0.00000 -0.47292
       5     C     3.23737  3.23737  0.00000 -0.47475
       6     C     3.24259  3.24259  0.00000 -0.48519
       7     H     0.42263  0.42263  0.00000  0.15473
       8     H     0.41328  0.41328  0.00000  0.17344
       9     H     0.42621  0.42621  0.00000  0.14758
      10     H     0.42120  0.42120  0.00000  0.15760
      11     H     0.41358  0.41358  0.00000  0.17284
      12     H     0.41315  0.41315  0.00000  0.17371
      13     H     0.42209  0.42209  0.00000  0.15583
      14     H     0.42804  0.42804  0.00000  0.14393
      15     H     0.41176  0.41176  0.00000  0.17647

   Total alpha = 21.00000, Total beta = 21.00000, Total charge =  0.00000


*** PSI4 exiting successfully. Buy a developer a beer!
