    -----------------------------------------------------------------------
          Psi4: An Open-Source Ab Initio Electronic Structure Package
                              Psi4 (no tag) Driver

                          Git: Rev {detached?}  

    J. M. Turney, A. C. Simmonett, R. M. Parrish, E. G. Hohenstein,
    F. A. Evangelista, J. T. Fermann, B. J. Mintz, L. A. Burns, J. J. Wilke,
    M. L. Abrams, N. J. Russ, M. L. Leininger, C. L. Janssen, E. T. Seidl,
    W. D. Allen, H. F. Schaefer, R. A. King, E. F. Valeev, C. D. Sherrill,
    and T. D. Crawford, WIREs Comput. Mol. Sci. 2, 556-565 (2012)
    (doi: 10.1002/wcms.93)

                         Additional Contributions by
    A. E. DePrince, M. Saitow, U. Bozkaya, A. Yu. Sokolov
    -----------------------------------------------------------------------


    Psi4 started on: Tue Jul  5 18:25:45 2016

    Process ID:   6961
    PSI4DATADIR: /export131/home/mjharvey/miniconda3/share
    Memory level set to 256.000 MB

  ==> Input File <==

--------------------------------------------------------------------------
set {
	reference rhf
	basis 6-31G*
}


set_num_threads( 1 )
memory 2 gb

molecule MOL {
0 1

H	 -2.447106	 0.827757	 1.030515
O	 -1.613479	 0.419212	 1.212803
C	 -0.944602	 1.136349	 2.218970
C	 -1.554719	 0.941751	 3.602667
H	 0.073981	 0.770101	 2.213844
H	 -0.908013	 2.196541	 1.971113
C	 -1.831836	 -0.520419	 3.960625
H	 -0.884583	 1.377147	 4.339359
H	 -2.484180	 1.507080	 3.645935
C	 -2.952623	 -1.133673	 3.116484
H	 -2.092421	 -0.587134	 5.013245
H	 -0.921844	 -1.105117	 3.825045
C	 -2.846253	 -0.863774	 1.611100
H	 -2.983114	 -2.208125	 3.288150
H	 -3.904887	 -0.743614	 3.469680
C	 -3.034785	 0.600176	 1.203932
H	 -1.866213	 -1.194103	 1.273134
H	 -3.571333	 -1.481310	 1.083137
C	 -4.465221	 1.099239	 1.418936
H	 -2.768111	 0.718158	 0.154611
H	 -2.353375	 1.235373	 1.764742
C	 -5.411106	 0.710962	 0.283063
H	 -4.847259	 0.703375	 2.357459
H	 -4.456195	 2.181939	 1.526468
H	 -5.467273	 -0.368187	 0.171231
H	 -6.416738	 1.077069	 0.465559
H	 -5.076338	 1.123259	 -0.664726

	symmetry c1
}
set optking {
	frozen_dihedral = ("
		14 10 7 4,
		14 10 13 16,
		10 7 4 8,
		8 4 3 2,
		10 13 16 20,
		4 3 2 1
	")
}

ee = energy('scf')
oeprop('DIPOLE', 'QUADRUPOLE', 'MULLIKEN_CHARGES')
f=open( 'psi4out.xyz', 'w' )
f.write( "27  " )
f.write( str(ee) + "\n" )
f.write( MOL.save_string_xyz() )
f.close()
--------------------------------------------------------------------------

  Memory set to   2.000 GiB by Python script.

*** tstart() called on cx1-3-4-2.cx1.hpc.ic.ac.uk
*** at Tue Jul  5 18:25:46 2016


         ---------------------------------------------------------
                                   SCF
            by Justin Turney, Rob Parrish, and Andy Simmonett
                              RHF Reference
                        1 Threads,   2000 MiB Core
         ---------------------------------------------------------

  ==> Geometry <==

    Molecular point group: c1
    Full point group: C1

    Geometry (in Angstrom), charge = 0, multiplicity = 1:

       Center              X                  Y                   Z               Mass       
    ------------   -----------------  -----------------  -----------------  -----------------
           H          0.289219877896     0.547818678116    -1.010472515909     1.007825032070
           O          1.122846877896     0.139273678116    -0.828184515909    15.994914619560
           C          1.791723877896     0.856410678116     0.177982484091    12.000000000000
           C          1.181606877896     0.661812678116     1.561679484091    12.000000000000
           H          2.810306877896     0.490162678116     0.172856484091     1.007825032070
           H          1.828312877896     1.916602678116    -0.069874515909     1.007825032070
           C          0.904489877896    -0.800357321884     1.919637484091    12.000000000000
           H          1.851742877896     1.097208678116     2.298371484091     1.007825032070
           H          0.252145877896     1.227141678116     1.604947484091     1.007825032070
           C         -0.216297122104    -1.413611321884     1.075496484091    12.000000000000
           H          0.643904877896    -0.867072321884     2.972257484091     1.007825032070
           H          1.814481877896    -1.385055321884     1.784057484091     1.007825032070
           C         -0.109927122104    -1.143712321884    -0.429887515909    12.000000000000
           H         -0.246788122104    -2.488063321884     1.247162484091     1.007825032070
           H         -1.168561122104    -1.023552321884     1.428692484091     1.007825032070
           C         -0.298459122104     0.320237678116    -0.837055515909    12.000000000000
           H          0.870112877896    -1.474041321884    -0.767853515909     1.007825032070
           H         -0.835007122104    -1.761248321884    -0.957850515909     1.007825032070
           C         -1.728895122104     0.819300678116    -0.622051515909    12.000000000000
           H         -0.031785122104     0.438219678116    -1.886376515909     1.007825032070
           H          0.382950877896     0.955434678116    -0.276245515909     1.007825032070
           C         -2.674780122104     0.431023678116    -1.757924515909    12.000000000000
           H         -2.110933122104     0.423436678116     0.316471484091     1.007825032070
           H         -1.719869122104     1.902000678116    -0.514519515909     1.007825032070
           H         -2.730947122104    -0.648125321884    -1.869756515909     1.007825032070
           H         -3.680412122104     0.797130678116    -1.575428515909     1.007825032070
           H         -2.340012122104     0.843320678116    -2.705713515909     1.007825032070

  Running in c1 symmetry.

  Rotational constants: A =      0.08610  B =      0.03898  C =      0.03406 [cm^-1]
  Rotational constants: A =   2581.32023  B =   1168.56040  C =   1020.98894 [MHz]
  Nuclear repulsion =  551.652922024826353

  Charge       = 0
  Multiplicity = 1
  Electrons    = 74
  Nalpha       = 37
  Nbeta        = 37

  ==> Algorithm <==

  SCF Algorithm Type is DF.
  DIIS enabled.
  MOM disabled.
  Fractional occupation disabled.
  Guess Type is CORE.
  Energy threshold   = 1.00e-06
  Density threshold  = 1.00e-06
  Integral threshold = 0.00e+00

  ==> Primary Basis <==

  Basis Set: 6-31G*
    Number of shells: 90
    Number of basis function: 171
    Number of Cartesian functions: 171
    Spherical Harmonics?: false
    Max angular momentum: 2

  ==> Pre-Iterations <==

   -------------------------------------------------------
    Irrep   Nso     Nmo     Nalpha   Nbeta   Ndocc  Nsocc
   -------------------------------------------------------
     A        171     171       0       0       0       0
   -------------------------------------------------------
    Total     171     171      37      37      37       0
   -------------------------------------------------------

 OEINTS: Overlap, kinetic, potential, dipole, and quadrupole integrals
         stored in file 35.

  ==> Integral Setup <==

  ==> DFJK: Density-Fitted J/K Matrices <==

    J tasked:                  Yes
    K tasked:                  Yes
    wK tasked:                  No
    OpenMP threads:              1
    Integrals threads:           1
    Memory (MB):              1430
    Algorithm:                Core
    Integral Cache:           NONE
    Schwarz Cutoff:          1E-12
    Fitting Condition:       1E-12

   => Auxiliary Basis Set <=

  Basis Set: 
    Number of shells: 378
    Number of basis function: 1179
    Number of Cartesian functions: 1179
    Spherical Harmonics?: false
    Max angular momentum: 3

  Minimum eigenvalue in the overlap matrix is 1.3239455920E-03.
  Using Symmetric Orthogonalization.
  SCF Guess: Core (One-Electron) Hamiltonian.

  ==> Iterations <==

                           Total Energy        Delta E     RMS |[F,P]|

   @DF-RHF iter   1:  -247.99891584169529   -2.47999e+02   7.04576e-02 
   @DF-RHF iter   2:  -136.22357078069615    1.11775e+02   7.00156e-02 DIIS
   @DF-RHF iter   3:  -290.08702255410924   -1.53863e+02   5.40246e-02 DIIS
   @DF-RHF iter   4:  -308.69440049463537   -1.86074e+01   5.19286e-02 DIIS
   @DF-RHF iter   5:  -379.91758642939408   -7.12232e+01   1.79733e-02 DIIS
   @DF-RHF iter   6:  -386.58416527732606   -6.66658e+00   5.81335e-03 DIIS
   @DF-RHF iter   7:  -387.06667414089895   -4.82509e-01   1.70342e-03 DIIS
   @DF-RHF iter   8:  -387.10191164976368   -3.52375e-02   6.12816e-04 DIIS
   @DF-RHF iter   9:  -387.10824899842567   -6.33735e-03   2.44963e-04 DIIS
   @DF-RHF iter  10:  -387.10939716084067   -1.14816e-03   6.95931e-05 DIIS
   @DF-RHF iter  11:  -387.10952369022039   -1.26529e-04   2.04322e-05 DIIS
   @DF-RHF iter  12:  -387.10953953579394   -1.58456e-05   6.42569e-06 DIIS
   @DF-RHF iter  13:  -387.10954129828224   -1.76249e-06   2.60186e-06 DIIS
   @DF-RHF iter  14:  -387.10954164093607   -3.42654e-07   9.02959e-07 DIIS

  ==> Post-Iterations <==

    Orbital Energies (a.u.)
    -----------------------

    Doubly Occupied:                                                      

       1A    -20.494624     2A    -11.278800     3A    -11.267746  
       4A    -11.227665     5A    -11.219154     6A    -11.210841  
       7A    -11.193033     8A    -11.191818     9A    -11.174524  
      10A     -1.641470    11A     -1.146156    12A     -1.081165  
      13A     -1.018118    14A     -1.005311    15A     -0.915656  
      16A     -0.880020    17A     -0.833800    18A     -0.784295  
      19A     -0.750516    20A     -0.672559    21A     -0.664155  
      22A     -0.637897    23A     -0.616371    24A     -0.590281  
      25A     -0.580547    26A     -0.554511    27A     -0.545219  
      28A     -0.523176    29A     -0.504173    30A     -0.499205  
      31A     -0.466295    32A     -0.465709    33A     -0.462038  
      34A     -0.449323    35A     -0.440154    36A     -0.350273  
      37A     -0.248549  

    Virtual:                                                              

      38A      0.201075    39A      0.240236    40A      0.251143  
      41A      0.256153    42A      0.274921    43A      0.281437  
      44A      0.299415    45A      0.311194    46A      0.314354  
      47A      0.319249    48A      0.329697    49A      0.338175  
      50A      0.345053    51A      0.357310    52A      0.374113  
      53A      0.381844    54A      0.388659    55A      0.406897  
      56A      0.417399    57A      0.436859    58A      0.448446  
      59A      0.460239    60A      0.465190    61A      0.492143  
      62A      0.519771    63A      0.576244    64A      0.685320  
      65A      0.721319    66A      0.726592    67A      0.733501  
      68A      0.750382    69A      0.770464    70A      0.780805  
      71A      0.796999    72A      0.835099    73A      0.877734  
      74A      0.894258    75A      0.900302    76A      0.914788  
      77A      0.954559    78A      0.972737    79A      0.984080  
      80A      1.001612    81A      1.014592    82A      1.049924  
      83A      1.077735    84A      1.098909    85A      1.103265  
      86A      1.133683    87A      1.143434    88A      1.145993  
      89A      1.158473    90A      1.165497    91A      1.173084  
      92A      1.183506    93A      1.191995    94A      1.196595  
      95A      1.213986    96A      1.226305    97A      1.233815  
      98A      1.255971    99A      1.263876   100A      1.282029  
     101A      1.292590   102A      1.312728   103A      1.325261  
     104A      1.367000   105A      1.421055   106A      1.428795  
     107A      1.509065   108A      1.583180   109A      1.592469  
     110A      1.630617   111A      1.691740   112A      1.726002  
     113A      1.731980   114A      1.766050   115A      1.797016  
     116A      1.834976   117A      1.892191   118A      1.921071  
     119A      1.957119   120A      2.003521   121A      2.031926  
     122A      2.057145   123A      2.097455   124A      2.137016  
     125A      2.174168   126A      2.192097   127A      2.235627  
     128A      2.246499   129A      2.271581   130A      2.305584  
     131A      2.323970   132A      2.344589   133A      2.378462  
     134A      2.392054   135A      2.409445   136A      2.449705  
     137A      2.469198   138A      2.524301   139A      2.546161  
     140A      2.573593   141A      2.644907   142A      2.668839  
     143A      2.683662   144A      2.698623   145A      2.713880  
     146A      2.734218   147A      2.747047   148A      2.777101  
     149A      2.793474   150A      2.803488   151A      2.830651  
     152A      2.881062   153A      2.947915   154A      2.979147  
     155A      3.016847   156A      3.035266   157A      3.045738  
     158A      3.110930   159A      3.160631   160A      3.268650  
     161A      3.557253   162A      4.539715   163A      4.588829  
     164A      4.644724   165A      4.728486   166A      4.830978  
     167A      4.879327   168A      4.974596   169A      5.001864  
     170A      5.074550   171A      5.151771  

    Final Occupation by Irrep:
              A 
    DOCC [    37 ]

  Energy converged.

  @DF-RHF Final Energy:  -387.10954164093607

   => Energetics <=

    Nuclear Repulsion Energy =            551.6529220248263528
    One-Electron Energy =               -1618.3546198890828691
    Two-Electron Energy =                 679.5921562233183977
    DFT Exchange-Correlation Energy =       0.0000000000000000
    Empirical Dispersion Energy =           0.0000000000000000
    PCM Polarization Energy =               0.0000000000000000
    EFP Energy =                            0.0000000000000000
    Total Energy =                       -387.1095416409380050

    Alert: EFP and PCM quantities not currently incorporated into SCF psivars.

Properties will be evaluated at   0.000000,   0.000000,   0.000000 Bohr
  ==> Properties <==


Properties computed using the SCF density matrix

  Nuclear Dipole Moment: (a.u.)
     X:    -3.8580      Y:     0.9300      Z:     0.1748

  Electronic Dipole Moment: (a.u.)
     X:     4.4565      Y:    -0.5518      Z:     0.1922

  Dipole Moment: (a.u.)
     X:     0.5984      Y:     0.3782      Z:     0.3670     Total:     0.7974

  Dipole Moment: (Debye)
     X:     1.5210      Y:     0.9612      Z:     0.9328     Total:     2.0267


  Saving occupied orbitals to File 180.

*** tstop() called on cx1-3-4-2.cx1.hpc.ic.ac.uk at Tue Jul  5 18:26:20 2016
Module time:
	user time   =      32.91 seconds =       0.55 minutes
	system time =       0.32 seconds =       0.01 minutes
	total time  =         34 seconds =       0.57 minutes
Total time:
	user time   =      32.91 seconds =       0.55 minutes
	system time =       0.32 seconds =       0.01 minutes
	total time  =         34 seconds =       0.57 minutes


Properties will be evaluated at   0.000000,   0.000000,   0.000000 Bohr

Properties computed using the  density matrix

  Nuclear Dipole Moment: (a.u.)
     X:    -3.8580      Y:     0.9300      Z:     0.1748

  Electronic Dipole Moment: (a.u.)
     X:     4.4565      Y:    -0.5518      Z:     0.1922

  Dipole Moment: (a.u.)
     X:     0.5984      Y:     0.3782      Z:     0.3670     Total:     0.7974

  Dipole Moment: (Debye)
     X:     1.5210      Y:     0.9612      Z:     0.9328     Total:     2.0267

  Quadrupole Moment: (Debye Ang)
    XX:   -61.8020     YY:   -60.4458     ZZ:   -60.0011
    XY:     1.8557     XZ:     0.6873     YZ:    -0.6783

  Traceless Quadrupole Moment: (Debye Ang)
    XX:    -1.0523     YY:     0.3039     ZZ:     0.7485
    XY:     1.8557     XZ:     0.6873     YZ:    -0.6783

  Mulliken Charges: (a.u.)
   Center  Symbol    Alpha    Beta     Spin     Total
       1     H     0.41848  0.41848  0.00000  0.16304
       2     O     4.28642  4.28642  0.00000 -0.57283
       3     C     3.07011  3.07011  0.00000 -0.14023
       4     C     3.19065  3.19065  0.00000 -0.38131
       5     H     0.38855  0.38855  0.00000  0.22291
       6     H     0.40916  0.40916  0.00000  0.18169
       7     C     3.15065  3.15065  0.00000 -0.30131
       8     H     0.41163  0.41163  0.00000  0.17675
       9     H     0.40398  0.40398  0.00000  0.19203
      10     C     3.15058  3.15058  0.00000 -0.30116
      11     H     0.41581  0.41581  0.00000  0.16838
      12     H     0.42275  0.42275  0.00000  0.15449
      13     C     3.16584  3.16584  0.00000 -0.33167
      14     H     0.41817  0.41817  0.00000  0.16366
      15     H     0.42143  0.42143  0.00000  0.15715
      16     C     3.09420  3.09420  0.00000 -0.18840
      17     H     0.39152  0.39152  0.00000  0.21696
      18     H     0.43657  0.43657  0.00000  0.12686
      19     C     3.16601  3.16601  0.00000 -0.33203
      20     H     0.37459  0.37459  0.00000  0.25081
      21     H     0.42792  0.42792  0.00000  0.14417
      22     C     3.24377  3.24377  0.00000 -0.48753
      23     H     0.42808  0.42808  0.00000  0.14384
      24     H     0.43623  0.43623  0.00000  0.12754
      25     H     0.42257  0.42257  0.00000  0.15487
      26     H     0.42351  0.42351  0.00000  0.15299
      27     H     0.43084  0.43084  0.00000  0.13833

   Total alpha = 37.00000, Total beta = 37.00000, Total charge =  0.00000


*** PSI4 exiting successfully. Buy a developer a beer!
