
    -----------------------------------------------------------------------
          Psi4: An Open-Source Ab Initio Electronic Structure Package
                               Psi4 1.1 release

                         Git: Rev {HEAD} add49b9 


    R. M. Parrish, L. A. Burns, D. G. A. Smith, A. C. Simmonett,
    A. E. DePrince III, E. G. Hohenstein, U. Bozkaya, A. Yu. Sokolov,
    R. Di Remigio, R. M. Richard, J. F. Gonthier, A. M. James,
    H. R. McAlexander, A. Kumar, M. Saitow, X. Wang, B. P. Pritchard,
    P. Verma, H. F. Schaefer III, K. Patkowski, R. A. King, E. F. Valeev,
    F. A. Evangelista, J. M. Turney, T. D. Crawford, and C. D. Sherrill,
    J. Chem. Theory Comput. in press (2017).
    (doi: 10.1021/acs.jctc.7b00174)

    -----------------------------------------------------------------------


    Psi4 started on: Tuesday, 12 December 2017 10:56AM

    Process ID:  23114
    PSIDATADIR: /shared/raimis/opt/miniconda/envs/htmd/share/psi4
    Memory:     500.0 MiB
    Threads:    1
    
  ==> Input File <==

--------------------------------------------------------------------------
set_num_threads(1)
set_memory(4203741184)

set { reference rks }
set { basis cc-pVDZ }

molecule MOL {
    0 1
    noreorient
    nocom
    symmetry c1
    O    1.141000   0.017000   0.083000
    C    2.558000   0.086000  -0.005000
    C    3.192000  -0.789000   1.067000
    O    4.610000  -0.719000   0.979000
    H    0.789000   0.590000  -0.620000
    H    2.874000   1.128000   0.115000
    H    2.871000  -0.243000  -1.001000
    H    2.876000  -1.830000   0.947000
    H    2.879000  -0.459000   2.064000
    H    4.959721  -1.409535   1.568697
}

set optking { frozen_dihedral = (" 2 3 4 10 ") }

energy, wfn = energy('B3LYP-D3', return_wfn=True)

import os
os.chdir(os.environ['HTMD_PSI4_WORKDIR'])

oeprop(wfn, 'DIPOLE', 'QUADRUPOLE', 'MULLIKEN_CHARGES')

with open('psi4out.xyz', 'w') as f:
    f.write('10 ' )
    f.write('%.12f\n' % energy)
    f.write(MOL.save_string_xyz())
--------------------------------------------------------------------------
  Threads set to 1 by Python driver.

  Memory set to   3.915 GiB by Python driver.

*** tstart() called on computer06
*** at Tue Dec 12 10:56:08 2017

   => Loading Basis Set <=

    Name: CC-PVDZ
    Role: ORBITAL
    Keyword: BASIS
    atoms 1, 4 entry O          line   190 file /shared/raimis/opt/miniconda/envs/htmd/share/psi4/basis/cc-pvdz.gbs 
    atoms 2-3  entry C          line   130 file /shared/raimis/opt/miniconda/envs/htmd/share/psi4/basis/cc-pvdz.gbs 
    atoms 5-10 entry H          line    20 file /shared/raimis/opt/miniconda/envs/htmd/share/psi4/basis/cc-pvdz.gbs 


         ---------------------------------------------------------
                                   SCF
            by Justin Turney, Rob Parrish, and Andy Simmonett
                              RKS Reference
                        1 Threads,   4009 MiB Core
         ---------------------------------------------------------

  ==> Geometry <==

    Molecular point group: c1
    Full point group: C1

    Geometry (in Angstrom), charge = 0, multiplicity = 1:

       Center              X                  Y                   Z               Mass       
    ------------   -----------------  -----------------  -----------------  -----------------
           O          1.141000000000     0.017000000000     0.083000000000    15.994914619560
           C          2.558000000000     0.086000000000    -0.005000000000    12.000000000000
           C          3.192000000000    -0.789000000000     1.067000000000    12.000000000000
           O          4.610000000000    -0.719000000000     0.979000000000    15.994914619560
           H          0.789000000000     0.590000000000    -0.620000000000     1.007825032070
           H          2.874000000000     1.128000000000     0.115000000000     1.007825032070
           H          2.871000000000    -0.243000000000    -1.001000000000     1.007825032070
           H          2.876000000000    -1.830000000000     0.947000000000     1.007825032070
           H          2.879000000000    -0.459000000000     2.064000000000     1.007825032070
           H          4.959721000000    -1.409535000000     1.568697000000     1.007825032070

  Running in c1 symmetry.

  Rotational constants: A =      0.82397  B =      0.02538  C =      0.02485 [cm^-1]
  Rotational constants: A =  24702.02315  B =    760.72925  C =    744.99242 [MHz]
  Nuclear repulsion =  129.444682530591905

  Charge       = 0
  Multiplicity = 1
  Electrons    = 34
  Nalpha       = 17
  Nbeta        = 17

  ==> Algorithm <==

  SCF Algorithm Type is DF.
  DIIS enabled.
  MOM disabled.
  Fractional occupation disabled.
  Guess Type is SAD.
  Energy threshold   = 1.00e-06
  Density threshold  = 1.00e-06
  Integral threshold = 0.00e+00

  ==> Primary Basis <==

  Basis Set: CC-PVDZ
    Blend: CC-PVDZ
    Number of shells: 42
    Number of basis function: 86
    Number of Cartesian functions: 90
    Spherical Harmonics?: true
    Max angular momentum: 2

  ==> DFT Potential <==

   => B3LYP Composite Functional <= 

    B3LYP Hybrid-GGA Exchange-Correlation Functional (VWN1-RPA)

    P.J. Stephens et. al., J. Phys. Chem., 98, 11623-11627, 1994

    Points   =           5000
    Deriv    =              1
    GGA      =           TRUE
    Meta     =          FALSE

    X_LRC        =          FALSE
    X_Hybrid     =           TRUE
    X_Alpha      =   2.000000E-01
    X_Omega      =   0.000000E+00
    C_LRC        =          FALSE
    C_Hybrid     =          FALSE
    C_Alpha      =   0.000000E+00
    C_Omega      =   0.000000E+00

   => Exchange Functionals <=

    0.8000    B3_X
    0.2000      HF 

   => Correlation Functionals <=

    0.1900 VWN3RPA_C
    0.8100   LYP_C

   => Molecular Quadrature <=

    Radial Scheme    =       TREUTLER
    Pruning Scheme   =           FLAT
    Nuclear Scheme   =       TREUTLER

    BS radius alpha  =              1
    Pruning alpha    =              1
    Radial Points    =             75
    Spherical Points =            302
    Total Points     =         222569
    Total Blocks     =            213
    Max Points       =           4637
    Max Functions    =             86

   => -D3ZERO: Empirical Dispersion <=

    Grimme's -D3 (zero-damping) Dispersion Correction
    Grimme S.; Antony J.; Ehrlich S.; Krieg H. (2010), J. Chem. Phys., 132: 154104

        S6 =   1.000000E+00
        S8 =   1.703000E+00
       SR6 =   1.261000E+00
    ALPHA6 =   1.400000E+01

   => Loading Basis Set <=

    Name: (CC-PVDZ AUX)
    Role: JKFIT
    Keyword: DF_BASIS_SCF
    atoms 1, 4 entry O          line   220 file /shared/raimis/opt/miniconda/envs/htmd/share/psi4/basis/cc-pvdz-jkfit.gbs 
    atoms 2-3  entry C          line   120 file /shared/raimis/opt/miniconda/envs/htmd/share/psi4/basis/cc-pvdz-jkfit.gbs 
    atoms 5-10 entry H          line    50 file /shared/raimis/opt/miniconda/envs/htmd/share/psi4/basis/cc-pvdz-jkfit.gbs 

  ==> Pre-Iterations <==

   -------------------------------------------------------
    Irrep   Nso     Nmo     Nalpha   Nbeta   Ndocc  Nsocc
   -------------------------------------------------------
     A         86      86       0       0       0       0
   -------------------------------------------------------
    Total      86      86      17      17      17       0
   -------------------------------------------------------

  ==> Integral Setup <==

  ==> DFJK: Density-Fitted J/K Matrices <==

    J tasked:                  Yes
    K tasked:                  Yes
    wK tasked:                  No
    OpenMP threads:              1
    Integrals threads:           1
    Memory (MB):              3006
    Algorithm:                Core
    Integral Cache:           NONE
    Schwarz Cutoff:          1E-12
    Fitting Condition:       1E-12

   => Auxiliary Basis Set <=

  Basis Set: (CC-PVDZ AUX)
    Blend: CC-PVDZ-JKFIT
    Number of shells: 150
    Number of basis function: 418
    Number of Cartesian functions: 474
    Spherical Harmonics?: true
    Max angular momentum: 3

  Minimum eigenvalue in the overlap matrix is 4.9989722319E-03.
  Using Symmetric Orthogonalization.

  SCF Guess: Superposition of Atomic Densities via on-the-fly atomic UHF.

  ==> Iterations <==

                           Total Energy        Delta E     RMS |[F,P]|

   @DF-RKS iter   0:  -230.99677215172235   -2.30997e+02   4.11359e-02 
   @DF-RKS iter   1:  -230.17075588504864    8.26016e-01   5.45825e-03 
   @DF-RKS iter   2:  -230.11540368500786    5.53522e-02   7.28094e-03 DIIS
   @DF-RKS iter   3:  -230.25597947708494   -1.40576e-01   6.42822e-04 DIIS
   @DF-RKS iter   4:  -230.25711189044054   -1.13241e-03   2.12418e-04 DIIS
   @DF-RKS iter   5:  -230.25726922094569   -1.57331e-04   4.83950e-05 DIIS
   @DF-RKS iter   6:  -230.25727753831674   -8.31737e-06   4.28039e-06 DIIS
   @DF-RKS iter   7:  -230.25727759819921   -5.98825e-08   1.25221e-06 DIIS
   @DF-RKS iter   8:  -230.25727760085078   -2.65157e-09   8.45236e-07 DIIS

  ==> Post-Iterations <==

    Orbital Energies (a.u.)
    -----------------------

    Doubly Occupied:                                                      

       1A    -19.131739     2A    -19.131588     3A    -10.226356  
       4A    -10.226083     5A     -1.018861     6A     -1.008600  
       7A     -0.732290     8A     -0.603722     9A     -0.525985  
      10A     -0.480314    11A     -0.473574    12A     -0.412521  
      13A     -0.395133    14A     -0.349901    15A     -0.319350  
      16A     -0.264208    17A     -0.263480  

    Virtual:                                                              

      18A      0.042557    19A      0.058484    20A      0.110931  
      21A      0.115274    22A      0.124395    23A      0.168683  
      24A      0.187678    25A      0.242246    26A      0.244365  
      27A      0.440506    28A      0.446691    29A      0.493972  
      30A      0.536681    31A      0.548335    32A      0.594683  
      33A      0.617367    34A      0.625911    35A      0.631302  
      36A      0.647298    37A      0.655851    38A      0.686608  
      39A      0.887208    40A      0.889685    41A      0.917871  
      42A      0.963654    43A      1.009941    44A      1.055745  
      45A      1.063483    46A      1.171818    47A      1.204970  
      48A      1.214376    49A      1.263022    50A      1.305199  
      51A      1.341379    52A      1.352071    53A      1.476411  
      54A      1.569791    55A      1.601477    56A      1.608430  
      57A      1.629199    58A      1.651048    59A      1.651718  
      60A      1.703582    61A      1.747335    62A      1.768871  
      63A      1.791262    64A      1.884538    65A      1.923771  
      66A      1.972708    67A      2.044857    68A      2.057953  
      69A      2.112232    70A      2.157625    71A      2.275030  
      72A      2.293905    73A      2.406018    74A      2.426903  
      75A      2.474257    76A      2.520918    77A      2.907384  
      78A      2.962074    79A      3.003562    80A      3.022159  
      81A      3.061699    82A      3.142937    83A      3.179930  
      84A      3.210713    85A      3.676120    86A      3.705547  

    Final Occupation by Irrep:
              A 
    DOCC [    17 ]

  Energy converged.

  @DF-RKS Final Energy:  -230.25727760085078

   => Energetics <=

    Nuclear Repulsion Energy =            129.4446825305919049
    One-Electron Energy =                -570.6437823346575442
    Two-Electron Energy =                 235.4850120923881605
    DFT Exchange-Correlation Energy =     -24.5387803091733012
    Empirical Dispersion Energy =          -0.0044095800000000
    PCM Polarization Energy =               0.0000000000000000
    EFP Energy =                            0.0000000000000000
    Total Energy =                       -230.2572776008507844



Properties will be evaluated at   0.000000,   0.000000,   0.000000 Bohr

Properties computed using the SCF density matrix

  Nuclear Dipole Moment: (a.u.)
     X:   184.7334      Y:   -22.7854      Z:    33.9049

  Electronic Dipole Moment: (a.u.)
     X:  -184.7351      Y:    22.7109      Z:   -33.9745

  Dipole Moment: (a.u.)
     X:    -0.0017      Y:    -0.0745      Z:    -0.0696     Total:     0.1020

  Dipole Moment: (Debye)
     X:    -0.0042      Y:    -0.1894      Z:    -0.1770     Total:     0.2593


*** tstop() called on computer06 at Tue Dec 12 10:56:29 2017
Module time:
	user time   =      19.76 seconds =       0.33 minutes
	system time =       0.15 seconds =       0.00 minutes
	total time  =         21 seconds =       0.35 minutes
Total time:
	user time   =      19.76 seconds =       0.33 minutes
	system time =       0.15 seconds =       0.00 minutes
	total time  =         21 seconds =       0.35 minutes


Properties will be evaluated at   0.000000,   0.000000,   0.000000 Bohr

Properties computed using the  density matrix

  Nuclear Dipole Moment: (a.u.)
     X:   184.7334      Y:   -22.7854      Z:    33.9049

  Electronic Dipole Moment: (a.u.)
     X:  -184.7351      Y:    22.7109      Z:   -33.9745

  Dipole Moment: (a.u.)
     X:    -0.0017      Y:    -0.0745      Z:    -0.0696     Total:     0.1020

  Dipole Moment: (Debye)
     X:    -0.0042      Y:    -0.1894      Z:    -0.1770     Total:     0.2593

  Quadrupole Moment: (Debye Ang)
    XX:   -26.5124     YY:   -21.6860     ZZ:   -21.6178
    XY:    -4.7941     XZ:     3.7673     YZ:    -3.4585

  Traceless Quadrupole Moment: (Debye Ang)
    XX:    -3.2403     YY:     1.5861     ZZ:     1.6543
    XY:    -4.7941     XZ:     3.7673     YZ:    -3.4585

  Mulliken Charges: (a.u.)
   Center  Symbol    Alpha    Beta     Spin     Total
       1     O     4.14045  4.14045  0.00000 -0.28091
       2     C     2.93619  2.93619  0.00000  0.12763
       3     C     2.93646  2.93646  0.00000  0.12709
       4     O     4.14063  4.14063  0.00000 -0.28126
       5     H     0.42733  0.42733  0.00000  0.14534
       6     H     0.49760  0.49760  0.00000  0.00479
       7     H     0.49859  0.49859  0.00000  0.00281
       8     H     0.49808  0.49808  0.00000  0.00384
       9     H     0.49747  0.49747  0.00000  0.00506
      10     H     0.42720  0.42720  0.00000  0.14560

   Total alpha = 17.00000, Total beta = 17.00000, Total charge = -0.00000


*** Psi4 exiting successfully. Buy a developer a beer!
