    -----------------------------------------------------------------------
          Psi4: An Open-Source Ab Initio Electronic Structure Package
                              Psi4 (no tag) Driver

                          Git: Rev {detached?}  

    J. M. Turney, A. C. Simmonett, R. M. Parrish, E. G. Hohenstein,
    F. A. Evangelista, J. T. Fermann, B. J. Mintz, L. A. Burns, J. J. Wilke,
    M. L. Abrams, N. J. Russ, M. L. Leininger, C. L. Janssen, E. T. Seidl,
    W. D. Allen, H. F. Schaefer, R. A. King, E. F. Valeev, C. D. Sherrill,
    and T. D. Crawford, WIREs Comput. Mol. Sci. 2, 556-565 (2012)
    (doi: 10.1002/wcms.93)

                         Additional Contributions by
    A. E. DePrince, M. Saitow, U. Bozkaya, A. Yu. Sokolov
    -----------------------------------------------------------------------


    Psi4 started on: Tue Jul  5 16:29:59 2016

    Process ID:  25422
    PSI4DATADIR: /export131/home/mjharvey/miniconda3/share
    Memory level set to 256.000 MB

  ==> Input File <==

--------------------------------------------------------------------------
set {
	reference rhf
	basis 6-31G*
}


set_num_threads( 1 )
memory 2 gb

molecule MOL {
0 1

H	 2.714986	 -0.687272	 -0.683428
N	 2.332695	 -0.069570	 0.000000
C	 0.936681	 -0.007078	 0.000000
H	 2.734824	 -0.244125	 0.895879
C	 0.227108	 -0.002120	 -1.198267
C	 0.227108	 -0.002120	 1.198267
H	 0.761569	 -0.014657	 -2.132680
C	 -1.156334	 0.010459	 -1.192360
H	 0.761569	 -0.014657	 2.132680
C	 -1.156334	 0.010459	 1.192360
H	 -1.684791	 0.014915	 -2.129421
C	 -1.862085	 0.017996	 0.000000
H	 -1.684791	 0.014915	 2.129421
H	 -2.936703	 0.028387	 0.000000

	symmetry c1
}
ee = energy('scf')
oeprop('DIPOLE', 'QUADRUPOLE', 'MULLIKEN_CHARGES')
f=open( 'psi4out.xyz', 'w' )
f.write( "14  " )
f.write( str(ee) + "\n" )
f.write( MOL.save_string_xyz() )
f.close()
--------------------------------------------------------------------------

  Memory set to   2.000 GiB by Python script.

*** tstart() called on cx1-1-2-1.cx1.hpc.ic.ac.uk
*** at Tue Jul  5 16:30:00 2016


         ---------------------------------------------------------
                                   SCF
            by Justin Turney, Rob Parrish, and Andy Simmonett
                              RHF Reference
                        1 Threads,   2000 MiB Core
         ---------------------------------------------------------

  ==> Geometry <==

    Molecular point group: c1
    Full point group: C1

    Geometry (in Angstrom), charge = 0, multiplicity = 1:

       Center              X                  Y                   Z               Mass       
    ------------   -----------------  -----------------  -----------------  -----------------
           H          2.715732757266    -0.670587777058    -0.685728863792     1.007825032070
           N          2.333441757266    -0.052885777058    -0.002300863792    14.003074004780
           C          0.937427757266     0.009606222942    -0.002300863792    12.000000000000
           H          2.735570757266    -0.227440777058     0.893578136208     1.007825032070
           C          0.227854757266     0.014564222942    -1.200567863792    12.000000000000
           C          0.227854757266     0.014564222942     1.195966136208    12.000000000000
           H          0.762315757266     0.002027222942    -2.134980863792     1.007825032070
           C         -1.155587242734     0.027143222942    -1.194660863792    12.000000000000
           H          0.762315757266     0.002027222942     2.130379136208     1.007825032070
           C         -1.155587242734     0.027143222942     1.190059136208    12.000000000000
           H         -1.684044242734     0.031599222942    -2.131721863792     1.007825032070
           C         -1.861338242734     0.034680222942    -0.002300863792    12.000000000000
           H         -1.684044242734     0.031599222942     2.127120136208     1.007825032070
           H         -2.935956242734     0.045071222942    -0.002300863792     1.007825032070

  Running in c1 symmetry.

  Rotational constants: A =      0.19031  B =      0.08744  C =      0.06009 [cm^-1]
  Rotational constants: A =   5705.43966  B =   2621.25115  C =   1801.36113 [MHz]
  Nuclear repulsion =  273.087280548915885

  Charge       = 0
  Multiplicity = 1
  Electrons    = 50
  Nalpha       = 25
  Nbeta        = 25

  ==> Algorithm <==

  SCF Algorithm Type is DF.
  DIIS enabled.
  MOM disabled.
  Fractional occupation disabled.
  Guess Type is CORE.
  Energy threshold   = 1.00e-06
  Density threshold  = 1.00e-06
  Integral threshold = 0.00e+00

  ==> Primary Basis <==

  Basis Set: 6-31G*
    Number of shells: 56
    Number of basis function: 119
    Number of Cartesian functions: 119
    Spherical Harmonics?: false
    Max angular momentum: 2

  ==> Pre-Iterations <==

   -------------------------------------------------------
    Irrep   Nso     Nmo     Nalpha   Nbeta   Ndocc  Nsocc
   -------------------------------------------------------
     A        119     119       0       0       0       0
   -------------------------------------------------------
    Total     119     119      25      25      25       0
   -------------------------------------------------------

 OEINTS: Overlap, kinetic, potential, dipole, and quadrupole integrals
         stored in file 35.

  ==> Integral Setup <==

  ==> DFJK: Density-Fitted J/K Matrices <==

    J tasked:                  Yes
    K tasked:                  Yes
    wK tasked:                  No
    OpenMP threads:              1
    Integrals threads:           1
    Memory (MB):              1430
    Algorithm:                Core
    Integral Cache:           NONE
    Schwarz Cutoff:          1E-12
    Fitting Condition:       1E-12

   => Auxiliary Basis Set <=

  Basis Set: 
    Number of shells: 231
    Number of basis function: 742
    Number of Cartesian functions: 742
    Spherical Harmonics?: false
    Max angular momentum: 3

  Minimum eigenvalue in the overlap matrix is 4.3033670840E-04.
  Using Symmetric Orthogonalization.
  SCF Guess: Core (One-Electron) Hamiltonian.

  ==> Iterations <==

                           Total Energy        Delta E     RMS |[F,P]|

   @DF-RHF iter   1:  -224.83993318008874   -2.24840e+02   7.09948e-02 
   @DF-RHF iter   2:  -234.70346608542212   -9.86353e+00   5.29896e-02 DIIS
   @DF-RHF iter   3:  -268.16701291262262   -3.34635e+01   3.60308e-02 DIIS
   @DF-RHF iter   4:  -268.30226367690187   -1.35251e-01   3.74504e-02 DIIS
   @DF-RHF iter   5:  -284.96616331671356   -1.66639e+01   9.51710e-03 DIIS
   @DF-RHF iter   6:  -285.67709955463152   -7.10936e-01   2.52664e-03 DIIS
   @DF-RHF iter   7:  -285.71941701312829   -4.23175e-02   1.04243e-03 DIIS
   @DF-RHF iter   8:  -285.72774993729291   -8.33292e-03   4.28970e-04 DIIS
   @DF-RHF iter   9:  -285.72919248419890   -1.44255e-03   1.65176e-04 DIIS
   @DF-RHF iter  10:  -285.72941527385700   -2.22790e-04   2.73865e-05 DIIS
   @DF-RHF iter  11:  -285.72942504499002   -9.77113e-06   9.32764e-06 DIIS
   @DF-RHF iter  12:  -285.72942597692412   -9.31934e-07   2.81447e-06 DIIS
   @DF-RHF iter  13:  -285.72942607581359   -9.88895e-08   7.26778e-07 DIIS

  ==> Post-Iterations <==

    Orbital Energies (a.u.)
    -----------------------

    Doubly Occupied:                                                      

       1A    -15.558902     2A    -11.270383     3A    -11.228625  
       4A    -11.228467     5A    -11.218202     6A    -11.217237  
       7A    -11.214131     8A     -1.221334     9A     -1.125257  
      10A     -1.009406    11A     -0.983676    12A     -0.828469  
      13A     -0.809236    14A     -0.703325    15A     -0.682068  
      16A     -0.652040    17A     -0.596776    18A     -0.590972  
      19A     -0.578757    20A     -0.525391    21A     -0.503524  
      22A     -0.484610    23A     -0.440424    24A     -0.331001  
      25A     -0.290811  

    Virtual:                                                              

      26A      0.150498    27A      0.167184    28A      0.230672  
      29A      0.249688    30A      0.276712    31A      0.313659  
      32A      0.319720    33A      0.342838    34A      0.352841  
      35A      0.385260    36A      0.448970    37A      0.486648  
      38A      0.507809    39A      0.538930    40A      0.553432  
      41A      0.664608    42A      0.742801    43A      0.758076  
      44A      0.761440    45A      0.799000    46A      0.821403  
      47A      0.833472    48A      0.841161    49A      0.844034  
      50A      0.849306    51A      0.853829    52A      0.875998  
      53A      0.916868    54A      0.928042    55A      0.982662  
      56A      1.017882    57A      1.064541    58A      1.101093  
      59A      1.119189    60A      1.127085    61A      1.129041  
      62A      1.168166    63A      1.193967    64A      1.202846  
      65A      1.222525    66A      1.227363    67A      1.248963  
      68A      1.274530    69A      1.313338    70A      1.358349  
      71A      1.383208    72A      1.454974    73A      1.465722  
      74A      1.518017    75A      1.587404    76A      1.641244  
      77A      1.719117    78A      1.721027    79A      1.768485  
      80A      1.781480    81A      1.804302    82A      1.821345  
      83A      2.058127    84A      2.100145    85A      2.148382  
      86A      2.188377    87A      2.207405    88A      2.250001  
      89A      2.301877    90A      2.331152    91A      2.407696  
      92A      2.426044    93A      2.437068    94A      2.474546  
      95A      2.505861    96A      2.541370    97A      2.587666  
      98A      2.649593    99A      2.660414   100A      2.778183  
     101A      2.827952   102A      2.852344   103A      2.925970  
     104A      2.945152   105A      3.039491   106A      3.102426  
     107A      3.110400   108A      3.121890   109A      3.214250  
     110A      3.247722   111A      3.481865   112A      3.841964  
     113A      4.274304   114A      4.532961   115A      4.553433  
     116A      4.566496   117A      4.766881   118A      4.796848  
     119A      5.141003  

    Final Occupation by Irrep:
              A 
    DOCC [    25 ]

  Energy converged.

  @DF-RHF Final Energy:  -285.72942607581359

   => Energetics <=

    Nuclear Repulsion Energy =            273.0872805489158850
    One-Electron Energy =                -927.0475092433382542
    Two-Electron Energy =                 368.2308026186095162
    DFT Exchange-Correlation Energy =       0.0000000000000000
    Empirical Dispersion Energy =           0.0000000000000000
    PCM Polarization Energy =               0.0000000000000000
    EFP Energy =                            0.0000000000000000
    Total Energy =                       -285.7294260758127962

    Alert: EFP and PCM quantities not currently incorporated into SCF psivars.

Properties will be evaluated at   0.000000,   0.000000,   0.000000 Bohr
  ==> Properties <==


Properties computed using the SCF density matrix

  Nuclear Dipole Moment: (a.u.)
     X:     0.6231      Y:    -0.7364      Z:     0.1841

  Electronic Dipole Moment: (a.u.)
     X:    -0.3558      Y:     0.2140      Z:    -0.0646

  Dipole Moment: (a.u.)
     X:     0.2673      Y:    -0.5224      Z:     0.1195     Total:     0.5989

  Dipole Moment: (Debye)
     X:     0.6793      Y:    -1.3279      Z:     0.3038     Total:     1.5222


  Saving occupied orbitals to File 180.

*** tstop() called on cx1-1-2-1.cx1.hpc.ic.ac.uk at Tue Jul  5 16:30:07 2016
Module time:
	user time   =       7.12 seconds =       0.12 minutes
	system time =       0.05 seconds =       0.00 minutes
	total time  =          7 seconds =       0.12 minutes
Total time:
	user time   =       7.12 seconds =       0.12 minutes
	system time =       0.05 seconds =       0.00 minutes
	total time  =          7 seconds =       0.12 minutes


Properties will be evaluated at   0.000000,   0.000000,   0.000000 Bohr

Properties computed using the  density matrix

  Nuclear Dipole Moment: (a.u.)
     X:     0.6231      Y:    -0.7364      Z:     0.1841

  Electronic Dipole Moment: (a.u.)
     X:    -0.3558      Y:     0.2140      Z:    -0.0646

  Dipole Moment: (a.u.)
     X:     0.2673      Y:    -0.5224      Z:     0.1195     Total:     0.5989

  Dipole Moment: (Debye)
     X:     0.6793      Y:    -1.3279      Z:     0.3038     Total:     1.5222

  Quadrupole Moment: (Debye Ang)
    XX:   -36.1473     YY:   -45.7359     ZZ:   -36.1530
    XY:    -4.1635     XZ:     1.0778     YZ:     0.6229

  Traceless Quadrupole Moment: (Debye Ang)
    XX:     3.1981     YY:    -6.3905     ZZ:     3.1924
    XY:    -4.1635     XZ:     1.0778     YZ:     0.6229

  Mulliken Charges: (a.u.)
   Center  Symbol    Alpha    Beta     Spin     Total
       1     H     0.31953  0.31953  0.00000  0.36094
       2     N     3.94862  3.94862  0.00000 -0.89724
       3     C     2.85043  2.85043  0.00000  0.29914
       4     H     0.32023  0.32023  0.00000  0.35954
       5     C     3.12507  3.12507  0.00000 -0.25014
       6     C     3.12932  3.12932  0.00000 -0.25863
       7     H     0.40188  0.40188  0.00000  0.19623
       8     C     3.09036  3.09036  0.00000 -0.18073
       9     H     0.40494  0.40494  0.00000  0.19013
      10     C     3.09009  3.09009  0.00000 -0.18018
      11     H     0.40071  0.40071  0.00000  0.19858
      12     C     3.11521  3.11521  0.00000 -0.23042
      13     H     0.40099  0.40099  0.00000  0.19803
      14     H     0.40262  0.40262  0.00000  0.19477

   Total alpha = 25.00000, Total beta = 25.00000, Total charge =  0.00000


*** PSI4 exiting successfully. Buy a developer a beer!
