    -----------------------------------------------------------------------
          Psi4: An Open-Source Ab Initio Electronic Structure Package
                              Psi4 (no tag) Driver

                          Git: Rev {detached?}  

    J. M. Turney, A. C. Simmonett, R. M. Parrish, E. G. Hohenstein,
    F. A. Evangelista, J. T. Fermann, B. J. Mintz, L. A. Burns, J. J. Wilke,
    M. L. Abrams, N. J. Russ, M. L. Leininger, C. L. Janssen, E. T. Seidl,
    W. D. Allen, H. F. Schaefer, R. A. King, E. F. Valeev, C. D. Sherrill,
    and T. D. Crawford, WIREs Comput. Mol. Sci. 2, 556-565 (2012)
    (doi: 10.1002/wcms.93)

                         Additional Contributions by
    A. E. DePrince, M. Saitow, U. Bozkaya, A. Yu. Sokolov
    -----------------------------------------------------------------------


    Psi4 started on: Tue Jul  5 17:16:14 2016

    Process ID:   8917
    PSI4DATADIR: /export131/home/mjharvey/miniconda3/share
    Memory level set to 256.000 MB

  ==> Input File <==

--------------------------------------------------------------------------
set {
	reference rhf
	basis 6-31G*
}


set_num_threads( 1 )
memory 2 gb

molecule MOL {
0 1

O	 3.225979	 0.970355	 -0.599647
C	 2.701189	 0.057885	 -0.047330
C	 1.245376	 -0.013843	 0.345420
O	 3.347903	 -1.046386	 0.304773
C	 0.455112	 1.231400	 -0.050772
H	 0.838542	 -0.913825	 -0.103701
H	 1.208210	 -0.175333	 1.419774
C	 -0.998893	 1.219485	 0.433193
H	 0.482531	 1.345121	 -1.130325
H	 0.957290	 2.103070	 0.354729
C	 -1.883438	 0.145884	 -0.207175
H	 -1.431207	 2.195402	 0.224832
H	 -1.019646	 1.105716	 1.516076
C	 -3.347647	 0.245583	 0.225435
H	 -1.822183	 0.231698	 -1.291012
H	 -1.510341	 -0.844814	 0.042401
C	 -3.524684	 0.380076	 1.738941
H	 -3.886062	 -0.634681	 -0.121669
H	 -3.811276	 1.099035	 -0.266873
C	 -2.614166	 1.441766	 2.354953
H	 -4.562024	 0.622609	 1.959727
H	 -3.329162	 -0.580372	 2.211266
H	 -2.762733	 1.513416	 3.427986
H	 -2.809582	 2.421402	 1.927962
H	 -1.567284	 1.209386	 2.180854
C	 4.728119	 -1.109107	 -0.004993
H	 4.882018	 -1.033965	 -1.071845
H	 5.068212	 -2.067527	 0.355250
H	 5.265056	 -0.311663	 0.488280

	symmetry c1
}
set optking {
	frozen_dihedral = ("
		21 17 14 11,
		15 11 8 5,
		6 3 5 9,
		11 8 5 9,
		2 4 26 27,
		1 2 4 26,
		6 3 2 1
	")
}

ee = energy('scf')
oeprop('DIPOLE', 'QUADRUPOLE', 'MULLIKEN_CHARGES')
f=open( 'psi4out.xyz', 'w' )
f.write( "29  " )
f.write( str(ee) + "\n" )
f.write( MOL.save_string_xyz() )
f.close()
--------------------------------------------------------------------------

  Memory set to   2.000 GiB by Python script.

*** tstart() called on cx1-3-14-1.cx1.hpc.ic.ac.uk
*** at Tue Jul  5 17:16:14 2016


         ---------------------------------------------------------
                                   SCF
            by Justin Turney, Rob Parrish, and Andy Simmonett
                              RHF Reference
                        1 Threads,   2000 MiB Core
         ---------------------------------------------------------

  ==> Geometry <==

    Molecular point group: c1
    Full point group: C1

    Geometry (in Angstrom), charge = 0, multiplicity = 1:

       Center              X                  Y                   Z               Mass       
    ------------   -----------------  -----------------  -----------------  -----------------
           O          2.869350573314     0.658491947749    -1.010409541824    15.994914619560
           C          2.344560573314    -0.253978052251    -0.458092541824    12.000000000000
           C          0.888747573314    -0.325706052251    -0.065342541824    12.000000000000
           O          2.991274573314    -1.358249052251    -0.105989541824    15.994914619560
           C          0.098483573314     0.919536947749    -0.461534541824    12.000000000000
           H          0.481913573314    -1.225688052251    -0.514463541824     1.007825032070
           H          0.851581573314    -0.487196052251     1.009011458176     1.007825032070
           C         -1.355521426686     0.907621947749     0.022430458176    12.000000000000
           H          0.125902573314     1.033257947749    -1.541087541824     1.007825032070
           H          0.600661573314     1.791206947749    -0.056033541824     1.007825032070
           C         -2.240066426686    -0.165979052251    -0.617937541824    12.000000000000
           H         -1.787835426686     1.883538947749    -0.185930541824     1.007825032070
           H         -1.376274426686     0.793852947749     1.105313458176     1.007825032070
           C         -3.704275426686    -0.066280052251    -0.185327541824    12.000000000000
           H         -2.178811426686    -0.080165052251    -1.701774541824     1.007825032070
           H         -1.866969426686    -1.156677052251    -0.368361541824     1.007825032070
           C         -3.881312426686     0.068212947749     1.328178458176    12.000000000000
           H         -4.242690426686    -0.946544052251    -0.532431541824     1.007825032070
           H         -4.167904426686     0.787171947749    -0.677635541824     1.007825032070
           C         -2.970794426686     1.129902947749     1.944190458176    12.000000000000
           H         -4.918652426686     0.310745947749     1.548964458176     1.007825032070
           H         -3.685790426686    -0.892235052251     1.800503458176     1.007825032070
           H         -3.119361426686     1.201552947749     3.017223458176     1.007825032070
           H         -3.166210426686     2.109538947749     1.517199458176     1.007825032070
           H         -1.923912426686     0.897522947749     1.770091458176     1.007825032070
           C          4.371490573314    -1.420970052251    -0.415755541824    12.000000000000
           H          4.525389573314    -1.345828052251    -1.482607541824     1.007825032070
           H          4.711583573314    -2.379390052251    -0.055512541824     1.007825032070
           H          4.908427573314    -0.623526052251     0.077517458176     1.007825032070

  Running in c1 symmetry.

  Rotational constants: A =      0.09444  B =      0.01161  C =      0.01152 [cm^-1]
  Rotational constants: A =   2831.23512  B =    348.19826  C =    345.41036 [MHz]
  Nuclear repulsion =  637.534096976771366

  Charge       = 0
  Multiplicity = 1
  Electrons    = 88
  Nalpha       = 44
  Nbeta        = 44

  ==> Algorithm <==

  SCF Algorithm Type is DF.
  DIIS enabled.
  MOM disabled.
  Fractional occupation disabled.
  Guess Type is CORE.
  Energy threshold   = 1.00e-06
  Density threshold  = 1.00e-06
  Integral threshold = 0.00e+00

  ==> Primary Basis <==

  Basis Set: 6-31G*
    Number of shells: 102
    Number of basis function: 201
    Number of Cartesian functions: 201
    Spherical Harmonics?: false
    Max angular momentum: 2

  ==> Pre-Iterations <==

   -------------------------------------------------------
    Irrep   Nso     Nmo     Nalpha   Nbeta   Ndocc  Nsocc
   -------------------------------------------------------
     A        201     201       0       0       0       0
   -------------------------------------------------------
    Total     201     201      44      44      44       0
   -------------------------------------------------------

 OEINTS: Overlap, kinetic, potential, dipole, and quadrupole integrals
         stored in file 35.

  ==> Integral Setup <==

  ==> DFJK: Density-Fitted J/K Matrices <==

    J tasked:                  Yes
    K tasked:                  Yes
    wK tasked:                  No
    OpenMP threads:              1
    Integrals threads:           1
    Memory (MB):              1430
    Algorithm:                Core
    Integral Cache:           NONE
    Schwarz Cutoff:          1E-12
    Fitting Condition:       1E-12

   => Auxiliary Basis Set <=

  Basis Set: 
    Number of shells: 426
    Number of basis function: 1341
    Number of Cartesian functions: 1341
    Spherical Harmonics?: false
    Max angular momentum: 3

  Minimum eigenvalue in the overlap matrix is 2.3306663543E-03.
  Using Symmetric Orthogonalization.
  SCF Guess: Core (One-Electron) Hamiltonian.

  ==> Iterations <==

                           Total Energy        Delta E     RMS |[F,P]|

   @DF-RHF iter   1:  -334.00559636787216   -3.34006e+02   5.91029e-02 
   @DF-RHF iter   2:   -43.56225642456604    2.90443e+02   7.65211e-02 DIIS
   @DF-RHF iter   3:  -193.40203251328501   -1.49840e+02   6.69232e-02 DIIS
   @DF-RHF iter   4:  -343.72350844014034   -1.50321e+02   4.70822e-02 DIIS
   @DF-RHF iter   5:  -313.88042707537636    2.98431e+01   5.74232e-02 DIIS
   @DF-RHF iter   6:  -494.30262348025087   -1.80422e+02   1.09277e-02 DIIS
   @DF-RHF iter   7:  -476.91715775738646    1.73855e+01   2.39728e-02 DIIS
   @DF-RHF iter   8:  -500.64544116565537   -2.37283e+01   3.78359e-03 DIIS
   @DF-RHF iter   9:  -500.88585140493899   -2.40410e-01   1.28775e-03 DIIS
   @DF-RHF iter  10:  -500.91817326982721   -3.23219e-02   5.93626e-04 DIIS
   @DF-RHF iter  11:  -500.92630630043061   -8.13303e-03   1.71265e-04 DIIS
   @DF-RHF iter  12:  -500.92696766495203   -6.61365e-04   8.88458e-05 DIIS
   @DF-RHF iter  13:  -500.92718049899042   -2.12834e-04   2.38534e-05 DIIS
   @DF-RHF iter  14:  -500.92720203223496   -2.15332e-05   8.88269e-06 DIIS
   @DF-RHF iter  15:  -500.92720506782064   -3.03559e-06   2.73446e-06 DIIS
   @DF-RHF iter  16:  -500.92720528752136   -2.19701e-07   8.94825e-07 DIIS

  ==> Post-Iterations <==

    Orbital Energies (a.u.)
    -----------------------

    Doubly Occupied:                                                      

       1A    -20.602820     2A    -20.544384     3A    -11.371160  
       4A    -11.280301     5A    -11.233892     6A    -11.216864  
       7A    -11.216724     8A    -11.215248     9A    -11.214246  
      10A    -11.202870    11A    -11.193860    12A     -1.468419  
      13A     -1.361753    14A     -1.112224    15A     -1.066183  
      16A     -1.008386    17A     -0.981387    18A     -0.954644  
      19A     -0.874800    20A     -0.798236    21A     -0.788918  
      22A     -0.765516    23A     -0.700449    24A     -0.687138  
      25A     -0.680460    26A     -0.667854    27A     -0.620889  
      28A     -0.616209    29A     -0.597300    30A     -0.583431  
      31A     -0.576710    32A     -0.557608    33A     -0.546170  
      34A     -0.525231    35A     -0.517643    36A     -0.507125  
      37A     -0.502199    38A     -0.478977    39A     -0.460676  
      40A     -0.456630    41A     -0.455752    42A     -0.446509  
      43A     -0.435941    44A     -0.379276  

    Virtual:                                                              

      45A      0.198955    46A      0.217341    47A      0.238634  
      48A      0.252458    49A      0.262796    50A      0.271025  
      51A      0.292404    52A      0.298953    53A      0.304458  
      54A      0.309889    55A      0.315209    56A      0.323834  
      57A      0.328895    58A      0.334211    59A      0.342013  
      60A      0.348615    61A      0.352880    62A      0.367654  
      63A      0.384357    64A      0.392660    65A      0.412214  
      66A      0.424017    67A      0.436942    68A      0.458893  
      69A      0.479872    70A      0.488855    71A      0.533536  
      72A      0.570299    73A      0.600579    74A      0.698628  
      75A      0.718049    76A      0.722186    77A      0.728063  
      78A      0.733984    79A      0.755455    80A      0.771462  
      81A      0.783282    82A      0.788191    83A      0.807940  
      84A      0.817428    85A      0.833277    86A      0.869812  
      87A      0.890240    88A      0.918089    89A      0.936578  
      90A      0.944504    91A      0.964327    92A      0.979476  
      93A      0.990687    94A      1.015503    95A      1.028794  
      96A      1.045257    97A      1.083163    98A      1.105593  
      99A      1.119984   100A      1.128510   101A      1.128919  
     102A      1.137910   103A      1.146183   104A      1.153840  
     105A      1.158227   106A      1.166373   107A      1.181211  
     108A      1.183837   109A      1.193187   110A      1.199508  
     111A      1.216097   112A      1.218990   113A      1.235264  
     114A      1.239687   115A      1.245412   116A      1.261329  
     117A      1.268208   118A      1.283668   119A      1.304224  
     120A      1.323078   121A      1.363399   122A      1.375182  
     123A      1.413217   124A      1.414904   125A      1.484109  
     126A      1.531483   127A      1.564897   128A      1.631958  
     129A      1.665509   130A      1.672542   131A      1.677172  
     132A      1.720039   133A      1.747512   134A      1.766975  
     135A      1.805784   136A      1.854960   137A      1.882860  
     138A      1.897582   139A      1.953894   140A      1.989257  
     141A      2.003285   142A      2.022909   143A      2.031891  
     144A      2.090601   145A      2.124707   146A      2.148554  
     147A      2.158890   148A      2.192024   149A      2.214240  
     150A      2.223896   151A      2.242808   152A      2.255496  
     153A      2.287941   154A      2.299046   155A      2.330963  
     156A      2.351398   157A      2.360977   158A      2.392979  
     159A      2.396330   160A      2.403520   161A      2.439981  
     162A      2.448335   163A      2.455675   164A      2.478353  
     165A      2.523770   166A      2.592764   167A      2.618797  
     168A      2.644069   169A      2.661178   170A      2.684075  
     171A      2.687789   172A      2.705884   173A      2.732820  
     174A      2.765841   175A      2.777875   176A      2.830826  
     177A      2.838737   178A      2.860720   179A      2.918443  
     180A      2.955117   181A      2.989797   182A      3.015223  
     183A      3.048184   184A      3.068143   185A      3.115997  
     186A      3.164082   187A      3.200836   188A      3.350917  
     189A      3.452324   190A      3.583248   191A      4.418966  
     192A      4.555195   193A      4.602712   194A      4.639440  
     195A      4.709214   196A      4.740027   197A      4.806660  
     198A      4.849745   199A      4.966105   200A      4.983532  
     201A      5.065112  

    Final Occupation by Irrep:
              A 
    DOCC [    44 ]

  Energy converged.

  @DF-RHF Final Energy:  -500.92720528752136

   => Energetics <=

    Nuclear Repulsion Energy =            637.5340969767713659
    One-Electron Energy =               -1945.9768935335864626
    Two-Electron Energy =                 807.5155912692954416
    DFT Exchange-Correlation Energy =       0.0000000000000000
    Empirical Dispersion Energy =           0.0000000000000000
    PCM Polarization Energy =               0.0000000000000000
    EFP Energy =                            0.0000000000000000
    Total Energy =                       -500.9272052875197687

    Alert: EFP and PCM quantities not currently incorporated into SCF psivars.

Properties will be evaluated at   0.000000,   0.000000,   0.000000 Bohr
  ==> Properties <==


Properties computed using the SCF density matrix

  Nuclear Dipole Moment: (a.u.)
     X:   -15.1860      Y:     1.5633      Z:     4.4289

  Electronic Dipole Moment: (a.u.)
     X:    15.0061      Y:    -2.1898      Z:    -4.1071

  Dipole Moment: (a.u.)
     X:    -0.1799      Y:    -0.6265      Z:     0.3218     Total:     0.7270

  Dipole Moment: (Debye)
     X:    -0.4573      Y:    -1.5925      Z:     0.8179     Total:     1.8477


  Saving occupied orbitals to File 180.

*** tstop() called on cx1-3-14-1.cx1.hpc.ic.ac.uk at Tue Jul  5 17:17:08 2016
Module time:
	user time   =      53.13 seconds =       0.89 minutes
	system time =       0.40 seconds =       0.01 minutes
	total time  =         54 seconds =       0.90 minutes
Total time:
	user time   =      53.13 seconds =       0.89 minutes
	system time =       0.40 seconds =       0.01 minutes
	total time  =         54 seconds =       0.90 minutes


Properties will be evaluated at   0.000000,   0.000000,   0.000000 Bohr

Properties computed using the  density matrix

  Nuclear Dipole Moment: (a.u.)
     X:   -15.1860      Y:     1.5633      Z:     4.4289

  Electronic Dipole Moment: (a.u.)
     X:    15.0061      Y:    -2.1898      Z:    -4.1071

  Dipole Moment: (a.u.)
     X:    -0.1799      Y:    -0.6265      Z:     0.3218     Total:     0.7270

  Dipole Moment: (Debye)
     X:    -0.4573      Y:    -1.5925      Z:     0.8179     Total:     1.8477

  Quadrupole Moment: (Debye Ang)
    XX:   -66.7648     YY:   -71.5711     ZZ:   -71.8518
    XY:    -6.9874     XZ:     3.4163     YZ:     2.5148

  Traceless Quadrupole Moment: (Debye Ang)
    XX:     3.2978     YY:    -1.5086     ZZ:    -1.7892
    XY:    -6.9874     XZ:     3.4163     YZ:     2.5148

  Mulliken Charges: (a.u.)
   Center  Symbol    Alpha    Beta     Spin     Total
       1     O     4.28582  4.28582  0.00000 -0.57164
       2     C     2.60450  2.60450  0.00000  0.79099
       3     C     3.20958  3.20958  0.00000 -0.41917
       4     O     4.30770  4.30770  0.00000 -0.61541
       5     C     3.14680  3.14680  0.00000 -0.29359
       6     H     0.39920  0.39920  0.00000  0.20160
       7     H     0.40379  0.40379  0.00000  0.19242
       8     C     3.16303  3.16303  0.00000 -0.32605
       9     H     0.41557  0.41557  0.00000  0.16886
      10     H     0.41137  0.41137  0.00000  0.17726
      11     C     3.15551  3.15551  0.00000 -0.31102
      12     H     0.41646  0.41646  0.00000  0.16709
      13     H     0.42536  0.42536  0.00000  0.14929
      14     C     3.15516  3.15516  0.00000 -0.31032
      15     H     0.41859  0.41859  0.00000  0.16282
      16     H     0.42381  0.42381  0.00000  0.15238
      17     C     3.15376  3.15376  0.00000 -0.30751
      18     H     0.41950  0.41950  0.00000  0.16101
      19     H     0.42305  0.42305  0.00000  0.15390
      20     C     3.24134  3.24134  0.00000 -0.48268
      21     H     0.41776  0.41776  0.00000  0.16447
      22     H     0.42327  0.42327  0.00000  0.15347
      23     H     0.42169  0.42169  0.00000  0.15662
      24     H     0.42005  0.42005  0.00000  0.15990
      25     H     0.41800  0.41800  0.00000  0.16400
      26     C     3.09235  3.09235  0.00000 -0.18469
      27     H     0.40909  0.40909  0.00000  0.18183
      28     H     0.40868  0.40868  0.00000  0.18265
      29     H     0.40924  0.40924  0.00000  0.18153

   Total alpha = 44.00000, Total beta = 44.00000, Total charge = -0.00000


*** PSI4 exiting successfully. Buy a developer a beer!
