    -----------------------------------------------------------------------
          Psi4: An Open-Source Ab Initio Electronic Structure Package
                              Psi4 (no tag) Driver

                          Git: Rev {detached?}  

    J. M. Turney, A. C. Simmonett, R. M. Parrish, E. G. Hohenstein,
    F. A. Evangelista, J. T. Fermann, B. J. Mintz, L. A. Burns, J. J. Wilke,
    M. L. Abrams, N. J. Russ, M. L. Leininger, C. L. Janssen, E. T. Seidl,
    W. D. Allen, H. F. Schaefer, R. A. King, E. F. Valeev, C. D. Sherrill,
    and T. D. Crawford, WIREs Comput. Mol. Sci. 2, 556-565 (2012)
    (doi: 10.1002/wcms.93)

                         Additional Contributions by
    A. E. DePrince, M. Saitow, U. Bozkaya, A. Yu. Sokolov
    -----------------------------------------------------------------------


    Psi4 started on: Tue Jul  5 16:40:43 2016

    Process ID:  28779
    PSI4DATADIR: /export131/home/mjharvey/miniconda3/share
    Memory level set to 256.000 MB

  ==> Input File <==

--------------------------------------------------------------------------
set {
	reference rhf
	basis 6-31G*
}


set_num_threads( 1 )
memory 2 gb

molecule MOL {
0 1

H	 0.075655	 1.724700	 0.560390
N	 -0.456516	 0.876527	 0.541107
C	 0.411825	 -0.271767	 0.350028
H	 -1.096509	 0.942907	 -0.226429
C	 0.971803	 -0.268062	 -1.056935
H	 1.245876	 -0.313000	 1.051925
H	 -0.173567	 -1.175924	 0.486406
O	 -0.088814	 -0.446451	 -1.951562
H	 1.476952	 0.676258	 -1.258733
H	 1.695616	 -1.072886	 -1.164576
C	 0.302477	 -0.682057	 -3.266458
H	 1.031313	 -1.481013	 -3.253694
H	 -0.540765	 -0.985654	 -3.884320
H	 0.755403	 0.201759	 -3.710909

	symmetry c1
}
set optking {
	frozen_dihedral = ("
		8 5 3 6,
		6 3 2 4,
		5 8 11 13
	")
}

ee = energy('scf')
oeprop('DIPOLE', 'QUADRUPOLE', 'MULLIKEN_CHARGES')
f=open( 'psi4out.xyz', 'w' )
f.write( "14  " )
f.write( str(ee) + "\n" )
f.write( MOL.save_string_xyz() )
f.close()
--------------------------------------------------------------------------

  Memory set to   2.000 GiB by Python script.

*** tstart() called on cx1-3-6-4.cx1.hpc.ic.ac.uk
*** at Tue Jul  5 16:40:43 2016


         ---------------------------------------------------------
                                   SCF
            by Justin Turney, Rob Parrish, and Andy Simmonett
                              RHF Reference
                        1 Threads,   2000 MiB Core
         ---------------------------------------------------------

  ==> Geometry <==

    Molecular point group: c1
    Full point group: C1

    Geometry (in Angstrom), charge = 0, multiplicity = 1:

       Center              X                  Y                   Z               Mass       
    ------------   -----------------  -----------------  -----------------  -----------------
           H         -0.149806164400     1.871552197566     1.663482855956     1.007825032070
           N         -0.681977164400     1.023379197566     1.644199855956    14.003074004780
           C          0.186363835600    -0.124914802434     1.453120855956    12.000000000000
           H         -1.321970164400     1.089759197566     0.876663855956     1.007825032070
           C          0.746341835600    -0.121209802434     0.046157855956    12.000000000000
           H          1.020414835600    -0.166147802434     2.155017855956     1.007825032070
           H         -0.399028164400    -1.029071802434     1.589498855956     1.007825032070
           O         -0.314275164400    -0.299598802434    -0.848469144044    15.994914619560
           H          1.251490835600     0.823110197566    -0.155640144044     1.007825032070
           H          1.470154835600    -0.926033802434    -0.061483144044     1.007825032070
           C          0.077015835600    -0.535204802434    -2.163365144044    12.000000000000
           H          0.805851835600    -1.334160802434    -2.150601144044     1.007825032070
           H         -0.766226164400    -0.838801802434    -2.781227144044     1.007825032070
           H          0.529941835600     0.348611197566    -2.607816144044     1.007825032070

  Running in c1 symmetry.

  Rotational constants: A =      0.44553  B =      0.09036  C =      0.08242 [cm^-1]
  Rotational constants: A =  13356.62720  B =   2708.93908  C =   2470.84208 [MHz]
  Nuclear repulsion =  195.209433708281978

  Charge       = 0
  Multiplicity = 1
  Electrons    = 42
  Nalpha       = 21
  Nbeta        = 21

  ==> Algorithm <==

  SCF Algorithm Type is DF.
  DIIS enabled.
  MOM disabled.
  Fractional occupation disabled.
  Guess Type is CORE.
  Energy threshold   = 1.00e-06
  Density threshold  = 1.00e-06
  Integral threshold = 0.00e+00

  ==> Primary Basis <==

  Basis Set: 6-31G*
    Number of shells: 48
    Number of basis function: 93
    Number of Cartesian functions: 93
    Spherical Harmonics?: false
    Max angular momentum: 2

  ==> Pre-Iterations <==

   -------------------------------------------------------
    Irrep   Nso     Nmo     Nalpha   Nbeta   Ndocc  Nsocc
   -------------------------------------------------------
     A         93      93       0       0       0       0
   -------------------------------------------------------
    Total      93      93      21      21      21       0
   -------------------------------------------------------

 OEINTS: Overlap, kinetic, potential, dipole, and quadrupole integrals
         stored in file 35.

  ==> Integral Setup <==

  ==> DFJK: Density-Fitted J/K Matrices <==

    J tasked:                  Yes
    K tasked:                  Yes
    wK tasked:                  No
    OpenMP threads:              1
    Integrals threads:           1
    Memory (MB):              1430
    Algorithm:                Core
    Integral Cache:           NONE
    Schwarz Cutoff:          1E-12
    Fitting Condition:       1E-12

   => Auxiliary Basis Set <=

  Basis Set: 
    Number of shells: 201
    Number of basis function: 630
    Number of Cartesian functions: 630
    Spherical Harmonics?: false
    Max angular momentum: 3

  Minimum eigenvalue in the overlap matrix is 4.6324771571E-03.
  Using Symmetric Orthogonalization.
  SCF Guess: Core (One-Electron) Hamiltonian.

  ==> Iterations <==

                           Total Energy        Delta E     RMS |[F,P]|

   @DF-RHF iter   1:  -201.75462950784944   -2.01755e+02   7.99552e-02 
   @DF-RHF iter   2:  -155.05101204790824    4.67036e+01   6.65337e-02 DIIS
   @DF-RHF iter   3:  -211.53078264608101   -5.64798e+01   6.20034e-02 DIIS
   @DF-RHF iter   4:  -237.05646046132998   -2.55257e+01   4.01285e-02 DIIS
   @DF-RHF iter   5:  -247.67231693199486   -1.06159e+01   9.96655e-03 DIIS
   @DF-RHF iter   6:  -248.07701720764450   -4.04700e-01   3.32215e-03 DIIS
   @DF-RHF iter   7:  -248.11783555832918   -4.08184e-02   7.26284e-04 DIIS
   @DF-RHF iter   8:  -248.12002813822934   -2.19258e-03   2.46794e-04 DIIS
   @DF-RHF iter   9:  -248.12033693011992   -3.08792e-04   1.07685e-04 DIIS
   @DF-RHF iter  10:  -248.12040281049977   -6.58804e-05   3.03416e-05 DIIS
   @DF-RHF iter  11:  -248.12040846311416   -5.65261e-06   1.11935e-05 DIIS
   @DF-RHF iter  12:  -248.12040932487432   -8.61760e-07   2.10413e-06 DIIS
   @DF-RHF iter  13:  -248.12040936584643   -4.09721e-08   5.79969e-07 DIIS

  ==> Post-Iterations <==

    Orbital Energies (a.u.)
    -----------------------

    Doubly Occupied:                                                      

       1A    -20.560860     2A    -15.526410     3A    -11.270449  
       4A    -11.267965     5A    -11.242084     6A     -1.385735  
       7A     -1.175152     8A     -0.998726     9A     -0.910739  
      10A     -0.823728    11A     -0.685863    12A     -0.676303  
      13A     -0.642982    14A     -0.630263    15A     -0.588479  
      16A     -0.550032    17A     -0.527719    18A     -0.505909  
      19A     -0.479772    20A     -0.421761    21A     -0.374770  

    Virtual:                                                              

      22A      0.230925    23A      0.254947    24A      0.280127  
      25A      0.298094    26A      0.304331    27A      0.318424  
      28A      0.324039    29A      0.332520    30A      0.355858  
      31A      0.379485    32A      0.429084    33A      0.442785  
      34A      0.454008    35A      0.726605    36A      0.757760  
      37A      0.763598    38A      0.801709    39A      0.821000  
      40A      0.837525    41A      0.866014    42A      0.913044  
      43A      0.986504    44A      1.014473    45A      1.080274  
      46A      1.087329    47A      1.114477    48A      1.133053  
      49A      1.148908    50A      1.161242    51A      1.174320  
      52A      1.214520    53A      1.217783    54A      1.234908  
      55A      1.252084    56A      1.263626    57A      1.334009  
      58A      1.396202    59A      1.460594    60A      1.583361  
      61A      1.644403    62A      1.675341    63A      1.745541  
      64A      1.780441    65A      1.823569    66A      1.935465  
      67A      2.006751    68A      2.077138    69A      2.208041  
      70A      2.223863    71A      2.348550    72A      2.382190  
      73A      2.398079    74A      2.424198    75A      2.436973  
      76A      2.476560    77A      2.527698    78A      2.563979  
      79A      2.637971    80A      2.713041    81A      2.759179  
      82A      2.806308    83A      2.867022    84A      2.908167  
      85A      3.004896    86A      3.085263    87A      3.190024  
      88A      3.333105    89A      4.221961    90A      4.378034  
      91A      4.652435    92A      4.712289    93A      4.885149  

    Final Occupation by Irrep:
              A 
    DOCC [    21 ]

  Energy converged.

  @DF-RHF Final Energy:  -248.12040936584643

   => Energetics <=

    Nuclear Repulsion Energy =            195.2094337082819777
    One-Electron Energy =                -724.1682514704461937
    Two-Electron Energy =                 280.8384083963176181
    DFT Exchange-Correlation Energy =       0.0000000000000000
    Empirical Dispersion Energy =           0.0000000000000000
    PCM Polarization Energy =               0.0000000000000000
    EFP Energy =                            0.0000000000000000
    Total Energy =                       -248.1204093658466263

    Alert: EFP and PCM quantities not currently incorporated into SCF psivars.

Properties will be evaluated at   0.000000,   0.000000,   0.000000 Bohr
  ==> Properties <==


Properties computed using the SCF density matrix

  Nuclear Dipole Moment: (a.u.)
     X:     2.2887      Y:    -0.1555      Z:    -1.3889

  Electronic Dipole Moment: (a.u.)
     X:    -1.4869      Y:     0.1699      Z:     0.6745

  Dipole Moment: (a.u.)
     X:     0.8017      Y:     0.0144      Z:    -0.7144     Total:     1.0740

  Dipole Moment: (Debye)
     X:     2.0378      Y:     0.0367      Z:    -1.8159     Total:     2.7298


  Saving occupied orbitals to File 180.

*** tstop() called on cx1-3-6-4.cx1.hpc.ic.ac.uk at Tue Jul  5 16:40:49 2016
Module time:
	user time   =       5.18 seconds =       0.09 minutes
	system time =       0.04 seconds =       0.00 minutes
	total time  =          6 seconds =       0.10 minutes
Total time:
	user time   =       5.18 seconds =       0.09 minutes
	system time =       0.04 seconds =       0.00 minutes
	total time  =          6 seconds =       0.10 minutes


Properties will be evaluated at   0.000000,   0.000000,   0.000000 Bohr

Properties computed using the  density matrix

  Nuclear Dipole Moment: (a.u.)
     X:     2.2887      Y:    -0.1555      Z:    -1.3889

  Electronic Dipole Moment: (a.u.)
     X:    -1.4869      Y:     0.1699      Z:     0.6745

  Dipole Moment: (a.u.)
     X:     0.8017      Y:     0.0144      Z:    -0.7144     Total:     1.0740

  Dipole Moment: (Debye)
     X:     2.0378      Y:     0.0367      Z:    -1.8159     Total:     2.7298

  Quadrupole Moment: (Debye Ang)
    XX:   -32.8235     YY:   -30.4443     ZZ:   -33.9088
    XY:     0.5040     XZ:     3.1926     YZ:    -0.5025

  Traceless Quadrupole Moment: (Debye Ang)
    XX:    -0.4313     YY:     1.9479     ZZ:    -1.5166
    XY:     0.5040     XZ:     3.1926     YZ:    -0.5025

  Mulliken Charges: (a.u.)
   Center  Symbol    Alpha    Beta     Spin     Total
       1     H     0.33702  0.33702  0.00000  0.32597
       2     N     3.92154  3.92154  0.00000 -0.84308
       3     C     3.07110  3.07110  0.00000 -0.14219
       4     H     0.32158  0.32158  0.00000  0.35683
       5     C     2.99561  2.99561  0.00000  0.00877
       6     H     0.41906  0.41906  0.00000  0.16188
       7     H     0.40989  0.40989  0.00000  0.18022
       8     O     4.30941  4.30941  0.00000 -0.61883
       9     H     0.43431  0.43431  0.00000  0.13138
      10     H     0.43261  0.43261  0.00000  0.13478
      11     C     3.07817  3.07817  0.00000 -0.15633
      12     H     0.42909  0.42909  0.00000  0.14182
      13     H     0.41158  0.41158  0.00000  0.17684
      14     H     0.42904  0.42904  0.00000  0.14193

   Total alpha = 21.00000, Total beta = 21.00000, Total charge =  0.00000


*** PSI4 exiting successfully. Buy a developer a beer!
