    -----------------------------------------------------------------------
          Psi4: An Open-Source Ab Initio Electronic Structure Package
                              Psi4 (no tag) Driver

                          Git: Rev {detached?}  

    J. M. Turney, A. C. Simmonett, R. M. Parrish, E. G. Hohenstein,
    F. A. Evangelista, J. T. Fermann, B. J. Mintz, L. A. Burns, J. J. Wilke,
    M. L. Abrams, N. J. Russ, M. L. Leininger, C. L. Janssen, E. T. Seidl,
    W. D. Allen, H. F. Schaefer, R. A. King, E. F. Valeev, C. D. Sherrill,
    and T. D. Crawford, WIREs Comput. Mol. Sci. 2, 556-565 (2012)
    (doi: 10.1002/wcms.93)

                         Additional Contributions by
    A. E. DePrince, M. Saitow, U. Bozkaya, A. Yu. Sokolov
    -----------------------------------------------------------------------


    Psi4 started on: Tue Jul  5 16:32:26 2016

    Process ID:  21575
    PSI4DATADIR: /export131/home/mjharvey/miniconda3/share
    Memory level set to 256.000 MB

  ==> Input File <==

--------------------------------------------------------------------------
set {
	reference rhf
	basis 6-31G*
}


set_num_threads( 1 )
memory 2 gb

molecule MOL {
0 1

H	 3.028703	 0.613319	 1.509608
C	 2.326329	 0.025615	 0.925219
C	 0.994570	 0.759117	 0.800665
H	 2.181142	 -0.929153	 1.418273
H	 2.782965	 -0.164273	 -0.040161
N	 -0.000257	 -0.000071	 0.054619
H	 0.613076	 0.933487	 1.798881
H	 1.150013	 1.747434	 0.358223
C	 -1.363055	 0.315058	 0.462241
C	 0.187994	 0.099660	 -1.386655
C	 -2.412078	 -0.285320	 -0.468531
H	 -1.482241	 1.391144	 0.451970
H	 -1.549931	 -0.001174	 1.492681
C	 -0.316596	 -1.130108	 -2.135188
H	 1.247145	 0.202283	 -1.586206
H	 -0.284774	 1.002216	 -1.784990
H	 -2.262839	 0.075384	 -1.480151
H	 -2.369300	 -1.368867	 -0.491760
H	 -3.410332	 -0.003975	 -0.144961
H	 0.195527	 -2.017893	 -1.781348
H	 -1.381824	 -1.284702	 -2.001243
H	 -0.132387	 -1.026382	 -3.200849

	symmetry c1
}
ee = energy('scf')
oeprop('DIPOLE', 'QUADRUPOLE', 'MULLIKEN_CHARGES')
f=open( 'psi4out.xyz', 'w' )
f.write( "22  " )
f.write( str(ee) + "\n" )
f.write( MOL.save_string_xyz() )
f.close()
--------------------------------------------------------------------------

  Memory set to   2.000 GiB by Python script.

*** tstart() called on cx1-3-15-2.cx1.hpc.ic.ac.uk
*** at Tue Jul  5 16:32:26 2016


         ---------------------------------------------------------
                                   SCF
            by Justin Turney, Rob Parrish, and Andy Simmonett
                              RHF Reference
                        1 Threads,   2000 MiB Core
         ---------------------------------------------------------

  ==> Geometry <==

    Molecular point group: c1
    Full point group: C1

    Geometry (in Angstrom), charge = 0, multiplicity = 1:

       Center              X                  Y                   Z               Mass       
    ------------   -----------------  -----------------  -----------------  -----------------
           H          3.114598535561     0.647242761482     1.770555061837     1.007825032070
           C          2.412224535561     0.059538761482     1.186166061837    12.000000000000
           C          1.080465535561     0.793040761482     1.061612061837    12.000000000000
           H          2.267037535561    -0.895229238518     1.679220061837     1.007825032070
           H          2.868860535561    -0.130349238518     0.220786061837     1.007825032070
           N          0.085638535561     0.033852761482     0.315566061837    14.003074004780
           H          0.698971535561     0.967410761482     2.059828061837     1.007825032070
           H          1.235908535561     1.781357761482     0.619170061837     1.007825032070
           C         -1.277159464439     0.348981761482     0.723188061837    12.000000000000
           C          0.273889535561     0.133583761482    -1.125707938163    12.000000000000
           C         -2.326182464439    -0.251396238518    -0.207583938163    12.000000000000
           H         -1.396345464439     1.425067761482     0.712917061837     1.007825032070
           H         -1.464035464439     0.032749761482     1.753628061837     1.007825032070
           C         -0.230700464439    -1.096184238518    -1.874240938163    12.000000000000
           H          1.333040535561     0.236206761482    -1.325258938163     1.007825032070
           H         -0.198878464439     1.036139761482    -1.524042938163     1.007825032070
           H         -2.176943464439     0.109307761482    -1.219203938163     1.007825032070
           H         -2.283404464439    -1.334943238518    -0.230812938163     1.007825032070
           H         -3.324436464439     0.029948761482     0.115986061837     1.007825032070
           H          0.281422535561    -1.983969238518    -1.520400938163     1.007825032070
           H         -1.295928464439    -1.250778238518    -1.740295938163     1.007825032070
           H         -0.046491464439    -0.992458238518    -2.939901938163     1.007825032070

  Running in c1 symmetry.

  Rotational constants: A =      0.12284  B =      0.06047  C =      0.04493 [cm^-1]
  Rotational constants: A =   3682.70803  B =   1812.77558  C =   1347.06779 [MHz]
  Nuclear repulsion =  342.108331592930142

  Charge       = 0
  Multiplicity = 1
  Electrons    = 58
  Nalpha       = 29
  Nbeta        = 29

  ==> Algorithm <==

  SCF Algorithm Type is DF.
  DIIS enabled.
  MOM disabled.
  Fractional occupation disabled.
  Guess Type is CORE.
  Energy threshold   = 1.00e-06
  Density threshold  = 1.00e-06
  Integral threshold = 0.00e+00

  ==> Primary Basis <==

  Basis Set: 6-31G*
    Number of shells: 72
    Number of basis function: 135
    Number of Cartesian functions: 135
    Spherical Harmonics?: false
    Max angular momentum: 2

  ==> Pre-Iterations <==

   -------------------------------------------------------
    Irrep   Nso     Nmo     Nalpha   Nbeta   Ndocc  Nsocc
   -------------------------------------------------------
     A        135     135       0       0       0       0
   -------------------------------------------------------
    Total     135     135      29      29      29       0
   -------------------------------------------------------

 OEINTS: Overlap, kinetic, potential, dipole, and quadrupole integrals
         stored in file 35.

  ==> Integral Setup <==

  ==> DFJK: Density-Fitted J/K Matrices <==

    J tasked:                  Yes
    K tasked:                  Yes
    wK tasked:                  No
    OpenMP threads:              1
    Integrals threads:           1
    Memory (MB):              1430
    Algorithm:                Core
    Integral Cache:           NONE
    Schwarz Cutoff:          1E-12
    Fitting Condition:       1E-12

   => Auxiliary Basis Set <=

  Basis Set: 
    Number of shells: 303
    Number of basis function: 942
    Number of Cartesian functions: 942
    Spherical Harmonics?: false
    Max angular momentum: 3

  Minimum eigenvalue in the overlap matrix is 4.0504628724E-03.
  Using Symmetric Orthogonalization.
  SCF Guess: Core (One-Electron) Hamiltonian.

  ==> Iterations <==

                           Total Energy        Delta E     RMS |[F,P]|

   @DF-RHF iter   1:  -167.46987252291871   -1.67470e+02   8.25150e-02 
   @DF-RHF iter   2:  -206.47117380275387   -3.90013e+01   4.92195e-02 DIIS
   @DF-RHF iter   3:  -233.30358400210702   -2.68324e+01   5.74295e-02 DIIS
   @DF-RHF iter   4:  -274.87426292614788   -4.15707e+01   2.75550e-02 DIIS
   @DF-RHF iter   5:  -264.88859535244268    9.98567e+00   3.67361e-02 DIIS
   @DF-RHF iter   6:  -290.17158951944629   -2.52830e+01   4.05348e-03 DIIS
   @DF-RHF iter   7:  -290.32459353467226   -1.53004e-01   1.68458e-03 DIIS
   @DF-RHF iter   8:  -290.34888538923116   -2.42919e-02   2.79167e-04 DIIS
   @DF-RHF iter   9:  -290.35012568307314   -1.24029e-03   7.92813e-05 DIIS
   @DF-RHF iter  10:  -290.35020493638200   -7.92533e-05   2.57536e-05 DIIS
   @DF-RHF iter  11:  -290.35021443674037   -9.50036e-06   7.12369e-06 DIIS
   @DF-RHF iter  12:  -290.35021522407663   -7.87336e-07   2.43164e-06 DIIS
   @DF-RHF iter  13:  -290.35021531533010   -9.12535e-08   6.99433e-07 DIIS

  ==> Post-Iterations <==

    Orbital Energies (a.u.)
    -----------------------

    Doubly Occupied:                                                      

       1A    -15.536555     2A    -11.242155     3A    -11.240568  
       4A    -11.239547     5A    -11.208330     6A    -11.204976  
       7A    -11.196611     8A     -1.224828     9A     -1.033369  
      10A     -1.012520    11A     -0.965287    12A     -0.850451  
      13A     -0.835508    14A     -0.776979    15A     -0.669934  
      16A     -0.635231    17A     -0.621640    18A     -0.593324  
      19A     -0.573902    20A     -0.549732    21A     -0.546983  
      22A     -0.530111    23A     -0.519331    24A     -0.493875  
      25A     -0.488835    26A     -0.475733    27A     -0.467441  
      28A     -0.452258    29A     -0.338709  

    Virtual:                                                              

      30A      0.232804    31A      0.256614    32A      0.264368  
      33A      0.283190    34A      0.293020    35A      0.305587  
      36A      0.312922    37A      0.321181    38A      0.329452  
      39A      0.336187    40A      0.345732    41A      0.352177  
      42A      0.363628    43A      0.379943    44A      0.389523  
      45A      0.391867    46A      0.405164    47A      0.442417  
      48A      0.449576    49A      0.472163    50A      0.487147  
      51A      0.712491    52A      0.732062    53A      0.739890  
      54A      0.746784    55A      0.771347    56A      0.779143  
      57A      0.817224    58A      0.839200    59A      0.853545  
      60A      0.874090    61A      0.920049    62A      0.935952  
      63A      0.957366    64A      0.983583    65A      0.992490  
      66A      1.048135    67A      1.058153    68A      1.122778  
      69A      1.126744    70A      1.134335    71A      1.155129  
      72A      1.166989    73A      1.168714    74A      1.188052  
      75A      1.191401    76A      1.196130    77A      1.204354  
      78A      1.211725    79A      1.243040    80A      1.249476  
      81A      1.261127    82A      1.273037    83A      1.289032  
      84A      1.312531    85A      1.331519    86A      1.358297  
      87A      1.411805    88A      1.516772    89A      1.588777  
      90A      1.601382    91A      1.683525    92A      1.711195  
      93A      1.801828    94A      1.839657    95A      1.887580  
      96A      1.913388    97A      2.013209    98A      2.078617  
      99A      2.112937   100A      2.150105   101A      2.235386  
     102A      2.254090   103A      2.271049   104A      2.291316  
     105A      2.321378   106A      2.334826   107A      2.342889  
     108A      2.407060   109A      2.413543   110A      2.421611  
     111A      2.507816   112A      2.566571   113A      2.597161  
     114A      2.646897   115A      2.666938   116A      2.677710  
     117A      2.690425   118A      2.697223   119A      2.701998  
     120A      2.763393   121A      2.823660   122A      2.827095  
     123A      2.920902   124A      3.000039   125A      3.090819  
     126A      3.132648   127A      3.242718   128A      3.260081  
     129A      4.495095   130A      4.630857   131A      4.655684  
     132A      4.682525   133A      4.853481   134A      4.889403  
     135A      4.952614  

    Final Occupation by Irrep:
              A 
    DOCC [    29 ]

  Energy converged.

  @DF-RHF Final Energy:  -290.35021531533010

   => Energetics <=

    Nuclear Repulsion Energy =            342.1083315929301421
    One-Electron Energy =               -1069.8670579225879465
    Two-Electron Energy =                 437.4085110143268480
    DFT Exchange-Correlation Energy =       0.0000000000000000
    Empirical Dispersion Energy =           0.0000000000000000
    PCM Polarization Energy =               0.0000000000000000
    EFP Energy =                            0.0000000000000000
    Total Energy =                       -290.3502153153308996

    Alert: EFP and PCM quantities not currently incorporated into SCF psivars.

Properties will be evaluated at   0.000000,   0.000000,   0.000000 Bohr
  ==> Properties <==


Properties computed using the SCF density matrix

  Nuclear Dipole Moment: (a.u.)
     X:    -0.3627      Y:    -0.3022      Z:    -1.4707

  Electronic Dipole Moment: (a.u.)
     X:     0.2684      Y:     0.5837      Z:     1.4484

  Dipole Moment: (a.u.)
     X:    -0.0943      Y:     0.2814      Z:    -0.0224     Total:     0.2976

  Dipole Moment: (Debye)
     X:    -0.2397      Y:     0.7153      Z:    -0.0568     Total:     0.7565


  Saving occupied orbitals to File 180.

*** tstop() called on cx1-3-15-2.cx1.hpc.ic.ac.uk at Tue Jul  5 16:32:40 2016
Module time:
	user time   =      13.36 seconds =       0.22 minutes
	system time =       0.06 seconds =       0.00 minutes
	total time  =         14 seconds =       0.23 minutes
Total time:
	user time   =      13.36 seconds =       0.22 minutes
	system time =       0.06 seconds =       0.00 minutes
	total time  =         14 seconds =       0.23 minutes


Properties will be evaluated at   0.000000,   0.000000,   0.000000 Bohr

Properties computed using the  density matrix

  Nuclear Dipole Moment: (a.u.)
     X:    -0.3627      Y:    -0.3022      Z:    -1.4707

  Electronic Dipole Moment: (a.u.)
     X:     0.2684      Y:     0.5837      Z:     1.4484

  Dipole Moment: (a.u.)
     X:    -0.0943      Y:     0.2814      Z:    -0.0224     Total:     0.2976

  Dipole Moment: (Debye)
     X:    -0.2397      Y:     0.7153      Z:    -0.0568     Total:     0.7565

  Quadrupole Moment: (Debye Ang)
    XX:   -46.7253     YY:   -48.7925     ZZ:   -46.8704
    XY:     0.5786     XZ:    -0.3189     YZ:     0.3433

  Traceless Quadrupole Moment: (Debye Ang)
    XX:     0.7374     YY:    -1.3297     ZZ:     0.5923
    XY:     0.5786     XZ:    -0.3189     YZ:     0.3433

  Mulliken Charges: (a.u.)
   Center  Symbol    Alpha    Beta     Spin     Total
       1     H     0.42362  0.42362  0.00000  0.15275
       2     C     3.23512  3.23512  0.00000 -0.47023
       3     C     3.05747  3.05747  0.00000 -0.11495
       4     H     0.41497  0.41497  0.00000  0.17006
       5     H     0.42128  0.42128  0.00000  0.15743
       6     N     3.78459  3.78459  0.00000 -0.56917
       7     H     0.41920  0.41920  0.00000  0.16160
       8     H     0.43266  0.43266  0.00000  0.13469
       9     C     3.04380  3.04380  0.00000 -0.08760
      10     C     3.06998  3.06998  0.00000 -0.13996
      11     C     3.26335  3.26335  0.00000 -0.52670
      12     H     0.43414  0.43414  0.00000  0.13172
      13     H     0.41866  0.41866  0.00000  0.16268
      14     C     3.23687  3.23687  0.00000 -0.47375
      15     H     0.41559  0.41559  0.00000  0.16882
      16     H     0.43182  0.43182  0.00000  0.13636
      17     H     0.41166  0.41166  0.00000  0.17667
      18     H     0.41041  0.41041  0.00000  0.17918
      19     H     0.41766  0.41766  0.00000  0.16469
      20     H     0.41651  0.41651  0.00000  0.16698
      21     H     0.41456  0.41456  0.00000  0.17088
      22     H     0.42607  0.42607  0.00000  0.14786

   Total alpha = 29.00000, Total beta = 29.00000, Total charge = -0.00000


*** PSI4 exiting successfully. Buy a developer a beer!
