    -----------------------------------------------------------------------
          Psi4: An Open-Source Ab Initio Electronic Structure Package
                              Psi4 (no tag) Driver

                          Git: Rev {detached?}  

    J. M. Turney, A. C. Simmonett, R. M. Parrish, E. G. Hohenstein,
    F. A. Evangelista, J. T. Fermann, B. J. Mintz, L. A. Burns, J. J. Wilke,
    M. L. Abrams, N. J. Russ, M. L. Leininger, C. L. Janssen, E. T. Seidl,
    W. D. Allen, H. F. Schaefer, R. A. King, E. F. Valeev, C. D. Sherrill,
    and T. D. Crawford, WIREs Comput. Mol. Sci. 2, 556-565 (2012)
    (doi: 10.1002/wcms.93)

                         Additional Contributions by
    A. E. DePrince, M. Saitow, U. Bozkaya, A. Yu. Sokolov
    -----------------------------------------------------------------------


    Psi4 started on: Tue Jul  5 16:27:14 2016

    Process ID:  27886
    PSI4DATADIR: /export131/home/mjharvey/miniconda3/share
    Memory level set to 256.000 MB

  ==> Input File <==

--------------------------------------------------------------------------
set {
	reference rhf
	basis 6-31G*
}


set_num_threads( 1 )
memory 2 gb

molecule MOL {
0 1

H	 -3.135461	 -1.215070	 0.001379
O	 -2.310168	 -0.871793	 -0.309793
C	 -2.026376	 0.340750	 0.341611
C	 -0.673256	 0.843270	 -0.132153
H	 -2.792215	 1.080697	 0.115987
H	 -2.013526	 0.200402	 1.421792
C	 0.486613	 -0.083066	 0.235839
H	 -0.715586	 0.970948	 -1.210718
H	 -0.508072	 1.829858	 0.297090
C	 1.840406	 0.433480	 -0.254303
H	 0.300215	 -1.068318	 -0.178947
H	 0.519509	 -0.203625	 1.318070
C	 2.879668	 0.532033	 0.861893
H	 2.213880	 -0.223813	 -1.036736
H	 1.711414	 1.411561	 -0.713827
H	 3.056378	 -0.437695	 1.318282
H	 3.829652	 0.898626	 0.484952
H	 2.550945	 1.209659	 1.645012

	symmetry c1
}
set optking {
	frozen_dihedral = ("
		10 7 4 8,
		2 3 4 8,
		1 2 3 4
	")
}

ee = energy('scf')
oeprop('DIPOLE', 'QUADRUPOLE', 'MULLIKEN_CHARGES')
f=open( 'psi4out.xyz', 'w' )
f.write( "18  " )
f.write( str(ee) + "\n" )
f.write( MOL.save_string_xyz() )
f.close()
--------------------------------------------------------------------------

  Memory set to   2.000 GiB by Python script.

*** tstart() called on cx1-3-2-3.cx1.hpc.ic.ac.uk
*** at Tue Jul  5 16:27:14 2016


         ---------------------------------------------------------
                                   SCF
            by Justin Turney, Rob Parrish, and Andy Simmonett
                              RHF Reference
                        1 Threads,   2000 MiB Core
         ---------------------------------------------------------

  ==> Geometry <==

    Molecular point group: c1
    Full point group: C1

    Geometry (in Angstrom), charge = 0, multiplicity = 1:

       Center              X                  Y                   Z               Mass       
    ------------   -----------------  -----------------  -----------------  -----------------
           H         -3.114914830885    -1.389228615550    -0.125413037161     1.007825032070
           O         -2.289621830885    -1.045951615550    -0.436585037161    15.994914619560
           C         -2.005829830885     0.166591384450     0.214818962839    12.000000000000
           C         -0.652709830885     0.669111384450    -0.258945037161    12.000000000000
           H         -2.771668830885     0.906538384450    -0.010805037161     1.007825032070
           H         -1.992979830885     0.026243384450     1.294999962839     1.007825032070
           C          0.507159169115    -0.257224615550     0.109046962839    12.000000000000
           H         -0.695039830885     0.796789384450    -1.337510037161     1.007825032070
           H         -0.487525830885     1.655699384450     0.170297962839     1.007825032070
           C          1.860952169115     0.259321384450    -0.381095037161    12.000000000000
           H          0.320761169115    -1.242476615550    -0.305739037161     1.007825032070
           H          0.540055169115    -0.377783615550     1.191277962839     1.007825032070
           C          2.900214169115     0.357874384450     0.735100962839    12.000000000000
           H          2.234426169115    -0.397971615550    -1.163528037161     1.007825032070
           H          1.731960169115     1.237402384450    -0.840619037161     1.007825032070
           H          3.076924169115    -0.611853615550     1.191489962839     1.007825032070
           H          3.850198169115     0.724467384450     0.358159962839     1.007825032070
           H          2.571491169115     1.035500384450     1.518219962839     1.007825032070

  Running in c1 symmetry.

  Rotational constants: A =      0.33805  B =      0.04480  C =      0.04361 [cm^-1]
  Rotational constants: A =  10134.48756  B =   1343.04602  C =   1307.24674 [MHz]
  Nuclear repulsion =  249.585789191819714

  Charge       = 0
  Multiplicity = 1
  Electrons    = 50
  Nalpha       = 25
  Nbeta        = 25

  ==> Algorithm <==

  SCF Algorithm Type is DF.
  DIIS enabled.
  MOM disabled.
  Fractional occupation disabled.
  Guess Type is CORE.
  Energy threshold   = 1.00e-06
  Density threshold  = 1.00e-06
  Integral threshold = 0.00e+00

  ==> Primary Basis <==

  Basis Set: 6-31G*
    Number of shells: 60
    Number of basis function: 114
    Number of Cartesian functions: 114
    Spherical Harmonics?: false
    Max angular momentum: 2

  ==> Pre-Iterations <==

   -------------------------------------------------------
    Irrep   Nso     Nmo     Nalpha   Nbeta   Ndocc  Nsocc
   -------------------------------------------------------
     A        114     114       0       0       0       0
   -------------------------------------------------------
    Total     114     114      25      25      25       0
   -------------------------------------------------------

 OEINTS: Overlap, kinetic, potential, dipole, and quadrupole integrals
         stored in file 35.

  ==> Integral Setup <==

  ==> DFJK: Density-Fitted J/K Matrices <==

    J tasked:                  Yes
    K tasked:                  Yes
    wK tasked:                  No
    OpenMP threads:              1
    Integrals threads:           1
    Memory (MB):              1430
    Algorithm:                Core
    Integral Cache:           NONE
    Schwarz Cutoff:          1E-12
    Fitting Condition:       1E-12

   => Auxiliary Basis Set <=

  Basis Set: 
    Number of shells: 252
    Number of basis function: 786
    Number of Cartesian functions: 786
    Spherical Harmonics?: false
    Max angular momentum: 3

  Minimum eigenvalue in the overlap matrix is 3.7333336929E-03.
  Using Symmetric Orthogonalization.
  SCF Guess: Core (One-Electron) Hamiltonian.

  ==> Iterations <==

                           Total Energy        Delta E     RMS |[F,P]|

   @DF-RHF iter   1:  -208.28032035827133   -2.08280e+02   7.27071e-02 
   @DF-RHF iter   2:   -92.67844643967013    1.15602e+02   9.30039e-02 DIIS
   @DF-RHF iter   3:  -228.41629612062408   -1.35738e+02   4.11696e-02 DIIS
   @DF-RHF iter   4:  -165.28313604507682    6.31332e+01   7.40018e-02 DIIS
   @DF-RHF iter   5:  -226.91879263470932   -6.16357e+01   5.59941e-02 DIIS
   @DF-RHF iter   6:  -262.31070457602004   -3.53919e+01   2.45115e-02 DIIS
   @DF-RHF iter   7:  -270.80479556593593   -8.49409e+00   7.71292e-03 DIIS
   @DF-RHF iter   8:  -271.13634155610885   -3.31546e-01   2.50503e-03 DIIS
   @DF-RHF iter   9:  -271.17201150442747   -3.56699e-02   3.87291e-04 DIIS
   @DF-RHF iter  10:  -271.17396533777560   -1.95383e-03   1.21332e-04 DIIS
   @DF-RHF iter  11:  -271.17415882396904   -1.93486e-04   3.60680e-05 DIIS
   @DF-RHF iter  12:  -271.17417349184439   -1.46679e-05   1.50263e-05 DIIS
   @DF-RHF iter  13:  -271.17417579070161   -2.29886e-06   5.38752e-06 DIIS
   @DF-RHF iter  14:  -271.17417610963616   -3.18935e-07   1.30918e-06 DIIS
   @DF-RHF iter  15:  -271.17417612680026   -1.71641e-08   5.83717e-07 DIIS

  ==> Post-Iterations <==

    Orbital Energies (a.u.)
    -----------------------

    Doubly Occupied:                                                      

       1A    -20.552848     2A    -11.267507     3A    -11.212333  
       4A    -11.209107     5A    -11.205517     6A    -11.204667  
       7A     -1.359535     8A     -1.075041     9A     -1.008124  
      10A     -0.913110    11A     -0.819746    12A     -0.782687  
      13A     -0.705000    14A     -0.638033    15A     -0.620310  
      16A     -0.593821    17A     -0.571348    18A     -0.550481  
      19A     -0.521428    20A     -0.504094    21A     -0.492794  
      22A     -0.465615    23A     -0.451421    24A     -0.447255  
      25A     -0.427993  

    Virtual:                                                              

      26A      0.224899    27A      0.246071    28A      0.269106  
      29A      0.283171    30A      0.289501    31A      0.313893  
      32A      0.324921    33A      0.328424    34A      0.336068  
      35A      0.338790    36A      0.351574    37A      0.371596  
      38A      0.403974    39A      0.429079    40A      0.449001  
      41A      0.468319    42A      0.477310    43A      0.710080  
      44A      0.728714    45A      0.740907    46A      0.785883  
      47A      0.804137    48A      0.815161    49A      0.831165  
      50A      0.862643    51A      0.935270    52A      0.950076  
      53A      0.959182    54A      0.980464    55A      1.029863  
      56A      1.079136    57A      1.122010    58A      1.124918  
      59A      1.149100    60A      1.156400    61A      1.162256  
      62A      1.177484    63A      1.185869    64A      1.213402  
      65A      1.219421    66A      1.228574    67A      1.241292  
      68A      1.251801    69A      1.268760    70A      1.286288  
      71A      1.297930    72A      1.327999    73A      1.442328  
      74A      1.484239    75A      1.611549    76A      1.689394  
      77A      1.722058    78A      1.800410    79A      1.846028  
      80A      1.914283    81A      1.953918    82A      2.044055  
      83A      2.046484    84A      2.066195    85A      2.101909  
      86A      2.177342    87A      2.250705    88A      2.271244  
      89A      2.291716    90A      2.319083    91A      2.362194  
      92A      2.411258    93A      2.460608    94A      2.500946  
      95A      2.585184    96A      2.612242    97A      2.678953  
      98A      2.717545    99A      2.724000   100A      2.758062  
     101A      2.779379   102A      2.799206   103A      2.871590  
     104A      2.959074   105A      3.001672   106A      3.095131  
     107A      3.110846   108A      3.241415   109A      4.178272  
     110A      4.568247   111A      4.654059   112A      4.774732  
     113A      4.885717   114A      4.998243  

    Final Occupation by Irrep:
              A 
    DOCC [    25 ]

  Energy converged.

  @DF-RHF Final Energy:  -271.17417612680026

   => Energetics <=

    Nuclear Repulsion Energy =            249.5857891918197140
    One-Electron Energy =                -862.3201727814334845
    Two-Electron Energy =                 341.5602074628131390
    DFT Exchange-Correlation Energy =       0.0000000000000000
    Empirical Dispersion Energy =           0.0000000000000000
    PCM Polarization Energy =               0.0000000000000000
    EFP Energy =                            0.0000000000000000
    Total Energy =                       -271.1741761268006599

    Alert: EFP and PCM quantities not currently incorporated into SCF psivars.

Properties will be evaluated at   0.000000,   0.000000,   0.000000 Bohr
  ==> Properties <==


Properties computed using the SCF density matrix

  Nuclear Dipole Moment: (a.u.)
     X:     4.9235      Y:     2.2105      Z:     1.8174

  Electronic Dipole Moment: (a.u.)
     X:    -5.3462      Y:    -1.9804      Z:    -1.4017

  Dipole Moment: (a.u.)
     X:    -0.4227      Y:     0.2302      Z:     0.4157     Total:     0.6359

  Dipole Moment: (Debye)
     X:    -1.0743      Y:     0.5850      Z:     1.0566     Total:     1.6164


  Saving occupied orbitals to File 180.

*** tstop() called on cx1-3-2-3.cx1.hpc.ic.ac.uk at Tue Jul  5 16:27:24 2016
Module time:
	user time   =       9.61 seconds =       0.16 minutes
	system time =       0.07 seconds =       0.00 minutes
	total time  =         10 seconds =       0.17 minutes
Total time:
	user time   =       9.61 seconds =       0.16 minutes
	system time =       0.07 seconds =       0.00 minutes
	total time  =         10 seconds =       0.17 minutes


Properties will be evaluated at   0.000000,   0.000000,   0.000000 Bohr

Properties computed using the  density matrix

  Nuclear Dipole Moment: (a.u.)
     X:     4.9235      Y:     2.2105      Z:     1.8174

  Electronic Dipole Moment: (a.u.)
     X:    -5.3462      Y:    -1.9804      Z:    -1.4017

  Dipole Moment: (a.u.)
     X:    -0.4227      Y:     0.2302      Z:     0.4157     Total:     0.6359

  Dipole Moment: (Debye)
     X:    -1.0743      Y:     0.5850      Z:     1.0566     Total:     1.6164

  Quadrupole Moment: (Debye Ang)
    XX:   -34.4347     YY:   -40.0674     ZZ:   -40.9753
    XY:     0.4681     XZ:    -3.0058     YZ:    -1.1030

  Traceless Quadrupole Moment: (Debye Ang)
    XX:     4.0578     YY:    -1.5750     ZZ:    -2.4829
    XY:     0.4681     XZ:    -3.0058     YZ:    -1.1030

  Mulliken Charges: (a.u.)
   Center  Symbol    Alpha    Beta     Spin     Total
       1     H     0.28061  0.28061  0.00000  0.43878
       2     O     4.36969  4.36969  0.00000 -0.73938
       3     C     2.99757  2.99757  0.00000  0.00485
       4     C     3.16280  3.16280  0.00000 -0.32561
       5     H     0.42945  0.42945  0.00000  0.14110
       6     H     0.43264  0.43264  0.00000  0.13472
       7     C     3.15692  3.15692  0.00000 -0.31383
       8     H     0.41447  0.41447  0.00000  0.17106
       9     H     0.42401  0.42401  0.00000  0.15198
      10     C     3.15421  3.15421  0.00000 -0.30841
      11     H     0.40528  0.40528  0.00000  0.18945
      12     H     0.42479  0.42479  0.00000  0.15042
      13     C     3.24013  3.24013  0.00000 -0.48027
      14     H     0.41973  0.41973  0.00000  0.16054
      15     H     0.42179  0.42179  0.00000  0.15641
      16     H     0.42131  0.42131  0.00000  0.15738
      17     H     0.42131  0.42131  0.00000  0.15739
      18     H     0.42328  0.42328  0.00000  0.15343

   Total alpha = 25.00000, Total beta = 25.00000, Total charge =  0.00000


*** PSI4 exiting successfully. Buy a developer a beer!
