    -----------------------------------------------------------------------
          Psi4: An Open-Source Ab Initio Electronic Structure Package
                              Psi4 (no tag) Driver

                          Git: Rev {detached?}  

    J. M. Turney, A. C. Simmonett, R. M. Parrish, E. G. Hohenstein,
    F. A. Evangelista, J. T. Fermann, B. J. Mintz, L. A. Burns, J. J. Wilke,
    M. L. Abrams, N. J. Russ, M. L. Leininger, C. L. Janssen, E. T. Seidl,
    W. D. Allen, H. F. Schaefer, R. A. King, E. F. Valeev, C. D. Sherrill,
    and T. D. Crawford, WIREs Comput. Mol. Sci. 2, 556-565 (2012)
    (doi: 10.1002/wcms.93)

                         Additional Contributions by
    A. E. DePrince, M. Saitow, U. Bozkaya, A. Yu. Sokolov
    -----------------------------------------------------------------------


    Psi4 started on: Tue Jul  5 16:21:07 2016

    Process ID:  25287
    PSI4DATADIR: /export131/home/mjharvey/miniconda3/share
    Memory level set to 256.000 MB

  ==> Input File <==

--------------------------------------------------------------------------
set {
	reference rhf
	basis 6-31G*
}


set_num_threads( 1 )
memory 2 gb

molecule MOL {
0 1

H	 -0.367348	 2.047014	 -0.308205
C	 0.352277	 1.337084	 0.083769
N	 -0.000016	 0.000074	 -0.335546
H	 1.328359	 1.600444	 -0.307950
H	 0.381933	 1.450534	 1.172486
C	 -0.020588	 -0.925810	 0.773772
C	 -1.237343	 -0.023594	 -1.081613
H	 -0.217730	 -1.928647	 0.412101
H	 0.945691	 -0.932273	 1.265428
H	 -0.780518	 -0.679903	 1.522717
H	 -1.159289	 0.628324	 -1.944332
H	 -1.432097	 -1.028387	 -1.439246
H	 -2.100367	 0.299103	 -0.490019

	symmetry c1
}
ee = energy('scf')
oeprop('DIPOLE', 'QUADRUPOLE', 'MULLIKEN_CHARGES')
f=open( 'psi4out.xyz', 'w' )
f.write( "13  " )
f.write( str(ee) + "\n" )
f.write( MOL.save_string_xyz() )
f.close()
--------------------------------------------------------------------------

  Memory set to   2.000 GiB by Python script.

*** tstart() called on cx1-3-1-3.cx1.hpc.ic.ac.uk
*** at Tue Jul  5 16:21:07 2016


         ---------------------------------------------------------
                                   SCF
            by Justin Turney, Rob Parrish, and Andy Simmonett
                              RHF Reference
                        1 Threads,   2000 MiB Core
         ---------------------------------------------------------

  ==> Geometry <==

    Molecular point group: c1
    Full point group: C1

    Geometry (in Angstrom), charge = 0, multiplicity = 1:

       Center              X                  Y                   Z               Mass       
    ------------   -----------------  -----------------  -----------------  -----------------
           H         -0.125343479899     1.943400701604    -0.181151833266     1.007825032070
           C          0.594281520101     1.233470701604     0.210822166734    12.000000000000
           N          0.241988520101    -0.103539298396    -0.208492833266    14.003074004780
           H          1.570363520101     1.496830701604    -0.180896833266     1.007825032070
           H          0.623937520101     1.346920701604     1.299539166734     1.007825032070
           C          0.221416520101    -1.029423298396     0.900825166734    12.000000000000
           C         -0.995338479899    -0.127207298396    -0.954559833266    12.000000000000
           H          0.024274520101    -2.032260298396     0.539154166734     1.007825032070
           H          1.187695520101    -1.035886298396     1.392481166734     1.007825032070
           H         -0.538513479899    -0.783516298396     1.649770166734     1.007825032070
           H         -0.917284479899     0.524710701604    -1.817278833266     1.007825032070
           H         -1.190092479899    -1.132000298396    -1.312192833266     1.007825032070
           H         -1.858362479899     0.195489701604    -0.362965833266     1.007825032070

  Running in c1 symmetry.

  Rotational constants: A =      0.29353  B =      0.29340  C =      0.16558 [cm^-1]
  Rotational constants: A =   8799.76993  B =   8795.99001  C =   4963.91824 [MHz]
  Nuclear repulsion =  139.337289989652220

  Charge       = 0
  Multiplicity = 1
  Electrons    = 34
  Nalpha       = 17
  Nbeta        = 17

  ==> Algorithm <==

  SCF Algorithm Type is DF.
  DIIS enabled.
  MOM disabled.
  Fractional occupation disabled.
  Guess Type is CORE.
  Energy threshold   = 1.00e-06
  Density threshold  = 1.00e-06
  Integral threshold = 0.00e+00

  ==> Primary Basis <==

  Basis Set: 6-31G*
    Number of shells: 42
    Number of basis function: 78
    Number of Cartesian functions: 78
    Spherical Harmonics?: false
    Max angular momentum: 2

  ==> Pre-Iterations <==

   -------------------------------------------------------
    Irrep   Nso     Nmo     Nalpha   Nbeta   Ndocc  Nsocc
   -------------------------------------------------------
     A         78      78       0       0       0       0
   -------------------------------------------------------
    Total      78      78      17      17      17       0
   -------------------------------------------------------

 OEINTS: Overlap, kinetic, potential, dipole, and quadrupole integrals
         stored in file 35.

  ==> Integral Setup <==

  ==> DFJK: Density-Fitted J/K Matrices <==

    J tasked:                  Yes
    K tasked:                  Yes
    wK tasked:                  No
    OpenMP threads:              1
    Integrals threads:           1
    Memory (MB):              1430
    Algorithm:                Core
    Integral Cache:           NONE
    Schwarz Cutoff:          1E-12
    Fitting Condition:       1E-12

   => Auxiliary Basis Set <=

  Basis Set: 
    Number of shells: 177
    Number of basis function: 549
    Number of Cartesian functions: 549
    Spherical Harmonics?: false
    Max angular momentum: 3

  Minimum eigenvalue in the overlap matrix is 6.0444637408E-03.
  Using Symmetric Orthogonalization.
  SCF Guess: Core (One-Electron) Hamiltonian.

  ==> Iterations <==

                           Total Energy        Delta E     RMS |[F,P]|

   @DF-RHF iter   1:  -136.62676384374413   -1.36627e+02   8.44384e-02 
   @DF-RHF iter   2:  -146.71971747650485   -1.00930e+01   5.28117e-02 DIIS
   @DF-RHF iter   3:  -169.42000291827986   -2.27003e+01   3.70926e-02 DIIS
   @DF-RHF iter   4:  -172.17430838583749   -2.75431e+00   1.92241e-02 DIIS
   @DF-RHF iter   5:  -173.22382668632446   -1.04952e+00   3.35032e-03 DIIS
   @DF-RHF iter   6:  -173.25949370695326   -3.56670e-02   9.34814e-04 DIIS
   @DF-RHF iter   7:  -173.26172040075875   -2.22669e-03   1.04258e-04 DIIS
   @DF-RHF iter   8:  -173.26178610640409   -6.57056e-05   3.93350e-05 DIIS
   @DF-RHF iter   9:  -173.26179278417391   -6.67777e-06   7.99602e-06 DIIS
   @DF-RHF iter  10:  -173.26179323529118   -4.51117e-07   2.01214e-06 DIIS
   @DF-RHF iter  11:  -173.26179325704555   -2.17544e-08   6.68810e-07 DIIS

  ==> Post-Iterations <==

    Orbital Energies (a.u.)
    -----------------------

    Doubly Occupied:                                                      

       1A    -15.540006     2A    -11.235577     3A    -11.235337  
       4A    -11.233974     5A     -1.224362     6A     -0.951758  
       7A     -0.950408     8A     -0.806748     9A     -0.639300  
      10A     -0.629694    11A     -0.627655    12A     -0.550510  
      13A     -0.548737    14A     -0.513887    15A     -0.498880  
      16A     -0.497474    17A     -0.342846  

    Virtual:                                                              

      18A      0.228746    19A      0.296948    20A      0.301543  
      21A      0.303216    22A      0.309063    23A      0.316227  
      24A      0.336389    25A      0.348158    26A      0.356670  
      27A      0.361854    28A      0.434853    29A      0.467499  
      30A      0.722366    31A      0.755126    32A      0.766472  
      33A      0.802884    34A      0.817197    35A      0.862102  
      36A      0.889679    37A      0.926810    38A      0.999807  
      39A      1.099519    40A      1.105816    41A      1.138758  
      42A      1.147439    43A      1.150416    44A      1.155620  
      45A      1.190348    46A      1.205384    47A      1.243342  
      48A      1.260370    49A      1.262853    50A      1.278356  
      51A      1.294374    52A      1.580214    53A      1.628143  
      54A      1.632718    55A      1.737722    56A      1.750372  
      57A      2.087496    58A      2.206862    59A      2.253595  
      60A      2.288930    61A      2.340918    62A      2.360455  
      63A      2.459808    64A      2.469469    65A      2.485927  
      66A      2.568062    67A      2.599988    68A      2.613038  
      69A      2.653063    70A      2.886344    71A      2.956858  
      72A      2.959087    73A      3.154278    74A      3.176962  
      75A      4.482365    76A      4.665335    77A      4.685883  
      78A      4.796793  

    Final Occupation by Irrep:
              A 
    DOCC [    17 ]

  Energy converged.

  @DF-RHF Final Energy:  -173.26179325704555

   => Energetics <=

    Nuclear Repulsion Energy =            139.3372899896522199
    One-Electron Energy =                -509.1439989282952183
    Two-Electron Energy =                 196.5449156815974447
    DFT Exchange-Correlation Energy =       0.0000000000000000
    Empirical Dispersion Energy =           0.0000000000000000
    PCM Polarization Energy =               0.0000000000000000
    EFP Energy =                            0.0000000000000000
    Total Energy =                       -173.2617932570455537

    Alert: EFP and PCM quantities not currently incorporated into SCF psivars.

Properties will be evaluated at   0.000000,   0.000000,   0.000000 Bohr
  ==> Properties <==


Properties computed using the SCF density matrix

  Nuclear Dipole Moment: (a.u.)
     X:    -1.1475      Y:     0.4912      Z:     0.9629

  Electronic Dipole Moment: (a.u.)
     X:     0.8987      Y:    -0.3686      Z:    -0.7532

  Dipole Moment: (a.u.)
     X:    -0.2489      Y:     0.1226      Z:     0.2097     Total:     0.3478

  Dipole Moment: (Debye)
     X:    -0.6325      Y:     0.3116      Z:     0.5330     Total:     0.8839


  Saving occupied orbitals to File 180.

*** tstop() called on cx1-3-1-3.cx1.hpc.ic.ac.uk at Tue Jul  5 16:21:11 2016
Module time:
	user time   =       2.91 seconds =       0.05 minutes
	system time =       0.03 seconds =       0.00 minutes
	total time  =          4 seconds =       0.07 minutes
Total time:
	user time   =       2.91 seconds =       0.05 minutes
	system time =       0.03 seconds =       0.00 minutes
	total time  =          4 seconds =       0.07 minutes


Properties will be evaluated at   0.000000,   0.000000,   0.000000 Bohr

Properties computed using the  density matrix

  Nuclear Dipole Moment: (a.u.)
     X:    -1.1475      Y:     0.4912      Z:     0.9629

  Electronic Dipole Moment: (a.u.)
     X:     0.8987      Y:    -0.3686      Z:    -0.7532

  Dipole Moment: (a.u.)
     X:    -0.2489      Y:     0.1226      Z:     0.2097     Total:     0.3478

  Dipole Moment: (Debye)
     X:    -0.6325      Y:     0.3116      Z:     0.5330     Total:     0.8839

  Quadrupole Moment: (Debye Ang)
    XX:   -28.0592     YY:   -26.4823     ZZ:   -27.4550
    XY:     0.5499     XZ:     1.4388     YZ:    -0.4954

  Traceless Quadrupole Moment: (Debye Ang)
    XX:    -0.7270     YY:     0.8499     ZZ:    -0.1228
    XY:     0.5499     XZ:     1.4388     YZ:    -0.4954

  Mulliken Charges: (a.u.)
   Center  Symbol    Alpha    Beta     Spin     Total
       1     H     0.42202  0.42202  0.00000  0.15597
       2     C     3.14577  3.14577  0.00000 -0.29154
       3     N     3.76533  3.76533  0.00000 -0.53065
       4     H     0.41526  0.41526  0.00000  0.16949
       5     H     0.42496  0.42496  0.00000  0.15007
       6     C     3.14396  3.14396  0.00000 -0.28792
       7     C     3.14467  3.14467  0.00000 -0.28935
       8     H     0.41789  0.41789  0.00000  0.16422
       9     H     0.41593  0.41593  0.00000  0.16814
      10     H     0.43535  0.43535  0.00000  0.12931
      11     H     0.41585  0.41585  0.00000  0.16830
      12     H     0.41761  0.41761  0.00000  0.16478
      13     H     0.43540  0.43540  0.00000  0.12919

   Total alpha = 17.00000, Total beta = 17.00000, Total charge =  0.00000


*** PSI4 exiting successfully. Buy a developer a beer!
