    -----------------------------------------------------------------------
          Psi4: An Open-Source Ab Initio Electronic Structure Package
                              Psi4 (no tag) Driver

                          Git: Rev {detached?}  

    J. M. Turney, A. C. Simmonett, R. M. Parrish, E. G. Hohenstein,
    F. A. Evangelista, J. T. Fermann, B. J. Mintz, L. A. Burns, J. J. Wilke,
    M. L. Abrams, N. J. Russ, M. L. Leininger, C. L. Janssen, E. T. Seidl,
    W. D. Allen, H. F. Schaefer, R. A. King, E. F. Valeev, C. D. Sherrill,
    and T. D. Crawford, WIREs Comput. Mol. Sci. 2, 556-565 (2012)
    (doi: 10.1002/wcms.93)

                         Additional Contributions by
    A. E. DePrince, M. Saitow, U. Bozkaya, A. Yu. Sokolov
    -----------------------------------------------------------------------


    Psi4 started on: Tue Jul  5 16:36:15 2016

    Process ID:  17356
    PSI4DATADIR: /export131/home/mjharvey/miniconda3/share
    Memory level set to 256.000 MB

  ==> Input File <==

--------------------------------------------------------------------------
set {
	reference rhf
	basis 6-31G*
}


set_num_threads( 1 )
memory 2 gb

molecule MOL {
0 1

H	 -3.408315	 -1.030961	 0.139285
O	 -3.119657	 -0.141268	 -0.011510
C	 -1.777545	 -0.059395	 -0.001477
C	 -0.968376	 -1.172140	 0.208392
C	 -1.212713	 1.192493	 -0.210777
H	 -1.414216	 -2.138822	 0.369833
C	 0.403175	 -1.028375	 0.208105
H	 -1.857870	 2.035453	 -0.370347
C	 0.160646	 1.320219	 -0.208218
H	 1.039518	 -1.878295	 0.368736
C	 0.984182	 0.218375	 0.000000
H	 0.598863	 2.290134	 -0.370364
C	 2.452467	 0.370529	 0.000000
O	 3.228994	 -0.533774	 0.000000
H	 2.809473	 1.405765	 0.000000

	symmetry c1
}
set optking {
	frozen_dihedral = ("
		5 3 2 1
	")
}

ee = energy('scf')
oeprop('DIPOLE', 'QUADRUPOLE', 'MULLIKEN_CHARGES')
f=open( 'psi4out.xyz', 'w' )
f.write( "15  " )
f.write( str(ee) + "\n" )
f.write( MOL.save_string_xyz() )
f.close()
--------------------------------------------------------------------------

  Memory set to   2.000 GiB by Python script.

*** tstart() called on cx1-1-3-3.cx1.hpc.ic.ac.uk
*** at Tue Jul  5 16:36:15 2016


         ---------------------------------------------------------
                                   SCF
            by Justin Turney, Rob Parrish, and Andy Simmonett
                              RHF Reference
                        1 Threads,   2000 MiB Core
         ---------------------------------------------------------

  ==> Geometry <==

    Molecular point group: c1
    Full point group: C1

    Geometry (in Angstrom), charge = 0, multiplicity = 1:

       Center              X                  Y                   Z               Mass       
    ------------   -----------------  -----------------  -----------------  -----------------
           H         -3.408321975175    -1.030894245422     0.140051861592     1.007825032070
           O         -3.119663975175    -0.141201245422    -0.010743138408    15.994914619560
           C         -1.777551975175    -0.059328245422    -0.000710138408    12.000000000000
           C         -0.968382975175    -1.172073245422     0.209158861592    12.000000000000
           C         -1.212719975175     1.192559754578    -0.210010138408    12.000000000000
           H         -1.414222975175    -2.138755245422     0.370599861592     1.007825032070
           C          0.403168024825    -1.028308245422     0.208871861592    12.000000000000
           H         -1.857876975175     2.035519754578    -0.369580138408     1.007825032070
           C          0.160639024825     1.320285754578    -0.207451138408    12.000000000000
           H          1.039511024825    -1.878228245422     0.369502861592     1.007825032070
           C          0.984175024825     0.218441754578     0.000766861592    12.000000000000
           H          0.598856024825     2.290200754578    -0.369597138408     1.007825032070
           C          2.452460024825     0.370595754578     0.000766861592    12.000000000000
           O          3.228987024825    -0.533707245422     0.000766861592    15.994914619560
           H          2.809466024825     1.405831754578     0.000766861592     1.007825032070

  Running in c1 symmetry.

  Rotational constants: A =      0.17278  B =      0.03356  C =      0.02813 [cm^-1]
  Rotational constants: A =   5179.94017  B =   1006.15965  C =    843.28822 [MHz]
  Nuclear repulsion =  401.346450649474548

  Charge       = 0
  Multiplicity = 1
  Electrons    = 64
  Nalpha       = 32
  Nbeta        = 32

  ==> Algorithm <==

  SCF Algorithm Type is DF.
  DIIS enabled.
  MOM disabled.
  Fractional occupation disabled.
  Guess Type is CORE.
  Energy threshold   = 1.00e-06
  Density threshold  = 1.00e-06
  Integral threshold = 0.00e+00

  ==> Primary Basis <==

  Basis Set: 6-31G*
    Number of shells: 66
    Number of basis function: 147
    Number of Cartesian functions: 147
    Spherical Harmonics?: false
    Max angular momentum: 2

  ==> Pre-Iterations <==

   -------------------------------------------------------
    Irrep   Nso     Nmo     Nalpha   Nbeta   Ndocc  Nsocc
   -------------------------------------------------------
     A        147     147       0       0       0       0
   -------------------------------------------------------
    Total     147     147      32      32      32       0
   -------------------------------------------------------

 OEINTS: Overlap, kinetic, potential, dipole, and quadrupole integrals
         stored in file 35.

  ==> Integral Setup <==

  ==> DFJK: Density-Fitted J/K Matrices <==

    J tasked:                  Yes
    K tasked:                  Yes
    wK tasked:                  No
    OpenMP threads:              1
    Integrals threads:           1
    Memory (MB):              1430
    Algorithm:                Core
    Integral Cache:           NONE
    Schwarz Cutoff:          1E-12
    Fitting Condition:       1E-12

   => Auxiliary Basis Set <=

  Basis Set: 
    Number of shells: 270
    Number of basis function: 879
    Number of Cartesian functions: 879
    Spherical Harmonics?: false
    Max angular momentum: 3

  Minimum eigenvalue in the overlap matrix is 4.0577683460E-04.
  Using Symmetric Orthogonalization.
  SCF Guess: Core (One-Electron) Hamiltonian.

  ==> Iterations <==

                           Total Energy        Delta E     RMS |[F,P]|

   @DF-RHF iter   1:  -343.04820230725187   -3.43048e+02   6.06999e-02 
   @DF-RHF iter   2:  -201.98247493942762    1.41066e+02   7.45364e-02 DIIS
   @DF-RHF iter   3:  -323.20625822775838   -1.21224e+02   4.95322e-02 DIIS
   @DF-RHF iter   4:  -319.77138225086918    3.43488e+00   5.48644e-02 DIIS
   @DF-RHF iter   5:  -417.15430351436754   -9.73829e+01   1.03147e-02 DIIS
   @DF-RHF iter   6:  -417.78259650335389   -6.28293e-01   7.53172e-03 DIIS
   @DF-RHF iter   7:  -418.26565358631029   -4.83057e-01   1.05706e-03 DIIS
   @DF-RHF iter   8:  -418.28455558491845   -1.89020e-02   3.85985e-04 DIIS
   @DF-RHF iter   9:  -418.28797603361323   -3.42045e-03   1.70172e-04 DIIS
   @DF-RHF iter  10:  -418.28911502149623   -1.13899e-03   8.09040e-05 DIIS
   @DF-RHF iter  11:  -418.28945929213131   -3.44271e-04   3.99358e-05 DIIS
   @DF-RHF iter  12:  -418.28953711172500   -7.78196e-05   1.75202e-05 DIIS
   @DF-RHF iter  13:  -418.28955568621171   -1.85745e-05   5.83625e-06 DIIS
   @DF-RHF iter  14:  -418.28955630258901   -6.16377e-07   2.06621e-06 DIIS
   @DF-RHF iter  15:  -418.28955639926306   -9.66741e-08   7.17888e-07 DIIS

  ==> Post-Iterations <==

    Orbital Energies (a.u.)
    -----------------------

    Doubly Occupied:                                                      

       1A    -20.610961     2A    -20.556118     3A    -11.327995  
       4A    -11.323714     5A    -11.260508     6A    -11.256824  
       7A    -11.244384     8A    -11.238726     9A    -11.238648  
      10A     -1.432085    11A     -1.397236    12A     -1.170522  
      13A     -1.041424    14A     -1.038691    15A     -0.888904  
      16A     -0.867295    17A     -0.794456    18A     -0.757416  
      19A     -0.713581    20A     -0.666460    21A     -0.641268  
      22A     -0.628204    23A     -0.608219    24A     -0.608026  
      25A     -0.583091    26A     -0.558596    27A     -0.547835  
      28A     -0.506337    29A     -0.483931    30A     -0.418618  
      31A     -0.357914    32A     -0.326213  

    Virtual:                                                              

      33A      0.096649    34A      0.128643    35A      0.209243  
      36A      0.229198    37A      0.241847    38A      0.266565  
      39A      0.302410    40A      0.321543    41A      0.333691  
      42A      0.376981    43A      0.413317    44A      0.430701  
      45A      0.448095    46A      0.500419    47A      0.527771  
      48A      0.553759    49A      0.574870    50A      0.700212  
      51A      0.719340    52A      0.724397    53A      0.749577  
      54A      0.752160    55A      0.769076    56A      0.778074  
      57A      0.808971    58A      0.809593    59A      0.822674  
      60A      0.856391    61A      0.866358    62A      0.889420  
      63A      0.892303    64A      0.935090    65A      0.991204  
      66A      0.997939    67A      1.017247    68A      1.054307  
      69A      1.076426    70A      1.101957    71A      1.103929  
      72A      1.117466    73A      1.133738    74A      1.167769  
      75A      1.183095    76A      1.202917    77A      1.218477  
      78A      1.224326    79A      1.237032    80A      1.294825  
      81A      1.307027    82A      1.336405    83A      1.365049  
      84A      1.410192    85A      1.422800    86A      1.479416  
      87A      1.490064    88A      1.517521    89A      1.563780  
      90A      1.613003    91A      1.645958    92A      1.652933  
      93A      1.714257    94A      1.717049    95A      1.734086  
      96A      1.770463    97A      1.831784    98A      1.852665  
      99A      1.937002   100A      2.008771   101A      2.023843  
     102A      2.044833   103A      2.066941   104A      2.086705  
     105A      2.149858   106A      2.166401   107A      2.229033  
     108A      2.246568   109A      2.260354   110A      2.303758  
     111A      2.354386   112A      2.373944   113A      2.397946  
     114A      2.400215   115A      2.451962   116A      2.455375  
     117A      2.575420   118A      2.608904   119A      2.630987  
     120A      2.643864   121A      2.674052   122A      2.726910  
     123A      2.760670   124A      2.837235   125A      2.874711  
     126A      2.952479   127A      2.966048   128A      2.986089  
     129A      3.029020   130A      3.038934   131A      3.099323  
     132A      3.182468   133A      3.266686   134A      3.298419  
     135A      3.354912   136A      3.400288   137A      3.559841  
     138A      3.834794   139A      4.328631   140A      4.355688  
     141A      4.516823   142A      4.530289   143A      4.587389  
     144A      4.679307   145A      4.741951   146A      4.895320  
     147A      5.178450  

    Final Occupation by Irrep:
              A 
    DOCC [    32 ]

  Energy converged.

  @DF-RHF Final Energy:  -418.28955639926306

   => Energetics <=

    Nuclear Repulsion Energy =            401.3464506494745478
    One-Electron Energy =               -1365.0836829623845006
    Two-Electron Energy =                 545.4476759136482542
    DFT Exchange-Correlation Energy =       0.0000000000000000
    Empirical Dispersion Energy =           0.0000000000000000
    PCM Polarization Energy =               0.0000000000000000
    EFP Energy =                            0.0000000000000000
    Total Energy =                       -418.2895563992617554

    Alert: EFP and PCM quantities not currently incorporated into SCF psivars.

Properties will be evaluated at   0.000000,   0.000000,   0.000000 Bohr
  ==> Properties <==


Properties computed using the SCF density matrix

  Nuclear Dipole Moment: (a.u.)
     X:    -2.0925      Y:     0.6377      Z:     0.1328

  Electronic Dipole Moment: (a.u.)
     X:     0.9147      Y:    -0.5315      Z:    -0.0186

  Dipole Moment: (a.u.)
     X:    -1.1777      Y:     0.1062      Z:     0.1142     Total:     1.1880

  Dipole Moment: (Debye)
     X:    -2.9935      Y:     0.2699      Z:     0.2903     Total:     3.0196


  Saving occupied orbitals to File 180.

*** tstop() called on cx1-1-3-3.cx1.hpc.ic.ac.uk at Tue Jul  5 16:36:30 2016
Module time:
	user time   =      14.19 seconds =       0.24 minutes
	system time =       0.11 seconds =       0.00 minutes
	total time  =         15 seconds =       0.25 minutes
Total time:
	user time   =      14.19 seconds =       0.24 minutes
	system time =       0.11 seconds =       0.00 minutes
	total time  =         15 seconds =       0.25 minutes


Properties will be evaluated at   0.000000,   0.000000,   0.000000 Bohr

Properties computed using the  density matrix

  Nuclear Dipole Moment: (a.u.)
     X:    -2.0925      Y:     0.6377      Z:     0.1328

  Electronic Dipole Moment: (a.u.)
     X:     0.9147      Y:    -0.5315      Z:    -0.0186

  Dipole Moment: (a.u.)
     X:    -1.1777      Y:     0.1062      Z:     0.1142     Total:     1.1880

  Dipole Moment: (Debye)
     X:    -2.9935      Y:     0.2699      Z:     0.2903     Total:     3.0196

  Quadrupole Moment: (Debye Ang)
    XX:   -60.6174     YY:   -43.5690     ZZ:   -53.8182
    XY:    11.2962     XZ:    -0.7962     YZ:    -1.8820

  Traceless Quadrupole Moment: (Debye Ang)
    XX:    -7.9491     YY:     9.0992     ZZ:    -1.1500
    XY:    11.2962     XZ:    -0.7962     YZ:    -1.8820

  Mulliken Charges: (a.u.)
   Center  Symbol    Alpha    Beta     Spin     Total
       1     H     0.26849  0.26849  0.00000  0.46302
       2     O     4.37300  4.37300  0.00000 -0.74600
       3     C     2.78521  2.78521  0.00000  0.42958
       4     C     3.14741  3.14741  0.00000 -0.29482
       5     C     3.12836  3.12836  0.00000 -0.25671
       6     H     0.39795  0.39795  0.00000  0.20411
       7     C     3.07792  3.07792  0.00000 -0.15584
       8     H     0.38646  0.38646  0.00000  0.22708
       9     C     3.09206  3.09206  0.00000 -0.18412
      10     H     0.37501  0.37501  0.00000  0.24998
      11     C     3.06814  3.06814  0.00000 -0.13629
      12     H     0.38988  0.38988  0.00000  0.22024
      13     C     2.83134  2.83134  0.00000  0.33731
      14     O     4.25380  4.25380  0.00000 -0.50759
      15     H     0.42498  0.42498  0.00000  0.15004

   Total alpha = 32.00000, Total beta = 32.00000, Total charge =  0.00000


*** PSI4 exiting successfully. Buy a developer a beer!
