    -----------------------------------------------------------------------
          Psi4: An Open-Source Ab Initio Electronic Structure Package
                              Psi4 (no tag) Driver

                          Git: Rev {detached?}  

    J. M. Turney, A. C. Simmonett, R. M. Parrish, E. G. Hohenstein,
    F. A. Evangelista, J. T. Fermann, B. J. Mintz, L. A. Burns, J. J. Wilke,
    M. L. Abrams, N. J. Russ, M. L. Leininger, C. L. Janssen, E. T. Seidl,
    W. D. Allen, H. F. Schaefer, R. A. King, E. F. Valeev, C. D. Sherrill,
    and T. D. Crawford, WIREs Comput. Mol. Sci. 2, 556-565 (2012)
    (doi: 10.1002/wcms.93)

                         Additional Contributions by
    A. E. DePrince, M. Saitow, U. Bozkaya, A. Yu. Sokolov
    -----------------------------------------------------------------------


    Psi4 started on: Tue Jul  5 16:50:36 2016

    Process ID:   3027
    PSI4DATADIR: /export131/home/mjharvey/miniconda3/share
    Memory level set to 256.000 MB

  ==> Input File <==

--------------------------------------------------------------------------
set {
	reference rhf
	basis 6-31G*
}


set_num_threads( 1 )
memory 2 gb

molecule MOL {
0 1

O	 -0.488453	 0.057968	 1.132425
C	 -0.451170	 -1.129930	 1.097049
C	 0.801727	 -1.959116	 0.945507
O	 -1.528589	 -1.897310	 1.185968
C	 1.124911	 -2.785238	 2.184071
H	 1.613075	 -1.280220	 0.700432
H	 0.669725	 -2.590969	 0.072237
H	 1.272053	 -2.149836	 3.048928
H	 2.030738	 -3.360307	 2.024106
H	 0.320287	 -3.472711	 2.414906
C	 -1.812374	 -2.762251	 0.091097
C	 -2.215959	 -1.893113	 -1.081093
H	 -2.603487	 -3.442679	 0.375250
H	 -0.932214	 -3.350004	 -0.131290
H	 -3.095510	 -1.306873	 -0.840529
H	 -2.442258	 -2.514797	 -1.941294
H	 -1.415124	 -1.213682	 -1.349967

	symmetry c1
}
set optking {
	frozen_dihedral = ("
		2 4 11 13,
		4 2 3 6
	")
}

ee = energy('scf')
oeprop('DIPOLE', 'QUADRUPOLE', 'MULLIKEN_CHARGES')
f=open( 'psi4out.xyz', 'w' )
f.write( "17  " )
f.write( str(ee) + "\n" )
f.write( MOL.save_string_xyz() )
f.close()
--------------------------------------------------------------------------

  Memory set to   2.000 GiB by Python script.

*** tstart() called on cx1-3-16-4.cx1.hpc.ic.ac.uk
*** at Tue Jul  5 16:50:37 2016


         ---------------------------------------------------------
                                   SCF
            by Justin Turney, Rob Parrish, and Andy Simmonett
                              RHF Reference
                        1 Threads,   2000 MiB Core
         ---------------------------------------------------------

  ==> Geometry <==

    Molecular point group: c1
    Full point group: C1

    Geometry (in Angstrom), charge = 0, multiplicity = 1:

       Center              X                  Y                   Z               Mass       
    ------------   -----------------  -----------------  -----------------  -----------------
           O          0.173020888380     1.827875997458     0.345410425297    15.994914619560
           C          0.210303888380     0.639977997458     0.310034425297    12.000000000000
           C          1.463200888380    -0.189208002542     0.158492425297    12.000000000000
           O         -0.867115111620    -0.127402002542     0.398953425297    15.994914619560
           C          1.786384888380    -1.015330002542     1.397056425297    12.000000000000
           H          2.274548888380     0.489687997458    -0.086582574703     1.007825032070
           H          1.331198888380    -0.821061002542    -0.714777574703     1.007825032070
           H          1.933526888380    -0.379928002542     2.261913425297     1.007825032070
           H          2.692211888380    -1.590399002542     1.237091425297     1.007825032070
           H          0.981760888380    -1.702803002542     1.627891425297     1.007825032070
           C         -1.150900111620    -0.992343002542    -0.695917574703    12.000000000000
           C         -1.554485111620    -0.123205002542    -1.868107574703    12.000000000000
           H         -1.942013111620    -1.672771002542    -0.411764574703     1.007825032070
           H         -0.270740111620    -1.580096002542    -0.918304574703     1.007825032070
           H         -2.434036111620     0.463034997458    -1.627543574703     1.007825032070
           H         -1.780784111620    -0.744889002542    -2.728308574703     1.007825032070
           H         -0.753650111620     0.556225997458    -2.136981574703     1.007825032070

  Running in c1 symmetry.

  Rotational constants: A =      0.13142  B =      0.06559  C =      0.05235 [cm^-1]
  Rotational constants: A =   3939.84919  B =   1966.39385  C =   1569.37017 [MHz]
  Nuclear repulsion =  325.315246006202813

  Charge       = 0
  Multiplicity = 1
  Electrons    = 56
  Nalpha       = 28
  Nbeta        = 28

  ==> Algorithm <==

  SCF Algorithm Type is DF.
  DIIS enabled.
  MOM disabled.
  Fractional occupation disabled.
  Guess Type is CORE.
  Energy threshold   = 1.00e-06
  Density threshold  = 1.00e-06
  Integral threshold = 0.00e+00

  ==> Primary Basis <==

  Basis Set: 6-31G*
    Number of shells: 62
    Number of basis function: 125
    Number of Cartesian functions: 125
    Spherical Harmonics?: false
    Max angular momentum: 2

  ==> Pre-Iterations <==

   -------------------------------------------------------
    Irrep   Nso     Nmo     Nalpha   Nbeta   Ndocc  Nsocc
   -------------------------------------------------------
     A        125     125       0       0       0       0
   -------------------------------------------------------
    Total     125     125      28      28      28       0
   -------------------------------------------------------

 OEINTS: Overlap, kinetic, potential, dipole, and quadrupole integrals
         stored in file 35.

  ==> Integral Setup <==

  ==> DFJK: Density-Fitted J/K Matrices <==

    J tasked:                  Yes
    K tasked:                  Yes
    wK tasked:                  No
    OpenMP threads:              1
    Integrals threads:           1
    Memory (MB):              1430
    Algorithm:                Core
    Integral Cache:           NONE
    Schwarz Cutoff:          1E-12
    Fitting Condition:       1E-12

   => Auxiliary Basis Set <=

  Basis Set: 
    Number of shells: 258
    Number of basis function: 817
    Number of Cartesian functions: 817
    Spherical Harmonics?: false
    Max angular momentum: 3

  Minimum eigenvalue in the overlap matrix is 3.3722348292E-03.
  Using Symmetric Orthogonalization.
  SCF Guess: Core (One-Electron) Hamiltonian.

  ==> Iterations <==

                           Total Energy        Delta E     RMS |[F,P]|

   @DF-RHF iter   1:  -243.51386429789790   -2.43514e+02   8.28823e-02 
   @DF-RHF iter   2:  -227.18602065362933    1.63278e+01   6.45604e-02 DIIS
   @DF-RHF iter   3:  -307.85672740934041   -8.06707e+01   4.53142e-02 DIIS
   @DF-RHF iter   4:  -344.40377285718517   -3.65470e+01   7.41228e-03 DIIS
   @DF-RHF iter   5:  -344.78440070034156   -3.80628e-01   3.91507e-03 DIIS
   @DF-RHF iter   6:  -344.86701457251701   -8.26139e-02   1.29499e-03 DIIS
   @DF-RHF iter   7:  -344.87900681269099   -1.19922e-02   5.07608e-04 DIIS
   @DF-RHF iter   8:  -344.88142768998836   -2.42088e-03   1.49808e-04 DIIS
   @DF-RHF iter   9:  -344.88166611205401   -2.38422e-04   4.30825e-05 DIIS
   @DF-RHF iter  10:  -344.88169125181645   -2.51398e-05   1.25459e-05 DIIS
   @DF-RHF iter  11:  -344.88169401122633   -2.75941e-06   4.98547e-06 DIIS
   @DF-RHF iter  12:  -344.88169440744372   -3.96217e-07   1.90675e-06 DIIS
   @DF-RHF iter  13:  -344.88169448870195   -8.12582e-08   6.82271e-07 DIIS

  ==> Post-Iterations <==

    Orbital Energies (a.u.)
    -----------------------

    Doubly Occupied:                                                      

       1A    -20.589391     2A    -20.550366     3A    -11.372393  
       4A    -11.300581     5A    -11.238280     6A    -11.229936  
       7A    -11.226715     8A     -1.463261     9A     -1.367142  
      10A     -1.067736    11A     -1.043357    12A     -0.908924  
      13A     -0.887003    14A     -0.763820    15A     -0.699086  
      16A     -0.682310    17A     -0.679895    18A     -0.618874  
      19A     -0.613837    20A     -0.575871    21A     -0.556444  
      22A     -0.548683    23A     -0.542000    24A     -0.525018  
      25A     -0.504348    26A     -0.480680    27A     -0.451601  
      28A     -0.427797  

    Virtual:                                                              

      29A      0.175596    30A      0.222442    31A      0.257947  
      32A      0.280113    33A      0.282969    34A      0.299672  
      35A      0.304576    36A      0.311268    37A      0.321544  
      38A      0.331243    39A      0.345780    40A      0.382140  
      41A      0.400089    42A      0.419188    43A      0.432661  
      44A      0.524141    45A      0.582690    46A      0.680507  
      47A      0.719671    48A      0.732686    49A      0.738166  
      50A      0.755466    51A      0.772710    52A      0.796516  
      53A      0.857409    54A      0.863587    55A      0.906865  
      56A      0.921418    57A      0.948763    58A      0.990557  
      59A      1.037261    60A      1.050308    61A      1.093782  
      62A      1.112367    63A      1.130270    64A      1.141916  
      65A      1.157134    66A      1.166324    67A      1.179568  
      68A      1.198983    69A      1.213058    70A      1.231449  
      71A      1.242765    72A      1.262758    73A      1.272476  
      74A      1.315400    75A      1.359527    76A      1.418566  
      77A      1.421588    78A      1.473310    79A      1.536251  
      80A      1.594187    81A      1.643600    82A      1.728138  
      83A      1.746480    84A      1.848145    85A      1.894745  
      86A      1.924017    87A      1.998293    88A      2.034726  
      89A      2.077620    90A      2.103893    91A      2.134763  
      92A      2.155866    93A      2.189470    94A      2.208215  
      95A      2.265149    96A      2.276315    97A      2.303885  
      98A      2.332477    99A      2.379617   100A      2.451352  
     101A      2.478257   102A      2.539454   103A      2.585139  
     104A      2.611465   105A      2.657771   106A      2.665781  
     107A      2.703144   108A      2.716639   109A      2.783307  
     110A      2.836917   111A      2.936665   112A      2.974939  
     113A      3.076496   114A      3.131343   115A      3.256246  
     116A      3.285278   117A      3.387972   118A      3.517884  
     119A      4.428518   120A      4.536196   121A      4.604375  
     122A      4.685355   123A      4.802944   124A      4.875930  
     125A      4.991261  

    Final Occupation by Irrep:
              A 
    DOCC [    28 ]

  Energy converged.

  @DF-RHF Final Energy:  -344.88169448870195

   => Energetics <=

    Nuclear Repulsion Energy =            325.3152460062028126
    One-Electron Energy =               -1114.5631094982402374
    Two-Electron Energy =                 444.3661690033360401
    DFT Exchange-Correlation Energy =       0.0000000000000000
    Empirical Dispersion Energy =           0.0000000000000000
    PCM Polarization Energy =               0.0000000000000000
    EFP Energy =                            0.0000000000000000
    Total Energy =                       -344.8816944887013278

    Alert: EFP and PCM quantities not currently incorporated into SCF psivars.

Properties will be evaluated at   0.000000,   0.000000,   0.000000 Bohr
  ==> Properties <==


Properties computed using the SCF density matrix

  Nuclear Dipole Moment: (a.u.)
     X:     1.9016      Y:    -6.5382      Z:    -3.2751

  Electronic Dipole Moment: (a.u.)
     X:    -1.6567      Y:     5.0576      Z:     2.6321

  Dipole Moment: (a.u.)
     X:     0.2449      Y:    -1.4806      Z:    -0.6430     Total:     1.6327

  Dipole Moment: (Debye)
     X:     0.6224      Y:    -3.7633      Z:    -1.6343     Total:     4.1498


  Saving occupied orbitals to File 180.

*** tstop() called on cx1-3-16-4.cx1.hpc.ic.ac.uk at Tue Jul  5 16:50:48 2016
Module time:
	user time   =      10.29 seconds =       0.17 minutes
	system time =       0.08 seconds =       0.00 minutes
	total time  =         11 seconds =       0.18 minutes
Total time:
	user time   =      10.29 seconds =       0.17 minutes
	system time =       0.08 seconds =       0.00 minutes
	total time  =         11 seconds =       0.18 minutes


Properties will be evaluated at   0.000000,   0.000000,   0.000000 Bohr

Properties computed using the  density matrix

  Nuclear Dipole Moment: (a.u.)
     X:     1.9016      Y:    -6.5382      Z:    -3.2751

  Electronic Dipole Moment: (a.u.)
     X:    -1.6567      Y:     5.0576      Z:     2.6321

  Dipole Moment: (a.u.)
     X:     0.2449      Y:    -1.4806      Z:    -0.6430     Total:     1.6327

  Dipole Moment: (Debye)
     X:     0.6224      Y:    -3.7633      Z:    -1.6343     Total:     4.1498

  Quadrupole Moment: (Debye Ang)
    XX:   -41.0167     YY:   -48.5555     ZZ:   -42.1288
    XY:     0.7501     XZ:     2.5325     YZ:    -0.1739

  Traceless Quadrupole Moment: (Debye Ang)
    XX:     2.8837     YY:    -4.6552     ZZ:     1.7715
    XY:     0.7501     XZ:     2.5325     YZ:    -0.1739

  Mulliken Charges: (a.u.)
   Center  Symbol    Alpha    Beta     Spin     Total
       1     O     4.26294  4.26294  0.00000 -0.52587
       2     C     2.61479  2.61479  0.00000  0.77042
       3     C     3.21469  3.21469  0.00000 -0.42937
       4     O     4.30596  4.30596  0.00000 -0.61192
       5     C     3.24637  3.24637  0.00000 -0.49275
       6     H     0.39810  0.39810  0.00000  0.20379
       7     H     0.41038  0.41038  0.00000  0.17924
       8     H     0.40706  0.40706  0.00000  0.18587
       9     H     0.41193  0.41193  0.00000  0.17613
      10     H     0.41057  0.41057  0.00000  0.17886
      11     C     3.01520  3.01520  0.00000 -0.03040
      12     C     3.25255  3.25255  0.00000 -0.50510
      13     H     0.40147  0.40147  0.00000  0.19705
      14     H     0.41833  0.41833  0.00000  0.16334
      15     H     0.40155  0.40155  0.00000  0.19690
      16     H     0.41789  0.41789  0.00000  0.16422
      17     H     0.41020  0.41020  0.00000  0.17960

   Total alpha = 28.00000, Total beta = 28.00000, Total charge = -0.00000


*** PSI4 exiting successfully. Buy a developer a beer!
