    -----------------------------------------------------------------------
          Psi4: An Open-Source Ab Initio Electronic Structure Package
                              Psi4 (no tag) Driver

                          Git: Rev {detached?}  

    J. M. Turney, A. C. Simmonett, R. M. Parrish, E. G. Hohenstein,
    F. A. Evangelista, J. T. Fermann, B. J. Mintz, L. A. Burns, J. J. Wilke,
    M. L. Abrams, N. J. Russ, M. L. Leininger, C. L. Janssen, E. T. Seidl,
    W. D. Allen, H. F. Schaefer, R. A. King, E. F. Valeev, C. D. Sherrill,
    and T. D. Crawford, WIREs Comput. Mol. Sci. 2, 556-565 (2012)
    (doi: 10.1002/wcms.93)

                         Additional Contributions by
    A. E. DePrince, M. Saitow, U. Bozkaya, A. Yu. Sokolov
    -----------------------------------------------------------------------


    Psi4 started on: Tue Jul  5 16:41:36 2016

    Process ID:  23775
    PSI4DATADIR: /export131/home/mjharvey/miniconda3/share
    Memory level set to 256.000 MB

  ==> Input File <==

--------------------------------------------------------------------------
set {
	reference rhf
	basis 6-31G*
}


set_num_threads( 1 )
memory 2 gb

molecule MOL {
0 1

H	 -3.650283	 0.221984	 0.000000
C	 -2.577024	 0.154109	 0.000000
C	 -1.960329	 -1.089307	 0.000000
C	 -1.811733	 1.307557	 0.000000
H	 -2.554473	 -1.985285	 0.000000
C	 -0.581547	 -1.175855	 0.000000
H	 -2.287118	 2.271701	 0.000000
C	 -0.428719	 1.219221	 0.000000
H	 -0.090826	 -2.129898	 0.000000
C	 0.198341	 -0.021559	 0.000000
H	 0.149947	 2.124040	 0.000000
C	 1.691355	 -0.173192	 0.000000
C	 2.510016	 0.598642	 -1.013710
O	 2.228945	 -0.893057	 0.788775
H	 2.225428	 0.331050	 -2.026224
H	 3.553837	 0.364468	 -0.861754
H	 2.361161	 1.667507	 -0.899034

	symmetry c1
}
ee = energy('scf')
oeprop('DIPOLE', 'QUADRUPOLE', 'MULLIKEN_CHARGES')
f=open( 'psi4out.xyz', 'w' )
f.write( "17  " )
f.write( str(ee) + "\n" )
f.write( MOL.save_string_xyz() )
f.close()
--------------------------------------------------------------------------

  Memory set to   2.000 GiB by Python script.

*** tstart() called on cx1-3-15-4.cx1.hpc.ic.ac.uk
*** at Tue Jul  5 16:41:36 2016


         ---------------------------------------------------------
                                   SCF
            by Justin Turney, Rob Parrish, and Andy Simmonett
                              RHF Reference
                        1 Threads,   2000 MiB Core
         ---------------------------------------------------------

  ==> Geometry <==

    Molecular point group: c1
    Full point group: C1

    Geometry (in Angstrom), charge = 0, multiplicity = 1:

       Center              X                  Y                   Z               Mass       
    ------------   -----------------  -----------------  -----------------  -----------------
           H         -3.648962720286     0.234986004192     0.028026373149     1.007825032070
           C         -2.575703720286     0.167111004192     0.028026373149    12.000000000000
           C         -1.959008720286    -1.076304995808     0.028026373149    12.000000000000
           C         -1.810412720286     1.320559004192     0.028026373149    12.000000000000
           H         -2.553152720286    -1.972282995808     0.028026373149     1.007825032070
           C         -0.580226720286    -1.162852995808     0.028026373149    12.000000000000
           H         -2.285797720286     2.284703004192     0.028026373149     1.007825032070
           C         -0.427398720286     1.232223004192     0.028026373149    12.000000000000
           H         -0.089505720286    -2.116895995808     0.028026373149     1.007825032070
           C          0.199661279714    -0.008556995808     0.028026373149    12.000000000000
           H          0.151267279714     2.137042004192     0.028026373149     1.007825032070
           C          1.692675279714    -0.160189995808     0.028026373149    12.000000000000
           C          2.511336279714     0.611644004192    -0.985683626851    12.000000000000
           O          2.230265279714    -0.880054995808     0.816801373149    15.994914619560
           H          2.226748279714     0.344052004192    -1.998197626851     1.007825032070
           H          3.555157279714     0.377470004192    -0.833727626851     1.007825032070
           H          2.362481279714     1.680509004192    -0.871007626851     1.007825032070

  Running in c1 symmetry.

  Rotational constants: A =      0.12503  B =      0.03890  C =      0.03216 [cm^-1]
  Rotational constants: A =   3748.17641  B =   1166.30644  C =    964.27939 [MHz]
  Nuclear repulsion =  402.701118714536278

  Charge       = 0
  Multiplicity = 1
  Electrons    = 64
  Nalpha       = 32
  Nbeta        = 32

  ==> Algorithm <==

  SCF Algorithm Type is DF.
  DIIS enabled.
  MOM disabled.
  Fractional occupation disabled.
  Guess Type is CORE.
  Energy threshold   = 1.00e-06
  Density threshold  = 1.00e-06
  Integral threshold = 0.00e+00

  ==> Primary Basis <==

  Basis Set: 6-31G*
    Number of shells: 70
    Number of basis function: 151
    Number of Cartesian functions: 151
    Spherical Harmonics?: false
    Max angular momentum: 2

  ==> Pre-Iterations <==

   -------------------------------------------------------
    Irrep   Nso     Nmo     Nalpha   Nbeta   Ndocc  Nsocc
   -------------------------------------------------------
     A        151     151       0       0       0       0
   -------------------------------------------------------
    Total     151     151      32      32      32       0
   -------------------------------------------------------

 OEINTS: Overlap, kinetic, potential, dipole, and quadrupole integrals
         stored in file 35.

  ==> Integral Setup <==

  ==> DFJK: Density-Fitted J/K Matrices <==

    J tasked:                  Yes
    K tasked:                  Yes
    wK tasked:                  No
    OpenMP threads:              1
    Integrals threads:           1
    Memory (MB):              1430
    Algorithm:                Core
    Integral Cache:           NONE
    Schwarz Cutoff:          1E-12
    Fitting Condition:       1E-12

   => Auxiliary Basis Set <=

  Basis Set: 
    Number of shells: 288
    Number of basis function: 929
    Number of Cartesian functions: 929
    Spherical Harmonics?: false
    Max angular momentum: 3

  Minimum eigenvalue in the overlap matrix is 4.3536451453E-04.
  Using Symmetric Orthogonalization.
  SCF Guess: Core (One-Electron) Hamiltonian.

  ==> Iterations <==

                           Total Energy        Delta E     RMS |[F,P]|

   @DF-RHF iter   1:  -296.23587958472194   -2.96236e+02   6.42883e-02 
   @DF-RHF iter   2:  -278.87227208263334    1.73636e+01   5.19096e-02 DIIS
   @DF-RHF iter   3:  -323.96769333310056   -4.50954e+01   5.24266e-02 DIIS
   @DF-RHF iter   4:  -373.52126183699272   -4.95536e+01   2.25902e-02 DIIS
   @DF-RHF iter   5:  -352.26097453467173    2.12603e+01   3.53307e-02 DIIS
   @DF-RHF iter   6:  -382.13586178420201   -2.98749e+01   4.96686e-03 DIIS
   @DF-RHF iter   7:  -382.37898186524626   -2.43120e-01   3.02958e-03 DIIS
   @DF-RHF iter   8:  -382.45922328926679   -8.02414e-02   7.78021e-04 DIIS
   @DF-RHF iter   9:  -382.46734435774022   -8.12107e-03   4.05419e-04 DIIS
   @DF-RHF iter  10:  -382.46991410066767   -2.56974e-03   7.70092e-05 DIIS
   @DF-RHF iter  11:  -382.47008769440242   -1.73594e-04   2.80482e-05 DIIS
   @DF-RHF iter  12:  -382.47011716487748   -2.94705e-05   1.55715e-05 DIIS
   @DF-RHF iter  13:  -382.47012733416614   -1.01693e-05   7.27585e-06 DIIS
   @DF-RHF iter  14:  -382.47013065811007   -3.32394e-06   3.44071e-06 DIIS
   @DF-RHF iter  15:  -382.47013140962872   -7.51519e-07   1.36136e-06 DIIS
   @DF-RHF iter  16:  -382.47013151969054   -1.10062e-07   4.28338e-07 DIIS

  ==> Post-Iterations <==

    Orbital Energies (a.u.)
    -----------------------

    Doubly Occupied:                                                      

       1A    -20.553777     2A    -11.332816     3A    -11.247476  
       4A    -11.246200     5A    -11.242956     6A    -11.242020  
       7A    -11.240934     8A    -11.239355     9A    -11.230403  
      10A     -1.398392    11A     -1.165657    12A     -1.049152  
      13A     -1.026600    14A     -0.997252    15A     -0.861209  
      16A     -0.836638    17A     -0.761308    18A     -0.704629  
      19A     -0.660568    20A     -0.645016    21A     -0.623573  
      22A     -0.616766    23A     -0.599945    24A     -0.590229  
      25A     -0.557948    26A     -0.524872    27A     -0.513316  
      28A     -0.503420    29A     -0.489851    30A     -0.411046  
      31A     -0.344354    32A     -0.341558  

    Virtual:                                                              

      33A      0.111948    34A      0.136468    35A      0.192203  
      36A      0.225167    37A      0.253813    38A      0.288815  
      39A      0.299635    40A      0.309036    41A      0.315223  
      42A      0.331381    43A      0.352262    44A      0.377584  
      45A      0.403660    46A      0.444919    47A      0.471453  
      48A      0.484419    49A      0.507603    50A      0.528104  
      51A      0.564995    52A      0.666561    53A      0.699997  
      54A      0.736704    55A      0.743165    56A      0.757192  
      57A      0.785455    58A      0.789996    59A      0.805024  
      60A      0.817537    61A      0.818590    62A      0.831842  
      63A      0.837758    64A      0.847505    65A      0.860907  
      66A      0.892067    67A      0.913282    68A      0.968939  
      69A      0.988577    70A      0.995371    71A      1.014776  
      72A      1.078367    73A      1.083987    74A      1.105876  
      75A      1.109679    76A      1.112726    77A      1.130429  
      78A      1.151013    79A      1.156185    80A      1.176872  
      81A      1.194743    82A      1.205273    83A      1.238699  
      84A      1.251687    85A      1.279900    86A      1.292446  
      87A      1.346549    88A      1.369959    89A      1.378123  
      90A      1.402757    91A      1.438099    92A      1.448960  
      93A      1.505187    94A      1.609324    95A      1.679331  
      96A      1.690281    97A      1.703574    98A      1.747974  
      99A      1.759108   100A      1.765143   101A      1.783568  
     102A      1.827895   103A      1.937538   104A      1.961424  
     105A      2.055690   106A      2.080026   107A      2.108778  
     108A      2.144440   109A      2.152881   110A      2.171127  
     111A      2.222155   112A      2.240525   113A      2.315356  
     114A      2.319088   115A      2.353062   116A      2.390690  
     117A      2.404122   118A      2.456576   119A      2.463056  
     120A      2.478973   121A      2.510583   122A      2.543455  
     123A      2.597875   124A      2.624689   125A      2.640296  
     126A      2.646945   127A      2.717160   128A      2.765370  
     129A      2.873455   130A      2.921595   131A      2.927906  
     132A      3.008171   133A      3.022862   134A      3.075269  
     135A      3.103767   136A      3.111679   137A      3.126873  
     138A      3.218260   139A      3.362701   140A      3.376237  
     141A      3.504375   142A      3.826635   143A      4.413342  
     144A      4.513604   145A      4.532471   146A      4.543101  
     147A      4.617543   148A      4.739569   149A      4.767204  
     150A      4.893050   151A      5.143272  

    Final Occupation by Irrep:
              A 
    DOCC [    32 ]

  Energy converged.

  @DF-RHF Final Energy:  -382.47013151969054

   => Energetics <=

    Nuclear Repulsion Energy =            402.7011187145362783
    One-Electron Energy =               -1316.7438708786546613
    Two-Electron Energy =                 531.5726206444279569
    DFT Exchange-Correlation Energy =       0.0000000000000000
    Empirical Dispersion Energy =           0.0000000000000000
    PCM Polarization Energy =               0.0000000000000000
    EFP Energy =                            0.0000000000000000
    Total Energy =                       -382.4701315196904261

    Alert: EFP and PCM quantities not currently incorporated into SCF psivars.

Properties will be evaluated at   0.000000,   0.000000,   0.000000 Bohr
  ==> Properties <==


Properties computed using the SCF density matrix

  Nuclear Dipole Moment: (a.u.)
     X:    -0.2534      Y:     2.7797      Z:    -3.3361

  Electronic Dipole Moment: (a.u.)
     X:    -0.4760      Y:    -2.1024      Z:     2.5349

  Dipole Moment: (a.u.)
     X:    -0.7294      Y:     0.6773      Z:    -0.8012     Total:     1.2778

  Dipole Moment: (Debye)
     X:    -1.8540      Y:     1.7215      Z:    -2.0365     Total:     3.2478


  Saving occupied orbitals to File 180.

*** tstop() called on cx1-3-15-4.cx1.hpc.ic.ac.uk at Tue Jul  5 16:41:52 2016
Module time:
	user time   =      15.72 seconds =       0.26 minutes
	system time =       0.20 seconds =       0.00 minutes
	total time  =         16 seconds =       0.27 minutes
Total time:
	user time   =      15.72 seconds =       0.26 minutes
	system time =       0.20 seconds =       0.00 minutes
	total time  =         16 seconds =       0.27 minutes


Properties will be evaluated at   0.000000,   0.000000,   0.000000 Bohr

Properties computed using the  density matrix

  Nuclear Dipole Moment: (a.u.)
     X:    -0.2534      Y:     2.7797      Z:    -3.3361

  Electronic Dipole Moment: (a.u.)
     X:    -0.4760      Y:    -2.1024      Z:     2.5349

  Dipole Moment: (a.u.)
     X:    -0.7294      Y:     0.6773      Z:    -0.8012     Total:     1.2778

  Dipole Moment: (Debye)
     X:    -1.8540      Y:     1.7215      Z:    -2.0365     Total:     3.2478

  Quadrupole Moment: (Debye Ang)
    XX:   -51.3074     YY:   -48.5119     ZZ:   -57.0269
    XY:     4.5149     XZ:    -4.9860     YZ:     1.8470

  Traceless Quadrupole Moment: (Debye Ang)
    XX:     0.9746     YY:     3.7702     ZZ:    -4.7448
    XY:     4.5149     XZ:    -4.9860     YZ:     1.8470

  Mulliken Charges: (a.u.)
   Center  Symbol    Alpha    Beta     Spin     Total
       1     H     0.39626  0.39626  0.00000  0.20749
       2     C     3.09623  3.09623  0.00000 -0.19246
       3     C     3.10076  3.10076  0.00000 -0.20152
       4     C     3.10096  3.10096  0.00000 -0.20192
       5     H     0.39535  0.39535  0.00000  0.20929
       6     C     3.09654  3.09654  0.00000 -0.19308
       7     H     0.39604  0.39604  0.00000  0.20791
       8     C     3.10411  3.10411  0.00000 -0.20822
       9     H     0.38559  0.38559  0.00000  0.22882
      10     C     3.03329  3.03329  0.00000 -0.06657
      11     H     0.39561  0.39561  0.00000  0.20878
      12     C     2.74742  2.74742  0.00000  0.50515
      13     C     3.28748  3.28748  0.00000 -0.57496
      14     O     4.25591  4.25591  0.00000 -0.51182
      15     H     0.40390  0.40390  0.00000  0.19220
      16     H     0.39597  0.39597  0.00000  0.20805
      17     H     0.40857  0.40857  0.00000  0.18286

   Total alpha = 32.00000, Total beta = 32.00000, Total charge = -0.00000


*** PSI4 exiting successfully. Buy a developer a beer!
