    -----------------------------------------------------------------------
          Psi4: An Open-Source Ab Initio Electronic Structure Package
                              Psi4 (no tag) Driver

                          Git: Rev {detached?}  

    J. M. Turney, A. C. Simmonett, R. M. Parrish, E. G. Hohenstein,
    F. A. Evangelista, J. T. Fermann, B. J. Mintz, L. A. Burns, J. J. Wilke,
    M. L. Abrams, N. J. Russ, M. L. Leininger, C. L. Janssen, E. T. Seidl,
    W. D. Allen, H. F. Schaefer, R. A. King, E. F. Valeev, C. D. Sherrill,
    and T. D. Crawford, WIREs Comput. Mol. Sci. 2, 556-565 (2012)
    (doi: 10.1002/wcms.93)

                         Additional Contributions by
    A. E. DePrince, M. Saitow, U. Bozkaya, A. Yu. Sokolov
    -----------------------------------------------------------------------


    Psi4 started on: Tue Jul  5 16:24:15 2016

    Process ID:  16645
    PSI4DATADIR: /export131/home/mjharvey/miniconda3/share
    Memory level set to 256.000 MB

  ==> Input File <==

--------------------------------------------------------------------------
set {
	reference rhf
	basis 6-31G*
}


set_num_threads( 1 )
memory 2 gb

molecule MOL {
0 1

H	 -0.175665	 -0.835107	 -1.935800
N	 -0.635097	 -1.300471	 -1.176961
C	 -0.563778	 -0.502042	 0.037919
H	 -0.166891	 -2.177487	 -1.048969
C	 0.575259	 0.508231	 -0.048326
H	 -0.379745	 -1.178195	 0.867464
H	 -1.495719	 0.022884	 0.263049
C	 1.954651	 -0.143624	 0.035137
H	 0.475158	 1.060484	 -0.977307
H	 0.469181	 1.234488	 0.755973
H	 2.103292	 -0.853109	 -0.774172
H	 2.742821	 0.599562	 -0.030094
H	 2.083613	 -0.679371	 0.971560

	symmetry c1
}
set optking {
	frozen_dihedral = ("
		6 3 5 9
	")
}

ee = energy('scf')
oeprop('DIPOLE', 'QUADRUPOLE', 'MULLIKEN_CHARGES')
f=open( 'psi4out.xyz', 'w' )
f.write( "13  " )
f.write( str(ee) + "\n" )
f.write( MOL.save_string_xyz() )
f.close()
--------------------------------------------------------------------------

  Memory set to   2.000 GiB by Python script.

*** tstart() called on cx1-3-15-3.cx1.hpc.ic.ac.uk
*** at Tue Jul  5 16:24:15 2016


         ---------------------------------------------------------
                                   SCF
            by Justin Turney, Rob Parrish, and Andy Simmonett
                              RHF Reference
                        1 Threads,   2000 MiB Core
         ---------------------------------------------------------

  ==> Geometry <==

    Molecular point group: c1
    Full point group: C1

    Geometry (in Angstrom), charge = 0, multiplicity = 1:

       Center              X                  Y                   Z               Mass       
    ------------   -----------------  -----------------  -----------------  -----------------
           H         -0.521007288612    -0.451049532616    -1.629274389062     1.007825032070
           N         -0.980439288612    -0.916413532616    -0.870435389062    14.003074004780
           C         -0.909120288612    -0.117984532616     0.344444610938    12.000000000000
           H         -0.512233288612    -1.793429532616    -0.742443389062     1.007825032070
           C          0.229916711388     0.892288467384     0.258199610938    12.000000000000
           H         -0.725087288612    -0.794137532616     1.173989610938     1.007825032070
           H         -1.841061288612     0.406941467384     0.569574610938     1.007825032070
           C          1.609308711388     0.240433467384     0.341662610938    12.000000000000
           H          0.129815711388     1.444541467384    -0.670781389062     1.007825032070
           H          0.123838711388     1.618545467384     1.062498610938     1.007825032070
           H          1.757949711388    -0.469051532616    -0.467646389062     1.007825032070
           H          2.397478711388     0.983619467384     0.276431610938     1.007825032070
           H          1.738270711388    -0.295313532616     1.278085610938     1.007825032070

  Running in c1 symmetry.

  Rotational constants: A =      0.45965  B =      0.16815  C =      0.14467 [cm^-1]
  Rotational constants: A =  13779.96832  B =   5040.94521  C =   4337.02990 [MHz]
  Nuclear repulsion =  134.504849849622701

  Charge       = 0
  Multiplicity = 1
  Electrons    = 34
  Nalpha       = 17
  Nbeta        = 17

  ==> Algorithm <==

  SCF Algorithm Type is DF.
  DIIS enabled.
  MOM disabled.
  Fractional occupation disabled.
  Guess Type is CORE.
  Energy threshold   = 1.00e-06
  Density threshold  = 1.00e-06
  Integral threshold = 0.00e+00

  ==> Primary Basis <==

  Basis Set: 6-31G*
    Number of shells: 42
    Number of basis function: 78
    Number of Cartesian functions: 78
    Spherical Harmonics?: false
    Max angular momentum: 2

  ==> Pre-Iterations <==

   -------------------------------------------------------
    Irrep   Nso     Nmo     Nalpha   Nbeta   Ndocc  Nsocc
   -------------------------------------------------------
     A         78      78       0       0       0       0
   -------------------------------------------------------
    Total      78      78      17      17      17       0
   -------------------------------------------------------

 OEINTS: Overlap, kinetic, potential, dipole, and quadrupole integrals
         stored in file 35.

  ==> Integral Setup <==

  ==> DFJK: Density-Fitted J/K Matrices <==

    J tasked:                  Yes
    K tasked:                  Yes
    wK tasked:                  No
    OpenMP threads:              1
    Integrals threads:           1
    Memory (MB):              1430
    Algorithm:                Core
    Integral Cache:           NONE
    Schwarz Cutoff:          1E-12
    Fitting Condition:       1E-12

   => Auxiliary Basis Set <=

  Basis Set: 
    Number of shells: 177
    Number of basis function: 549
    Number of Cartesian functions: 549
    Spherical Harmonics?: false
    Max angular momentum: 3

  Minimum eigenvalue in the overlap matrix is 5.1911928589E-03.
  Using Symmetric Orthogonalization.
  SCF Guess: Core (One-Electron) Hamiltonian.

  ==> Iterations <==

                           Total Energy        Delta E     RMS |[F,P]|

   @DF-RHF iter   1:  -134.77235094532318   -1.34772e+02   8.61014e-02 
   @DF-RHF iter   2:  -104.86773156477270    2.99046e+01   8.34920e-02 DIIS
   @DF-RHF iter   3:  -150.80703142091090   -4.59393e+01   4.70506e-02 DIIS
   @DF-RHF iter   4:  -147.75777669852556    3.04925e+00   6.35882e-02 DIIS
   @DF-RHF iter   5:  -173.01528477210195   -2.52575e+01   8.51145e-03 DIIS
   @DF-RHF iter   6:  -173.22634548852557   -2.11061e-01   3.39628e-03 DIIS
   @DF-RHF iter   7:  -173.26794767053235   -4.16022e-02   1.37955e-03 DIIS
   @DF-RHF iter   8:  -173.27593293052644   -7.98526e-03   3.69862e-04 DIIS
   @DF-RHF iter   9:  -173.27645954208151   -5.26612e-04   1.31266e-04 DIIS
   @DF-RHF iter  10:  -173.27655470928778   -9.51672e-05   3.14666e-05 DIIS
   @DF-RHF iter  11:  -173.27655917719562   -4.46791e-06   9.00193e-06 DIIS
   @DF-RHF iter  12:  -173.27655956444642   -3.87251e-07   2.13455e-06 DIIS
   @DF-RHF iter  13:  -173.27655958657186   -2.21254e-08   4.01256e-07 DIIS

  ==> Post-Iterations <==

    Orbital Energies (a.u.)
    -----------------------

    Doubly Occupied:                                                      

       1A    -15.531212     2A    -11.240791     3A    -11.217235  
       4A    -11.214078     5A     -1.180120     6A     -1.034335  
       7A     -0.908602     8A     -0.802234     9A     -0.667834  
      10A     -0.618845    11A     -0.609759    12A     -0.568291  
      13A     -0.537358    14A     -0.500876    15A     -0.482836  
      16A     -0.475806    17A     -0.375552  

    Virtual:                                                              

      18A      0.219188    19A      0.264502    20A      0.269596  
      21A      0.291061    22A      0.309623    23A      0.322024  
      24A      0.338885    25A      0.348016    26A      0.372150  
      27A      0.406913    28A      0.444760    29A      0.474096  
      30A      0.715077    31A      0.731332    32A      0.754907  
      33A      0.781481    34A      0.809729    35A      0.919852  
      36A      0.938762    37A      0.967938    38A      0.993467  
      39A      1.026399    40A      1.116780    41A      1.117351  
      42A      1.153425    43A      1.177509    44A      1.181246  
      45A      1.212768    46A      1.217654    47A      1.228144  
      48A      1.235938    49A      1.251401    50A      1.260425  
      51A      1.298507    52A      1.533643    53A      1.672372  
      54A      1.708502    55A      1.815068    56A      1.837853  
      57A      1.979345    58A      2.067953    59A      2.197074  
      60A      2.249541    61A      2.291754    62A      2.332490  
      63A      2.364946    64A      2.405862    65A      2.534262  
      66A      2.564903    67A      2.621728    68A      2.694236  
      69A      2.754046    70A      2.796497    71A      2.853420  
      72A      2.981736    73A      3.017763    74A      3.105083  
      75A      4.216180    76A      4.598811    77A      4.776732  
      78A      4.915023  

    Final Occupation by Irrep:
              A 
    DOCC [    17 ]

  Energy converged.

  @DF-RHF Final Energy:  -173.27655958657186

   => Energetics <=

    Nuclear Repulsion Energy =            134.5048498496227012
    One-Electron Energy =                -499.6312417011880598
    Two-Electron Energy =                 191.8498322649934380
    DFT Exchange-Correlation Energy =       0.0000000000000000
    Empirical Dispersion Energy =           0.0000000000000000
    PCM Polarization Energy =               0.0000000000000000
    EFP Energy =                            0.0000000000000000
    Total Energy =                       -173.2765595865719206

    Alert: EFP and PCM quantities not currently incorporated into SCF psivars.

Properties will be evaluated at   0.000000,   0.000000,   0.000000 Bohr
  ==> Properties <==


Properties computed using the SCF density matrix

  Nuclear Dipole Moment: (a.u.)
     X:     2.3915      Y:     0.6126      Z:     0.7998

  Electronic Dipole Moment: (a.u.)
     X:    -1.7873      Y:    -0.5238      Z:    -0.6559

  Dipole Moment: (a.u.)
     X:     0.6042      Y:     0.0889      Z:     0.1439     Total:     0.6274

  Dipole Moment: (Debye)
     X:     1.5358      Y:     0.2259      Z:     0.3657     Total:     1.5948


  Saving occupied orbitals to File 180.

*** tstop() called on cx1-3-15-3.cx1.hpc.ic.ac.uk at Tue Jul  5 16:24:18 2016
Module time:
	user time   =       2.98 seconds =       0.05 minutes
	system time =       0.03 seconds =       0.00 minutes
	total time  =          3 seconds =       0.05 minutes
Total time:
	user time   =       2.98 seconds =       0.05 minutes
	system time =       0.03 seconds =       0.00 minutes
	total time  =          3 seconds =       0.05 minutes


Properties will be evaluated at   0.000000,   0.000000,   0.000000 Bohr

Properties computed using the  density matrix

  Nuclear Dipole Moment: (a.u.)
     X:     2.3915      Y:     0.6126      Z:     0.7998

  Electronic Dipole Moment: (a.u.)
     X:    -1.7873      Y:    -0.5238      Z:    -0.6559

  Dipole Moment: (a.u.)
     X:     0.6042      Y:     0.0889      Z:     0.1439     Total:     0.6274

  Dipole Moment: (Debye)
     X:     1.5358      Y:     0.2259      Z:     0.3657     Total:     1.5948

  Quadrupole Moment: (Debye Ang)
    XX:   -31.7263     YY:   -26.6485     ZZ:   -26.7859
    XY:    -2.1926     XZ:    -2.4101     YZ:    -0.7894

  Traceless Quadrupole Moment: (Debye Ang)
    XX:    -3.3394     YY:     1.7384     ZZ:     1.6010
    XY:    -2.1926     XZ:    -2.4101     YZ:    -0.7894

  Mulliken Charges: (a.u.)
   Center  Symbol    Alpha    Beta     Spin     Total
       1     H     0.33283  0.33283  0.00000  0.33433
       2     N     3.92275  3.92275  0.00000 -0.84550
       3     C     3.05598  3.05598  0.00000 -0.11195
       4     H     0.33161  0.33161  0.00000  0.33678
       5     C     3.16570  3.16570  0.00000 -0.33140
       6     H     0.42440  0.42440  0.00000  0.15121
       7     H     0.41805  0.41805  0.00000  0.16389
       8     C     3.24117  3.24117  0.00000 -0.48233
       9     H     0.42300  0.42300  0.00000  0.15399
      10     H     0.42167  0.42167  0.00000  0.15666
      11     H     0.42505  0.42505  0.00000  0.14990
      12     H     0.41705  0.41705  0.00000  0.16589
      13     H     0.42073  0.42073  0.00000  0.15854

   Total alpha = 17.00000, Total beta = 17.00000, Total charge =  0.00000


*** PSI4 exiting successfully. Buy a developer a beer!
