    -----------------------------------------------------------------------
          Psi4: An Open-Source Ab Initio Electronic Structure Package
                              Psi4 (no tag) Driver

                          Git: Rev {detached?}  

    J. M. Turney, A. C. Simmonett, R. M. Parrish, E. G. Hohenstein,
    F. A. Evangelista, J. T. Fermann, B. J. Mintz, L. A. Burns, J. J. Wilke,
    M. L. Abrams, N. J. Russ, M. L. Leininger, C. L. Janssen, E. T. Seidl,
    W. D. Allen, H. F. Schaefer, R. A. King, E. F. Valeev, C. D. Sherrill,
    and T. D. Crawford, WIREs Comput. Mol. Sci. 2, 556-565 (2012)
    (doi: 10.1002/wcms.93)

                         Additional Contributions by
    A. E. DePrince, M. Saitow, U. Bozkaya, A. Yu. Sokolov
    -----------------------------------------------------------------------


    Psi4 started on: Tue Jul  5 16:35:19 2016

    Process ID:  18984
    PSI4DATADIR: /export131/home/mjharvey/miniconda3/share
    Memory level set to 256.000 MB

  ==> Input File <==

--------------------------------------------------------------------------
set {
	reference rhf
	basis 6-31G*
}


set_num_threads( 1 )
memory 2 gb

molecule MOL {
0 1

H	 -2.261324	 -1.055180	 -0.472179
O	 -2.347518	 -0.290803	 0.079804
C	 -1.184022	 0.487508	 -0.006784
C	 0.062599	 -0.378592	 0.031606
H	 -1.176523	 1.099369	 -0.904519
H	 -1.187323	 1.153111	 0.844927
O	 -0.043959	 -1.331029	 -0.978982
H	 0.152937	 -0.862108	 1.006301
H	 0.944499	 0.244194	 -0.106143
C	 1.051901	 -2.183439	 -1.086827
H	 1.203606	 -2.754072	 -0.172501
H	 0.853769	 -2.869137	 -1.898901
H	 1.964096	 -1.631937	 -1.304857

	symmetry c1
}
set optking {
	frozen_dihedral = ("
		8 4 3 5,
		10 7 4 8,
		4 7 10 13
	")
}

ee = energy('scf')
oeprop('DIPOLE', 'QUADRUPOLE', 'MULLIKEN_CHARGES')
f=open( 'psi4out.xyz', 'w' )
f.write( "13  " )
f.write( str(ee) + "\n" )
f.write( MOL.save_string_xyz() )
f.close()
--------------------------------------------------------------------------

  Memory set to   2.000 GiB by Python script.

*** tstart() called on cx1-49-4-2.cx1.hpc.ic.ac.uk
*** at Tue Jul  5 16:35:19 2016


         ---------------------------------------------------------
                                   SCF
            by Justin Turney, Rob Parrish, and Andy Simmonett
                              RHF Reference
                        1 Threads,   2000 MiB Core
         ---------------------------------------------------------

  ==> Geometry <==

    Molecular point group: c1
    Full point group: C1

    Geometry (in Angstrom), charge = 0, multiplicity = 1:

       Center              X                  Y                   Z               Mass       
    ------------   -----------------  -----------------  -----------------  -----------------
           H         -1.753935423755    -0.298289802210    -0.075640135527     1.007825032070
           O         -1.840129423755     0.466087197790     0.476342864473    15.994914619560
           C         -0.676633423755     1.244398197790     0.389754864473    12.000000000000
           C          0.569987576245     0.378298197790     0.428144864473    12.000000000000
           H         -0.669134423755     1.856259197790    -0.507980135527     1.007825032070
           H         -0.679934423755     1.910001197790     1.241465864473     1.007825032070
           O          0.463429576245    -0.574138802210    -0.582443135527    15.994914619560
           H          0.660325576245    -0.105217802210     1.402839864473     1.007825032070
           H          1.451887576245     1.001084197790     0.290395864473     1.007825032070
           C          1.559289576245    -1.426548802210    -0.690288135527    12.000000000000
           H          1.710994576245    -1.997181802210     0.224037864473     1.007825032070
           H          1.361157576245    -2.112246802210    -1.502362135527     1.007825032070
           H          2.471484576245    -0.875046802210    -0.908318135527     1.007825032070

  Running in c1 symmetry.

  Rotational constants: A =      0.44575  B =      0.09333  C =      0.08316 [cm^-1]
  Rotational constants: A =  13363.26560  B =   2798.08139  C =   2493.03804 [MHz]
  Nuclear repulsion =  194.769955840948256

  Charge       = 0
  Multiplicity = 1
  Electrons    = 42
  Nalpha       = 21
  Nbeta        = 21

  ==> Algorithm <==

  SCF Algorithm Type is DF.
  DIIS enabled.
  MOM disabled.
  Fractional occupation disabled.
  Guess Type is CORE.
  Energy threshold   = 1.00e-06
  Density threshold  = 1.00e-06
  Integral threshold = 0.00e+00

  ==> Primary Basis <==

  Basis Set: 6-31G*
    Number of shells: 46
    Number of basis function: 91
    Number of Cartesian functions: 91
    Spherical Harmonics?: false
    Max angular momentum: 2

  ==> Pre-Iterations <==

   -------------------------------------------------------
    Irrep   Nso     Nmo     Nalpha   Nbeta   Ndocc  Nsocc
   -------------------------------------------------------
     A         91      91       0       0       0       0
   -------------------------------------------------------
    Total      91      91      21      21      21       0
   -------------------------------------------------------

 OEINTS: Overlap, kinetic, potential, dipole, and quadrupole integrals
         stored in file 35.

  ==> Integral Setup <==

  ==> DFJK: Density-Fitted J/K Matrices <==

    J tasked:                  Yes
    K tasked:                  Yes
    wK tasked:                  No
    OpenMP threads:              1
    Integrals threads:           1
    Memory (MB):              1430
    Algorithm:                Core
    Integral Cache:           NONE
    Schwarz Cutoff:          1E-12
    Fitting Condition:       1E-12

   => Auxiliary Basis Set <=

  Basis Set: 
    Number of shells: 192
    Number of basis function: 605
    Number of Cartesian functions: 605
    Spherical Harmonics?: false
    Max angular momentum: 3

  Minimum eigenvalue in the overlap matrix is 4.5351133784E-03.
  Using Symmetric Orthogonalization.
  SCF Guess: Core (One-Electron) Hamiltonian.

  ==> Iterations <==

                           Total Energy        Delta E     RMS |[F,P]|

   @DF-RHF iter   1:  -223.70982648969570   -2.23710e+02   7.94472e-02 
   @DF-RHF iter   2:  -168.43052767969274    5.52793e+01   6.74057e-02 DIIS
   @DF-RHF iter   3:  -230.66158307581370   -6.22311e+01   6.89923e-02 DIIS
   @DF-RHF iter   4:  -255.46291251679949   -2.48013e+01   4.03063e-02 DIIS
   @DF-RHF iter   5:  -267.55028026487651   -1.20874e+01   9.82187e-03 DIIS
   @DF-RHF iter   6:  -267.87989475246218   -3.29614e-01   4.24135e-03 DIIS
   @DF-RHF iter   7:  -267.94342184507980   -6.35271e-02   1.44349e-03 DIIS
   @DF-RHF iter   8:  -267.95166293417685   -8.24109e-03   5.83528e-04 DIIS
   @DF-RHF iter   9:  -267.95330616013018   -1.64323e-03   2.11471e-04 DIIS
   @DF-RHF iter  10:  -267.95354078119897   -2.34621e-04   6.24424e-05 DIIS
   @DF-RHF iter  11:  -267.95356291106998   -2.21299e-05   2.11618e-05 DIIS
   @DF-RHF iter  12:  -267.95356537157670   -2.46051e-06   3.64163e-06 DIIS
   @DF-RHF iter  13:  -267.95356547931885   -1.07742e-07   7.73875e-07 DIIS

  ==> Post-Iterations <==

    Orbital Energies (a.u.)
    -----------------------

    Doubly Occupied:                                                      

       1A    -20.571763     2A    -20.545301     3A    -11.276309  
       4A    -11.275947     5A    -11.268337     6A     -1.399625  
       7A     -1.349908     8A     -1.021202     9A     -0.924613  
      10A     -0.837499    11A     -0.699966    12A     -0.684043  
      13A     -0.669581    14A     -0.633767    15A     -0.587187  
      16A     -0.579170    17A     -0.544393    18A     -0.496572  
      19A     -0.478489    20A     -0.435160    21A     -0.426787  

    Virtual:                                                              

      22A      0.231582    23A      0.266001    24A      0.270340  
      25A      0.298502    26A      0.310064    27A      0.320582  
      28A      0.329319    29A      0.339831    30A      0.359135  
      31A      0.409181    32A      0.436963    33A      0.446406  
      34A      0.722478    35A      0.749860    36A      0.762045  
      37A      0.808172    38A      0.816706    39A      0.836492  
      40A      0.882765    41A      0.939243    42A      0.986165  
      43A      1.086423    44A      1.089638    45A      1.107791  
      46A      1.137502    47A      1.150591    48A      1.153283  
      49A      1.178454    50A      1.206344    51A      1.227619  
      52A      1.240423    53A      1.286628    54A      1.341059  
      55A      1.376807    56A      1.404413    57A      1.542997  
      58A      1.554730    59A      1.649092    60A      1.702006  
      61A      1.708345    62A      1.763478    63A      1.846167  
      64A      1.940306    65A      1.960051    66A      2.025112  
      67A      2.160595    68A      2.236518    69A      2.259103  
      70A      2.372055    71A      2.413436    72A      2.435224  
      73A      2.456508    74A      2.475755    75A      2.517682  
      76A      2.593459    77A      2.641721    78A      2.713797  
      79A      2.770508    80A      2.795937    81A      2.868226  
      82A      2.915414    83A      3.042245    84A      3.170848  
      85A      3.200527    86A      3.336224    87A      4.191016  
      88A      4.365686    89A      4.635728    90A      4.686413  
      91A      4.869586  

    Final Occupation by Irrep:
              A 
    DOCC [    21 ]

  Energy converged.

  @DF-RHF Final Energy:  -267.95356547931885

   => Energetics <=

    Nuclear Repulsion Energy =            194.7699558409482563
    One-Electron Energy =                -752.0357413705419276
    Two-Electron Energy =                 289.3122200502747319
    DFT Exchange-Correlation Energy =       0.0000000000000000
    Empirical Dispersion Energy =           0.0000000000000000
    PCM Polarization Energy =               0.0000000000000000
    EFP Energy =                            0.0000000000000000
    Total Energy =                       -267.9535654793189678

    Alert: EFP and PCM quantities not currently incorporated into SCF psivars.

Properties will be evaluated at   0.000000,   0.000000,   0.000000 Bohr
  ==> Properties <==


Properties computed using the SCF density matrix

  Nuclear Dipole Moment: (a.u.)
     X:     4.2615      Y:    -0.5823      Z:     0.1536

  Electronic Dipole Moment: (a.u.)
     X:    -3.1695      Y:     0.3726      Z:    -0.2452

  Dipole Moment: (a.u.)
     X:     1.0920      Y:    -0.2097      Z:    -0.0916     Total:     1.1157

  Dipole Moment: (Debye)
     X:     2.7756      Y:    -0.5330      Z:    -0.2327     Total:     2.8359


  Saving occupied orbitals to File 180.

*** tstop() called on cx1-49-4-2.cx1.hpc.ic.ac.uk at Tue Jul  5 16:35:24 2016
Module time:
	user time   =       4.30 seconds =       0.07 minutes
	system time =       0.04 seconds =       0.00 minutes
	total time  =          5 seconds =       0.08 minutes
Total time:
	user time   =       4.30 seconds =       0.07 minutes
	system time =       0.04 seconds =       0.00 minutes
	total time  =          5 seconds =       0.08 minutes


Properties will be evaluated at   0.000000,   0.000000,   0.000000 Bohr

Properties computed using the  density matrix

  Nuclear Dipole Moment: (a.u.)
     X:     4.2615      Y:    -0.5823      Z:     0.1536

  Electronic Dipole Moment: (a.u.)
     X:    -3.1695      Y:     0.3726      Z:    -0.2452

  Dipole Moment: (a.u.)
     X:     1.0920      Y:    -0.2097      Z:    -0.0916     Total:     1.1157

  Dipole Moment: (Debye)
     X:     2.7756      Y:    -0.5330      Z:    -0.2327     Total:     2.8359

  Quadrupole Moment: (Debye Ang)
    XX:   -34.0189     YY:   -28.3223     ZZ:   -32.0263
    XY:     0.7733     XZ:     2.0098     YZ:     1.0355

  Traceless Quadrupole Moment: (Debye Ang)
    XX:    -2.5630     YY:     3.1335     ZZ:    -0.5705
    XY:     0.7733     XZ:     2.0098     YZ:     1.0355

  Mulliken Charges: (a.u.)
   Center  Symbol    Alpha    Beta     Spin     Total
       1     H     0.27123  0.27123  0.00000  0.45755
       2     O     4.37768  4.37768  0.00000 -0.75535
       3     C     2.99131  2.99131  0.00000  0.01738
       4     C     3.00810  3.00810  0.00000 -0.01621
       5     H     0.42474  0.42474  0.00000  0.15052
       6     H     0.41770  0.41770  0.00000  0.16461
       7     O     4.31165  4.31165  0.00000 -0.62330
       8     H     0.42460  0.42460  0.00000  0.15080
       9     H     0.42945  0.42945  0.00000  0.14109
      10     C     3.08074  3.08074  0.00000 -0.16147
      11     H     0.42623  0.42623  0.00000  0.14753
      12     H     0.40993  0.40993  0.00000  0.18015
      13     H     0.42665  0.42665  0.00000  0.14669

   Total alpha = 21.00000, Total beta = 21.00000, Total charge =  0.00000


*** PSI4 exiting successfully. Buy a developer a beer!
