    -----------------------------------------------------------------------
          Psi4: An Open-Source Ab Initio Electronic Structure Package
                              Psi4 (no tag) Driver

                          Git: Rev {detached?}  

    J. M. Turney, A. C. Simmonett, R. M. Parrish, E. G. Hohenstein,
    F. A. Evangelista, J. T. Fermann, B. J. Mintz, L. A. Burns, J. J. Wilke,
    M. L. Abrams, N. J. Russ, M. L. Leininger, C. L. Janssen, E. T. Seidl,
    W. D. Allen, H. F. Schaefer, R. A. King, E. F. Valeev, C. D. Sherrill,
    and T. D. Crawford, WIREs Comput. Mol. Sci. 2, 556-565 (2012)
    (doi: 10.1002/wcms.93)

                         Additional Contributions by
    A. E. DePrince, M. Saitow, U. Bozkaya, A. Yu. Sokolov
    -----------------------------------------------------------------------


    Psi4 started on: Tue Jul  5 17:14:32 2016

    Process ID:  19099
    PSI4DATADIR: /export131/home/mjharvey/miniconda3/share
    Memory level set to 256.000 MB

  ==> Input File <==

--------------------------------------------------------------------------
set {
	reference rhf
	basis 6-31G*
}


set_num_threads( 1 )
memory 2 gb

molecule MOL {
0 1

H	 7.683630	 -4.486249	 2.766238
C	 7.490646	 -4.581081	 1.702148
C	 7.490387	 -3.215185	 1.016944
H	 8.256935	 -5.226596	 1.283278
H	 6.533771	 -5.082023	 1.582790
C	 7.214120	 -3.312244	 -0.485078
H	 8.449284	 -2.733336	 1.178000
H	 6.737108	 -2.580385	 1.480939
C	 6.016512	 -4.195769	 -0.834914
H	 7.049722	 -2.319749	 -0.889517
H	 8.093234	 -3.715498	 -0.982659
C	 4.667243	 -3.598492	 -0.463463
H	 5.991848	 -4.372797	 -1.909076
H	 6.111366	 -5.178030	 -0.377375
C	 3.475324	 -4.538016	 -0.405696
O	 4.538953	 -2.431868	 -0.242249
C	 3.142513	 -5.197708	 -1.752249
H	 2.630924	 -3.957240	 -0.054410
H	 3.679456	 -5.310699	 0.333206
C	 3.906992	 -6.506058	 -1.962969
H	 2.073565	 -5.394231	 -1.800676
H	 3.371148	 -4.517137	 -2.568350
C	 3.584233	 -7.172245	 -3.299729
H	 3.675183	 -7.191428	 -1.151430
H	 4.975620	 -6.311267	 -1.903941
H	 2.526789	 -7.408725	 -3.374670
H	 3.837980	 -6.523738	 -4.133494
H	 4.139105	 -8.097216	 -3.419829

	symmetry c1
}
set optking {
	frozen_dihedral = ("
		10 6 3 2,
		16 12 15 17
	")
}

ee = energy('scf')
oeprop('DIPOLE', 'QUADRUPOLE', 'MULLIKEN_CHARGES')
f=open( 'psi4out.xyz', 'w' )
f.write( "28  " )
f.write( str(ee) + "\n" )
f.write( MOL.save_string_xyz() )
f.close()
--------------------------------------------------------------------------

  Memory set to   2.000 GiB by Python script.

*** tstart() called on cx1-3-4-4.cx1.hpc.ic.ac.uk
*** at Tue Jul  5 17:14:32 2016


         ---------------------------------------------------------
                                   SCF
            by Justin Turney, Rob Parrish, and Andy Simmonett
                              RHF Reference
                        1 Threads,   2000 MiB Core
         ---------------------------------------------------------

  ==> Geometry <==

    Molecular point group: c1
    Full point group: C1

    Geometry (in Angstrom), charge = 0, multiplicity = 1:

       Center              X                  Y                   Z               Mass       
    ------------   -----------------  -----------------  -----------------  -----------------
           H          2.526432294116     0.001100631417     3.439853740017     1.007825032070
           C          2.333448294116    -0.093731368583     2.375763740017    12.000000000000
           C          2.333189294116     1.272164631417     1.690559740017    12.000000000000
           H          3.099737294116    -0.739246368583     1.956893740017     1.007825032070
           H          1.376573294116    -0.594673368583     2.256405740017     1.007825032070
           C          2.056922294116     1.175105631417     0.188537740017    12.000000000000
           H          3.292086294116     1.754013631417     1.851615740017     1.007825032070
           H          1.579910294116     1.906964631417     2.154554740017     1.007825032070
           C          0.859314294116     0.291580631417    -0.161298259983    12.000000000000
           H          1.892524294116     2.167600631417    -0.215901259983     1.007825032070
           H          2.936036294116     0.771851631417    -0.309043259983     1.007825032070
           C         -0.489954705884     0.888857631417     0.210152740017    12.000000000000
           H          0.834650294116     0.114552631417    -1.235460259983     1.007825032070
           H          0.954168294116    -0.690680368583     0.296240740017     1.007825032070
           C         -1.681873705884    -0.050666368583     0.267919740017    12.000000000000
           O         -0.618244705884     2.055481631417     0.431366740017    15.994914619560
           C         -2.014684705884    -0.710358368583    -1.078633259983    12.000000000000
           H         -2.526273705884     0.530109631417     0.619205740017     1.007825032070
           H         -1.477741705884    -0.823349368583     1.006821740017     1.007825032070
           C         -1.250205705884    -2.018708368583    -1.289353259983    12.000000000000
           H         -3.083632705884    -0.906881368583    -1.127060259983     1.007825032070
           H         -1.786049705884    -0.029787368583    -1.894734259983     1.007825032070
           C         -1.572964705884    -2.684895368583    -2.626113259983    12.000000000000
           H         -1.482014705884    -2.704078368583    -0.477814259983     1.007825032070
           H         -0.181577705884    -1.823917368583    -1.230325259983     1.007825032070
           H         -2.630408705884    -2.921375368583    -2.701054259983     1.007825032070
           H         -1.319217705884    -2.036388368583    -3.459878259983     1.007825032070
           H         -1.018092705884    -3.609866368583    -2.746213259983     1.007825032070

  Running in c1 symmetry.

  Rotational constants: A =      0.06652  B =      0.02041  C =      0.01806 [cm^-1]
  Rotational constants: A =   1994.07525  B =    611.82632  C =    541.32699 [MHz]
  Nuclear repulsion =  553.340517506528272

  Charge       = 0
  Multiplicity = 1
  Electrons    = 80
  Nalpha       = 40
  Nbeta        = 40

  ==> Algorithm <==

  SCF Algorithm Type is DF.
  DIIS enabled.
  MOM disabled.
  Fractional occupation disabled.
  Guess Type is CORE.
  Energy threshold   = 1.00e-06
  Density threshold  = 1.00e-06
  Integral threshold = 0.00e+00

  ==> Primary Basis <==

  Basis Set: 6-31G*
    Number of shells: 96
    Number of basis function: 186
    Number of Cartesian functions: 186
    Spherical Harmonics?: false
    Max angular momentum: 2

  ==> Pre-Iterations <==

   -------------------------------------------------------
    Irrep   Nso     Nmo     Nalpha   Nbeta   Ndocc  Nsocc
   -------------------------------------------------------
     A        186     186       0       0       0       0
   -------------------------------------------------------
    Total     186     186      40      40      40       0
   -------------------------------------------------------

 OEINTS: Overlap, kinetic, potential, dipole, and quadrupole integrals
         stored in file 35.

  ==> Integral Setup <==

  ==> DFJK: Density-Fitted J/K Matrices <==

    J tasked:                  Yes
    K tasked:                  Yes
    wK tasked:                  No
    OpenMP threads:              1
    Integrals threads:           1
    Memory (MB):              1430
    Algorithm:                Core
    Integral Cache:           NONE
    Schwarz Cutoff:          1E-12
    Fitting Condition:       1E-12

   => Auxiliary Basis Set <=

  Basis Set: 
    Number of shells: 402
    Number of basis function: 1260
    Number of Cartesian functions: 1260
    Spherical Harmonics?: false
    Max angular momentum: 3

  Minimum eigenvalue in the overlap matrix is 3.1786835454E-03.
  Using Symmetric Orthogonalization.
  SCF Guess: Core (One-Electron) Hamiltonian.

  ==> Iterations <==

                           Total Energy        Delta E     RMS |[F,P]|

   @DF-RHF iter   1:  -248.53208099084793   -2.48532e+02   7.03361e-02 
   @DF-RHF iter   2:  -147.49674638565637    1.01035e+02   6.94931e-02 DIIS
   @DF-RHF iter   3:  -381.20051754103713   -2.33704e+02   3.03085e-02 DIIS
   @DF-RHF iter   4:  -288.36547279134709    9.28350e+01   6.08972e-02 DIIS
   @DF-RHF iter   5:  -405.92564411871251   -1.17560e+02   2.47775e-02 DIIS
   @DF-RHF iter   6:  -422.96870745191575   -1.70431e+01   8.93728e-03 DIIS
   @DF-RHF iter   7:  -422.85308303438285    1.15624e-01   8.18591e-03 DIIS
   @DF-RHF iter   8:  -426.11563080420649   -3.26255e+00   1.40507e-03 DIIS
   @DF-RHF iter   9:  -426.15459986164092   -3.89691e-02   3.56068e-04 DIIS
   @DF-RHF iter  10:  -426.15778091781033   -3.18106e-03   1.69604e-04 DIIS
   @DF-RHF iter  11:  -426.15857788305016   -7.96965e-04   5.82639e-05 DIIS
   @DF-RHF iter  12:  -426.15868921383776   -1.11331e-04   2.47705e-05 DIIS
   @DF-RHF iter  13:  -426.15870556665971   -1.63528e-05   8.98076e-06 DIIS
   @DF-RHF iter  14:  -426.15870797917671   -2.41252e-06   2.98113e-06 DIIS
   @DF-RHF iter  15:  -426.15870817298890   -1.93812e-07   7.56990e-07 DIIS

  ==> Post-Iterations <==

    Orbital Energies (a.u.)
    -----------------------

    Doubly Occupied:                                                      

       1A    -20.548437     2A    -11.322211     3A    -11.232128  
       4A    -11.228658     5A    -11.228172     6A    -11.225811  
       7A    -11.216814     8A    -11.216595     9A    -11.212769  
      10A    -11.210428    11A     -1.393416    12A     -1.098715  
      13A     -1.079887    14A     -1.019044    15A     -0.989254  
      16A     -0.911827    17A     -0.884136    18A     -0.813672  
      19A     -0.790490    20A     -0.719982    21A     -0.673395  
      22A     -0.647991    23A     -0.638908    24A     -0.622057  
      25A     -0.606032    26A     -0.597103    27A     -0.579084  
      28A     -0.562807    29A     -0.544094    30A     -0.534560  
      31A     -0.529688    32A     -0.526812    33A     -0.497959  
      34A     -0.483849    35A     -0.479315    36A     -0.473666  
      37A     -0.465750    38A     -0.458212    39A     -0.456873  
      40A     -0.392892  

    Virtual:                                                              

      41A      0.167491    42A      0.212351    43A      0.228958  
      44A      0.252892    45A      0.264878    46A      0.274017  
      47A      0.287656    48A      0.290162    49A      0.306119  
      50A      0.313646    51A      0.314735    52A      0.325311  
      53A      0.332112    54A      0.335085    55A      0.347949  
      56A      0.350079    57A      0.365638    58A      0.370942  
      59A      0.382373    60A      0.390239    61A      0.408086  
      62A      0.414222    63A      0.420731    64A      0.437710  
      65A      0.459913    66A      0.467813    67A      0.511854  
      68A      0.548906    69A      0.690355    70A      0.713256  
      71A      0.719860    72A      0.725292    73A      0.741780  
      74A      0.746286    75A      0.750915    76A      0.759696  
      77A      0.811092    78A      0.839287    79A      0.862934  
      80A      0.878557    81A      0.892978    82A      0.919921  
      83A      0.933955    84A      0.941154    85A      0.952844  
      86A      0.971289    87A      0.981201    88A      0.996045  
      89A      1.006710    90A      1.053848    91A      1.072362  
      92A      1.089896    93A      1.098488    94A      1.120174  
      95A      1.125193    96A      1.136223    97A      1.148566  
      98A      1.162246    99A      1.167805   100A      1.170609  
     101A      1.180328   102A      1.191107   103A      1.199356  
     104A      1.205312   105A      1.209069   106A      1.233189  
     107A      1.235967   108A      1.238340   109A      1.242799  
     110A      1.265076   111A      1.268839   112A      1.276066  
     113A      1.301615   114A      1.311309   115A      1.352062  
     116A      1.397325   117A      1.426490   118A      1.441376  
     119A      1.445600   120A      1.571622   121A      1.647238  
     122A      1.670576   123A      1.690240   124A      1.754618  
     125A      1.770887   126A      1.781432   127A      1.845017  
     128A      1.858785   129A      1.875075   130A      1.929547  
     131A      1.965689   132A      1.978621   133A      2.028704  
     134A      2.083963   135A      2.103160   136A      2.128290  
     137A      2.133274   138A      2.156933   139A      2.187365  
     140A      2.212680   141A      2.233312   142A      2.262447  
     143A      2.270822   144A      2.291350   145A      2.301406  
     146A      2.325669   147A      2.332413   148A      2.377295  
     149A      2.397701   150A      2.423654   151A      2.441252  
     152A      2.487075   153A      2.523175   154A      2.561361  
     155A      2.616551   156A      2.621402   157A      2.653033  
     158A      2.684005   159A      2.689647   160A      2.695792  
     161A      2.717163   162A      2.736544   163A      2.778690  
     164A      2.790210   165A      2.805513   166A      2.876217  
     167A      2.903077   168A      2.943487   169A      2.968413  
     170A      3.000025   171A      3.032941   172A      3.074541  
     173A      3.109654   174A      3.200470   175A      3.389483  
     176A      3.411350   177A      4.473720   178A      4.546298  
     179A      4.591570   180A      4.639321   181A      4.740186  
     182A      4.798310   183A      4.852445   184A      4.953315  
     185A      4.977484   186A      5.016798  

    Final Occupation by Irrep:
              A 
    DOCC [    40 ]

  Energy converged.

  @DF-RHF Final Energy:  -426.15870817298890

   => Energetics <=

    Nuclear Repulsion Energy =            553.3405175065282720
    One-Electron Energy =               -1674.7709212386153013
    Two-Electron Energy =                 695.2716955590976795
    DFT Exchange-Correlation Energy =       0.0000000000000000
    Empirical Dispersion Energy =           0.0000000000000000
    PCM Polarization Energy =               0.0000000000000000
    EFP Energy =                            0.0000000000000000
    Total Energy =                       -426.1587081729894635

    Alert: EFP and PCM quantities not currently incorporated into SCF psivars.

Properties will be evaluated at   0.000000,   0.000000,   0.000000 Bohr
  ==> Properties <==


Properties computed using the SCF density matrix

  Nuclear Dipole Moment: (a.u.)
     X:     2.7974      Y:    -9.0218      Z:    -1.7003

  Electronic Dipole Moment: (a.u.)
     X:    -2.6892      Y:     7.9094      Z:     1.4221

  Dipole Moment: (a.u.)
     X:     0.1081      Y:    -1.1124      Z:    -0.2781     Total:     1.1517

  Dipole Moment: (Debye)
     X:     0.2749      Y:    -2.8274      Z:    -0.7070     Total:     2.9274


  Saving occupied orbitals to File 180.

*** tstop() called on cx1-3-4-4.cx1.hpc.ic.ac.uk at Tue Jul  5 17:15:09 2016
Module time:
	user time   =      36.29 seconds =       0.60 minutes
	system time =       0.34 seconds =       0.01 minutes
	total time  =         37 seconds =       0.62 minutes
Total time:
	user time   =      36.29 seconds =       0.60 minutes
	system time =       0.34 seconds =       0.01 minutes
	total time  =         37 seconds =       0.62 minutes


Properties will be evaluated at   0.000000,   0.000000,   0.000000 Bohr

Properties computed using the  density matrix

  Nuclear Dipole Moment: (a.u.)
     X:     2.7974      Y:    -9.0218      Z:    -1.7003

  Electronic Dipole Moment: (a.u.)
     X:    -2.6892      Y:     7.9094      Z:     1.4221

  Dipole Moment: (a.u.)
     X:     0.1081      Y:    -1.1124      Z:    -0.2781     Total:     1.1517

  Dipole Moment: (Debye)
     X:     0.2749      Y:    -2.8274      Z:    -0.7070     Total:     2.9274

  Quadrupole Moment: (Debye Ang)
    XX:   -63.2780     YY:   -72.9390     ZZ:   -64.9341
    XY:     3.0575     XZ:     0.4403     YZ:    -1.5467

  Traceless Quadrupole Moment: (Debye Ang)
    XX:     3.7723     YY:    -5.8886     ZZ:     2.1162
    XY:     3.0575     XZ:     0.4403     YZ:    -1.5467

  Mulliken Charges: (a.u.)
   Center  Symbol    Alpha    Beta     Spin     Total
       1     H     0.41662  0.41662  0.00000  0.16677
       2     C     3.24346  3.24346  0.00000 -0.48691
       3     C     3.15828  3.15828  0.00000 -0.31657
       4     H     0.42275  0.42275  0.00000  0.15451
       5     H     0.42606  0.42606  0.00000  0.14788
       6     C     3.14824  3.14824  0.00000 -0.29647
       7     H     0.41928  0.41928  0.00000  0.16143
       8     H     0.40903  0.40903  0.00000  0.18195
       9     C     3.22242  3.22242  0.00000 -0.44484
      10     H     0.40473  0.40473  0.00000  0.19053
      11     H     0.42211  0.42211  0.00000  0.15577
      12     C     2.73031  2.73031  0.00000  0.53937
      13     H     0.40233  0.40233  0.00000  0.19535
      14     H     0.40788  0.40788  0.00000  0.18425
      15     C     3.20390  3.20390  0.00000 -0.40780
      16     O     4.26644  4.26644  0.00000 -0.53288
      17     C     3.16438  3.16438  0.00000 -0.32876
      18     H     0.39764  0.39764  0.00000  0.20473
      19     H     0.41203  0.41203  0.00000  0.17593
      20     C     3.15811  3.15811  0.00000 -0.31622
      21     H     0.41189  0.41189  0.00000  0.17622
      22     H     0.41489  0.41489  0.00000  0.17022
      23     C     3.23963  3.23963  0.00000 -0.47926
      24     H     0.42084  0.42084  0.00000  0.15832
      25     H     0.41848  0.41848  0.00000  0.16304
      26     H     0.42001  0.42001  0.00000  0.15998
      27     H     0.42074  0.42074  0.00000  0.15851
      28     H     0.41753  0.41753  0.00000  0.16494

   Total alpha = 40.00000, Total beta = 40.00000, Total charge = -0.00000


*** PSI4 exiting successfully. Buy a developer a beer!
