    -----------------------------------------------------------------------
          Psi4: An Open-Source Ab Initio Electronic Structure Package
                              Psi4 (no tag) Driver

                          Git: Rev {detached?}  

    J. M. Turney, A. C. Simmonett, R. M. Parrish, E. G. Hohenstein,
    F. A. Evangelista, J. T. Fermann, B. J. Mintz, L. A. Burns, J. J. Wilke,
    M. L. Abrams, N. J. Russ, M. L. Leininger, C. L. Janssen, E. T. Seidl,
    W. D. Allen, H. F. Schaefer, R. A. King, E. F. Valeev, C. D. Sherrill,
    and T. D. Crawford, WIREs Comput. Mol. Sci. 2, 556-565 (2012)
    (doi: 10.1002/wcms.93)

                         Additional Contributions by
    A. E. DePrince, M. Saitow, U. Bozkaya, A. Yu. Sokolov
    -----------------------------------------------------------------------


    Psi4 started on: Tue Jul  5 16:43:35 2016

    Process ID:  18699
    PSI4DATADIR: /export131/home/mjharvey/miniconda3/share
    Memory level set to 256.000 MB

  ==> Input File <==

--------------------------------------------------------------------------
set {
	reference rhf
	basis 6-31G*
}


set_num_threads( 1 )
memory 2 gb

molecule MOL {
0 1

O	 -1.492863	 -0.483586	 -0.816471
C	 -1.083277	 0.139568	 0.115197
C	 0.323299	 -0.082943	 0.642902
C	 -1.943845	 1.157346	 0.830304
C	 1.355627	 -0.005344	 -0.493127
H	 0.396251	 -1.044647	 1.143147
H	 0.528637	 0.693580	 1.371677
C	 1.155333	 1.223865	 -1.377534
H	 2.360126	 0.010252	 -0.075980
H	 1.280057	 -0.907677	 -1.090809
H	 1.891536	 1.252673	 -2.174319
H	 1.250670	 2.141594	 -0.804378
H	 0.170717	 1.219102	 -1.835306
H	 -1.948779	 0.973579	 1.900758
H	 -2.954020	 1.122341	 0.446825
H	 -1.534598	 2.152602	 0.678029

	symmetry c1
}
set optking {
	frozen_dihedral = ("
		9 5 3 2
	")
}

ee = energy('scf')
oeprop('DIPOLE', 'QUADRUPOLE', 'MULLIKEN_CHARGES')
f=open( 'psi4out.xyz', 'w' )
f.write( "16  " )
f.write( str(ee) + "\n" )
f.write( MOL.save_string_xyz() )
f.close()
--------------------------------------------------------------------------

  Memory set to   2.000 GiB by Python script.

*** tstart() called on cx1-3-15-3.cx1.hpc.ic.ac.uk
*** at Tue Jul  5 16:43:35 2016


         ---------------------------------------------------------
                                   SCF
            by Justin Turney, Rob Parrish, and Andy Simmonett
                              RHF Reference
                        1 Threads,   2000 MiB Core
         ---------------------------------------------------------

  ==> Geometry <==

    Molecular point group: c1
    Full point group: C1

    Geometry (in Angstrom), charge = 0, multiplicity = 1:

       Center              X                  Y                   Z               Mass       
    ------------   -----------------  -----------------  -----------------  -----------------
           O         -1.205424952112    -0.821995321074    -0.620239320290    15.994914619560
           C         -0.795838952112    -0.198841321074     0.311428679710    12.000000000000
           C          0.610737047888    -0.421352321074     0.839133679710    12.000000000000
           C         -1.656406952112     0.818936678926     1.026535679710    12.000000000000
           C          1.643065047888    -0.343753321074    -0.296895320290    12.000000000000
           H          0.683689047888    -1.383056321074     1.339378679710     1.007825032070
           H          0.816075047888     0.355170678926     1.567908679710     1.007825032070
           C          1.442771047888     0.885455678926    -1.181302320290    12.000000000000
           H          2.647564047888    -0.328157321074     0.120251679710     1.007825032070
           H          1.567495047888    -1.246086321074    -0.894577320290     1.007825032070
           H          2.178974047888     0.914263678926    -1.978087320290     1.007825032070
           H          1.538108047888     1.803184678926    -0.608146320290     1.007825032070
           H          0.458155047888     0.880692678926    -1.639074320290     1.007825032070
           H         -1.661340952112     0.635169678926     2.096989679710     1.007825032070
           H         -2.666581952112     0.783931678926     0.643056679710     1.007825032070
           H         -1.247159952112     1.814192678926     0.874260679710     1.007825032070

  Running in c1 symmetry.

  Rotational constants: A =      0.18283  B =      0.07796  C =      0.07648 [cm^-1]
  Rotational constants: A =   5480.96421  B =   2337.32714  C =   2292.87131 [MHz]
  Nuclear repulsion =  244.265536525222274

  Charge       = 0
  Multiplicity = 1
  Electrons    = 48
  Nalpha       = 24
  Nbeta        = 24

  ==> Algorithm <==

  SCF Algorithm Type is DF.
  DIIS enabled.
  MOM disabled.
  Fractional occupation disabled.
  Guess Type is CORE.
  Energy threshold   = 1.00e-06
  Density threshold  = 1.00e-06
  Integral threshold = 0.00e+00

  ==> Primary Basis <==

  Basis Set: 6-31G*
    Number of shells: 56
    Number of basis function: 110
    Number of Cartesian functions: 110
    Spherical Harmonics?: false
    Max angular momentum: 2

  ==> Pre-Iterations <==

   -------------------------------------------------------
    Irrep   Nso     Nmo     Nalpha   Nbeta   Ndocc  Nsocc
   -------------------------------------------------------
     A        110     110       0       0       0       0
   -------------------------------------------------------
    Total     110     110      24      24      24       0
   -------------------------------------------------------

 OEINTS: Overlap, kinetic, potential, dipole, and quadrupole integrals
         stored in file 35.

  ==> Integral Setup <==

  ==> DFJK: Density-Fitted J/K Matrices <==

    J tasked:                  Yes
    K tasked:                  Yes
    wK tasked:                  No
    OpenMP threads:              1
    Integrals threads:           1
    Memory (MB):              1430
    Algorithm:                Core
    Integral Cache:           NONE
    Schwarz Cutoff:          1E-12
    Fitting Condition:       1E-12

   => Auxiliary Basis Set <=

  Basis Set: 
    Number of shells: 234
    Number of basis function: 736
    Number of Cartesian functions: 736
    Spherical Harmonics?: false
    Max angular momentum: 3

  Minimum eigenvalue in the overlap matrix is 3.7178340924E-03.
  Using Symmetric Orthogonalization.
  SCF Guess: Core (One-Electron) Hamiltonian.

  ==> Iterations <==

                           Total Energy        Delta E     RMS |[F,P]|

   @DF-RHF iter   1:  -208.45479218912288   -2.08455e+02   7.61294e-02 
   @DF-RHF iter   2:  -194.96443228361102    1.34904e+01   5.77585e-02 DIIS
   @DF-RHF iter   3:  -234.78881715442475   -3.98244e+01   5.18697e-02 DIIS
   @DF-RHF iter   4:  -269.01575455325008   -3.42269e+01   1.19961e-02 DIIS
   @DF-RHF iter   5:  -269.78025135630276   -7.64497e-01   6.87696e-03 DIIS
   @DF-RHF iter   6:  -270.01014693364289   -2.29896e-01   1.56640e-03 DIIS
   @DF-RHF iter   7:  -270.02496829203335   -1.48214e-02   5.19864e-04 DIIS
   @DF-RHF iter   8:  -270.02692949498589   -1.96120e-03   1.68029e-04 DIIS
   @DF-RHF iter   9:  -270.02721713135827   -2.87636e-04   7.14890e-05 DIIS
   @DF-RHF iter  10:  -270.02726530949280   -4.81781e-05   1.78781e-05 DIIS
   @DF-RHF iter  11:  -270.02727001932476   -4.70983e-06   6.57278e-06 DIIS
   @DF-RHF iter  12:  -270.02727110823537   -1.08891e-06   3.09388e-06 DIIS
   @DF-RHF iter  13:  -270.02727146560312   -3.57368e-07   1.26186e-06 DIIS
   @DF-RHF iter  14:  -270.02727152960904   -6.40059e-08   4.18532e-07 DIIS

  ==> Post-Iterations <==

    Orbital Energies (a.u.)
    -----------------------

    Doubly Occupied:                                                      

       1A    -20.548294     2A    -11.326132     3A    -11.230471  
       4A    -11.229304     5A    -11.225769     6A    -11.211822  
       7A     -1.395321     8A     -1.079138     9A     -1.013015  
      10A     -0.946688    11A     -0.829410    12A     -0.726638  
      13A     -0.661350    14A     -0.640938    15A     -0.622171  
      16A     -0.604322    17A     -0.580663    18A     -0.552710  
      19A     -0.546880    20A     -0.503549    21A     -0.493334  
      22A     -0.479339    23A     -0.472646    24A     -0.399486  

    Virtual:                                                              

      25A      0.164089    26A      0.220894    27A      0.265854  
      28A      0.285396    29A      0.287343    30A      0.300645  
      31A      0.318098    32A      0.325883    33A      0.330106  
      34A      0.343761    35A      0.354974    36A      0.382921  
      37A      0.422243    38A      0.443819    39A      0.482642  
      40A      0.519524    41A      0.707019    42A      0.709006  
      43A      0.739157    44A      0.764794    45A      0.792121  
      46A      0.819943    47A      0.859635    48A      0.868586  
      49A      0.893670    50A      0.915215    51A      0.951459  
      52A      0.988727    53A      1.009938    54A      1.072577  
      55A      1.098142    56A      1.105763    57A      1.127208  
      58A      1.143240    59A      1.162270    60A      1.186490  
      61A      1.188708    62A      1.199884    63A      1.220109  
      64A      1.233264    65A      1.237788    66A      1.257706  
      67A      1.281694    68A      1.367558    69A      1.394223  
      70A      1.410165    71A      1.490396    72A      1.657399  
      73A      1.712712    74A      1.745656    75A      1.814484  
      76A      1.851803    77A      1.932374    78A      1.993348  
      79A      2.054801    80A      2.107398    81A      2.117688  
      82A      2.121013    83A      2.202865    84A      2.245861  
      85A      2.270477    86A      2.304501    87A      2.336663  
      88A      2.389436    89A      2.446318    90A      2.493898  
      91A      2.527563    92A      2.622594    93A      2.655499  
      94A      2.691004    95A      2.695341    96A      2.742076  
      97A      2.771841    98A      2.851300    99A      2.866097  
     100A      2.995475   101A      3.045893   102A      3.140790  
     103A      3.376569   104A      3.384450   105A      4.468032  
     106A      4.528925   107A      4.622959   108A      4.767168  
     109A      4.865272   110A      4.985288  

    Final Occupation by Irrep:
              A 
    DOCC [    24 ]

  Energy converged.

  @DF-RHF Final Energy:  -270.02727152960904

   => Energetics <=

    Nuclear Repulsion Energy =            244.2655365252222737
    One-Electron Energy =                -849.9468620999720088
    Two-Electron Energy =                 335.6540540451403558
    DFT Exchange-Correlation Energy =       0.0000000000000000
    Empirical Dispersion Energy =           0.0000000000000000
    PCM Polarization Energy =               0.0000000000000000
    EFP Energy =                            0.0000000000000000
    Total Energy =                       -270.0272715296093793

    Alert: EFP and PCM quantities not currently incorporated into SCF psivars.

Properties will be evaluated at   0.000000,   0.000000,   0.000000 Bohr
  ==> Properties <==


Properties computed using the SCF density matrix

  Nuclear Dipole Moment: (a.u.)
     X:     4.0394      Y:     3.9609      Z:     1.4238

  Electronic Dipole Moment: (a.u.)
     X:    -3.5809      Y:    -3.3898      Z:    -0.5586

  Dipole Moment: (a.u.)
     X:     0.4584      Y:     0.5711      Z:     0.8652     Total:     1.1335

  Dipole Moment: (Debye)
     X:     1.1652      Y:     1.4516      Z:     2.1991     Total:     2.8811


  Saving occupied orbitals to File 180.

*** tstop() called on cx1-3-15-3.cx1.hpc.ic.ac.uk at Tue Jul  5 16:43:43 2016
Module time:
	user time   =       7.01 seconds =       0.12 minutes
	system time =       0.04 seconds =       0.00 minutes
	total time  =          8 seconds =       0.13 minutes
Total time:
	user time   =       7.01 seconds =       0.12 minutes
	system time =       0.04 seconds =       0.00 minutes
	total time  =          8 seconds =       0.13 minutes


Properties will be evaluated at   0.000000,   0.000000,   0.000000 Bohr

Properties computed using the  density matrix

  Nuclear Dipole Moment: (a.u.)
     X:     4.0394      Y:     3.9609      Z:     1.4238

  Electronic Dipole Moment: (a.u.)
     X:    -3.5809      Y:    -3.3898      Z:    -0.5586

  Dipole Moment: (a.u.)
     X:     0.4584      Y:     0.5711      Z:     0.8652     Total:     1.1335

  Dipole Moment: (Debye)
     X:     1.1652      Y:     1.4516      Z:     2.1991     Total:     2.8811

  Quadrupole Moment: (Debye Ang)
    XX:   -39.1189     YY:   -39.0443     ZZ:   -38.3391
    XY:    -2.7195     XZ:    -2.8023     YZ:    -1.4090

  Traceless Quadrupole Moment: (Debye Ang)
    XX:    -0.2848     YY:    -0.2102     ZZ:     0.4950
    XY:    -2.7195     XZ:    -2.8023     YZ:    -1.4090

  Mulliken Charges: (a.u.)
   Center  Symbol    Alpha    Beta     Spin     Total
       1     O     4.26345  4.26345  0.00000 -0.52689
       2     C     2.73760  2.73760  0.00000  0.52480
       3     C     3.20286  3.20286  0.00000 -0.40572
       4     C     3.28993  3.28993  0.00000 -0.57986
       5     C     3.15044  3.15044  0.00000 -0.30089
       6     H     0.39941  0.39941  0.00000  0.20119
       7     H     0.41797  0.41797  0.00000  0.16407
       8     C     3.25420  3.25420  0.00000 -0.50840
       9     H     0.41806  0.41806  0.00000  0.16387
      10     H     0.40732  0.40732  0.00000  0.18536
      11     H     0.41495  0.41495  0.00000  0.17011
      12     H     0.42512  0.42512  0.00000  0.14977
      13     H     0.40657  0.40657  0.00000  0.18686
      14     H     0.40862  0.40862  0.00000  0.18276
      15     H     0.39701  0.39701  0.00000  0.20599
      16     H     0.40650  0.40650  0.00000  0.18699

   Total alpha = 24.00000, Total beta = 24.00000, Total charge =  0.00000


*** PSI4 exiting successfully. Buy a developer a beer!
