    -----------------------------------------------------------------------
          Psi4: An Open-Source Ab Initio Electronic Structure Package
                              Psi4 (no tag) Driver

                          Git: Rev {detached?}  

    J. M. Turney, A. C. Simmonett, R. M. Parrish, E. G. Hohenstein,
    F. A. Evangelista, J. T. Fermann, B. J. Mintz, L. A. Burns, J. J. Wilke,
    M. L. Abrams, N. J. Russ, M. L. Leininger, C. L. Janssen, E. T. Seidl,
    W. D. Allen, H. F. Schaefer, R. A. King, E. F. Valeev, C. D. Sherrill,
    and T. D. Crawford, WIREs Comput. Mol. Sci. 2, 556-565 (2012)
    (doi: 10.1002/wcms.93)

                         Additional Contributions by
    A. E. DePrince, M. Saitow, U. Bozkaya, A. Yu. Sokolov
    -----------------------------------------------------------------------


    Psi4 started on: Tue Jul  5 16:34:15 2016

    Process ID:  17386
    PSI4DATADIR: /export131/home/mjharvey/miniconda3/share
    Memory level set to 256.000 MB

  ==> Input File <==

--------------------------------------------------------------------------
set {
	reference rhf
	basis 6-31G*
}


set_num_threads( 1 )
memory 2 gb

molecule MOL {
0 1

O	 -0.682937	 1.318834	 -0.186099
C	 -0.860635	 0.152188	 -0.042321
C	 -2.173363	 -0.477127	 0.338347
O	 0.083258	 -0.765189	 -0.202595
H	 -2.477673	 -1.180929	 -0.427595
H	 -2.923125	 0.290956	 0.455536
H	 -2.058825	 -1.029004	 1.264191
C	 -0.300604	 -2.138252	 -0.214667
C	 -0.823604	 -2.581741	 1.139008
H	 0.540203	 -2.739051	 -0.526473
H	 -1.074131	 -2.196752	 -0.966819
H	 -1.177688	 -3.606265	 1.078149
H	 -0.043194	 -2.535704	 1.888147
H	 -1.650241	 -1.953651	 1.452997

	symmetry c1
}
set optking {
	frozen_dihedral = ("
		10 8 4 2
	")
}

ee = energy('scf')
oeprop('DIPOLE', 'QUADRUPOLE', 'MULLIKEN_CHARGES')
f=open( 'psi4out.xyz', 'w' )
f.write( "14  " )
f.write( str(ee) + "\n" )
f.write( MOL.save_string_xyz() )
f.close()
--------------------------------------------------------------------------

  Memory set to   2.000 GiB by Python script.

*** tstart() called on cx1-1-2-4.cx1.hpc.ic.ac.uk
*** at Tue Jul  5 16:34:15 2016


         ---------------------------------------------------------
                                   SCF
            by Justin Turney, Rob Parrish, and Andy Simmonett
                              RHF Reference
                        1 Threads,   2000 MiB Core
         ---------------------------------------------------------

  ==> Geometry <==

    Molecular point group: c1
    Full point group: C1

    Geometry (in Angstrom), charge = 0, multiplicity = 1:

       Center              X                  Y                   Z               Mass       
    ------------   -----------------  -----------------  -----------------  -----------------
           O          0.117040663650     2.076917192448    -0.330086130798    15.994914619560
           C         -0.060657336350     0.910271192448    -0.186308130798    12.000000000000
           C         -1.373385336350     0.280956192448     0.194359869202    12.000000000000
           O          0.883235663650    -0.007105807552    -0.346582130798    15.994914619560
           H         -1.677695336350    -0.422845807552    -0.571582130798     1.007825032070
           H         -2.123147336350     1.049039192448     0.311548869202     1.007825032070
           H         -1.258847336350    -0.270920807552     1.120203869202     1.007825032070
           C          0.499373663650    -1.380168807552    -0.358654130798    12.000000000000
           C         -0.023626336350    -1.823657807552     0.995020869202    12.000000000000
           H          1.340180663650    -1.980967807552    -0.670460130798     1.007825032070
           H         -0.274153336350    -1.438668807552    -1.110806130798     1.007825032070
           H         -0.377710336350    -2.848181807552     0.934161869202     1.007825032070
           H          0.756783663650    -1.777620807552     1.744159869202     1.007825032070
           H         -0.850263336350    -1.195567807552     1.309009869202     1.007825032070

  Running in c1 symmetry.

  Rotational constants: A =      0.24167  B =      0.09149  C =      0.07422 [cm^-1]
  Rotational constants: A =   7245.15762  B =   2742.90065  C =   2225.11565 [MHz]
  Nuclear repulsion =  255.476722206555394

  Charge       = 0
  Multiplicity = 1
  Electrons    = 48
  Nalpha       = 24
  Nbeta        = 24

  ==> Algorithm <==

  SCF Algorithm Type is DF.
  DIIS enabled.
  MOM disabled.
  Fractional occupation disabled.
  Guess Type is CORE.
  Energy threshold   = 1.00e-06
  Density threshold  = 1.00e-06
  Integral threshold = 0.00e+00

  ==> Primary Basis <==

  Basis Set: 6-31G*
    Number of shells: 52
    Number of basis function: 106
    Number of Cartesian functions: 106
    Spherical Harmonics?: false
    Max angular momentum: 2

  ==> Pre-Iterations <==

   -------------------------------------------------------
    Irrep   Nso     Nmo     Nalpha   Nbeta   Ndocc  Nsocc
   -------------------------------------------------------
     A        106     106       0       0       0       0
   -------------------------------------------------------
    Total     106     106      24      24      24       0
   -------------------------------------------------------

 OEINTS: Overlap, kinetic, potential, dipole, and quadrupole integrals
         stored in file 35.

  ==> Integral Setup <==

  ==> DFJK: Density-Fitted J/K Matrices <==

    J tasked:                  Yes
    K tasked:                  Yes
    wK tasked:                  No
    OpenMP threads:              1
    Integrals threads:           1
    Memory (MB):              1430
    Algorithm:                Core
    Integral Cache:           NONE
    Schwarz Cutoff:          1E-12
    Fitting Condition:       1E-12

   => Auxiliary Basis Set <=

  Basis Set: 
    Number of shells: 216
    Number of basis function: 686
    Number of Cartesian functions: 686
    Spherical Harmonics?: false
    Max angular momentum: 3

  Minimum eigenvalue in the overlap matrix is 3.5273455487E-03.
  Using Symmetric Orthogonalization.
  SCF Guess: Core (One-Electron) Hamiltonian.

  ==> Iterations <==

                           Total Energy        Delta E     RMS |[F,P]|

   @DF-RHF iter   1:  -242.00833751089101   -2.42008e+02   8.06199e-02 
   @DF-RHF iter   2:  -200.82336372124468    4.11850e+01   6.82012e-02 DIIS
   @DF-RHF iter   3:  -272.07950771313659   -7.12561e+01   5.30514e-02 DIIS
   @DF-RHF iter   4:  -301.27904775605538   -2.91995e+01   2.71020e-02 DIIS
   @DF-RHF iter   5:  -305.15400092198564   -3.87495e+00   1.10126e-02 DIIS
   @DF-RHF iter   6:  -305.73374536534101   -5.79744e-01   2.99478e-03 DIIS
   @DF-RHF iter   7:  -305.77409962992220   -4.03543e-02   1.16919e-03 DIIS
   @DF-RHF iter   8:  -305.78210719395662   -8.00756e-03   3.23681e-04 DIIS
   @DF-RHF iter   9:  -305.78291729707468   -8.10103e-04   1.27223e-04 DIIS
   @DF-RHF iter  10:  -305.78314109212039   -2.23795e-04   4.94431e-05 DIIS
   @DF-RHF iter  11:  -305.78317033453692   -2.92424e-05   2.01039e-05 DIIS
   @DF-RHF iter  12:  -305.78317605257706   -5.71804e-06   6.93044e-06 DIIS
   @DF-RHF iter  13:  -305.78317670408836   -6.51511e-07   1.90298e-06 DIIS
   @DF-RHF iter  14:  -305.78317674118495   -3.70966e-08   6.21524e-07 DIIS

  ==> Post-Iterations <==

    Orbital Energies (a.u.)
    -----------------------

    Doubly Occupied:                                                      

       1A    -20.605182     2A    -20.542947     3A    -11.378213  
       4A    -11.305933     5A    -11.230973     6A    -11.228754  
       7A     -1.467534     8A     -1.368739     9A     -1.069976  
      10A     -1.027859    11A     -0.902812    12A     -0.785324  
      13A     -0.721193    14A     -0.698488    15A     -0.671350  
      16A     -0.650093    17A     -0.603238    18A     -0.589352  
      19A     -0.559917    20A     -0.539288    21A     -0.514731  
      22A     -0.472405    23A     -0.444261    24A     -0.433349  

    Virtual:                                                              

      25A      0.189224    26A      0.218978    27A      0.250423  
      28A      0.270644    29A      0.290893    30A      0.304101  
      31A      0.313357    32A      0.342887    33A      0.364277  
      34A      0.388537    35A      0.403028    36A      0.476031  
      37A      0.500698    38A      0.570515    39A      0.695503  
      40A      0.719825    41A      0.736138    42A      0.753616  
      43A      0.788023    44A      0.789011    45A      0.842492  
      46A      0.884876    47A      0.895371    48A      0.937578  
      49A      0.972730    50A      0.989546    51A      1.093684  
      52A      1.111670    53A      1.121128    54A      1.133967  
      55A      1.157652    56A      1.193152    57A      1.202638  
      58A      1.218824    59A      1.242428    60A      1.293478  
      61A      1.315619    62A      1.347618    63A      1.362277  
      64A      1.379399    65A      1.402339    66A      1.565862  
      67A      1.624646    68A      1.634212    69A      1.743349  
      70A      1.751286    71A      1.772944    72A      1.870456  
      73A      1.923260    74A      2.033475    75A      2.073202  
      76A      2.095758    77A      2.101843    78A      2.133609  
      79A      2.179245    80A      2.220903    81A      2.260751  
      82A      2.313412    83A      2.344100    84A      2.421716  
      85A      2.449963    86A      2.530854    87A      2.544375  
      88A      2.636668    89A      2.643468    90A      2.696201  
      91A      2.766638    92A      2.784564    93A      2.793963  
      94A      2.989117    95A      3.041925    96A      3.072404  
      97A      3.143049    98A      3.287963    99A      3.411733  
     100A      3.569495   101A      4.388581   102A      4.563969  
     103A      4.700030   104A      4.720678   105A      4.856357  
     106A      4.923203  

    Final Occupation by Irrep:
              A 
    DOCC [    24 ]

  Energy converged.

  @DF-RHF Final Energy:  -305.78317674118495

   => Energetics <=

    Nuclear Repulsion Energy =            255.4767222065553938
    One-Electron Energy =                -922.8959510699943394
    Two-Electron Energy =                 361.6360521222536590
    DFT Exchange-Correlation Energy =       0.0000000000000000
    Empirical Dispersion Energy =           0.0000000000000000
    PCM Polarization Energy =               0.0000000000000000
    EFP Energy =                            0.0000000000000000
    Total Energy =                       -305.7831767411853434

    Alert: EFP and PCM quantities not currently incorporated into SCF psivars.

Properties will be evaluated at   0.000000,   0.000000,   0.000000 Bohr
  ==> Properties <==


Properties computed using the SCF density matrix

  Nuclear Dipole Moment: (a.u.)
     X:    -4.1809      Y:    -8.3202      Z:     2.8713

  Electronic Dipole Moment: (a.u.)
     X:     3.4453      Y:     6.4959      Z:    -2.5827

  Dipole Moment: (a.u.)
     X:    -0.7355      Y:    -1.8243      Z:     0.2885     Total:     1.9880

  Dipole Moment: (Debye)
     X:    -1.8696      Y:    -4.6369      Z:     0.7334     Total:     5.0531


  Saving occupied orbitals to File 180.

*** tstop() called on cx1-1-2-4.cx1.hpc.ic.ac.uk at Tue Jul  5 16:34:21 2016
Module time:
	user time   =       5.80 seconds =       0.10 minutes
	system time =       0.03 seconds =       0.00 minutes
	total time  =          6 seconds =       0.10 minutes
Total time:
	user time   =       5.80 seconds =       0.10 minutes
	system time =       0.03 seconds =       0.00 minutes
	total time  =          6 seconds =       0.10 minutes


Properties will be evaluated at   0.000000,   0.000000,   0.000000 Bohr

Properties computed using the  density matrix

  Nuclear Dipole Moment: (a.u.)
     X:    -4.1809      Y:    -8.3202      Z:     2.8713

  Electronic Dipole Moment: (a.u.)
     X:     3.4453      Y:     6.4959      Z:    -2.5827

  Dipole Moment: (a.u.)
     X:    -0.7355      Y:    -1.8243      Z:     0.2885     Total:     1.9880

  Dipole Moment: (Debye)
     X:    -1.8696      Y:    -4.6369      Z:     0.7334     Total:     5.0531

  Quadrupole Moment: (Debye Ang)
    XX:   -36.9997     YY:   -42.4200     ZZ:   -35.8060
    XY:    -2.0570     XZ:     0.4352     YZ:     2.1040

  Traceless Quadrupole Moment: (Debye Ang)
    XX:     1.4088     YY:    -4.0114     ZZ:     2.6026
    XY:    -2.0570     XZ:     0.4352     YZ:     2.1040

  Mulliken Charges: (a.u.)
   Center  Symbol    Alpha    Beta     Spin     Total
       1     O     4.27183  4.27183  0.00000 -0.54366
       2     C     2.59915  2.59915  0.00000  0.80170
       3     C     3.33037  3.33037  0.00000 -0.66074
       4     O     4.30179  4.30179  0.00000 -0.60358
       5     H     0.40144  0.40144  0.00000  0.19712
       6     H     0.38933  0.38933  0.00000  0.22134
       7     H     0.39532  0.39532  0.00000  0.20937
       8     C     3.01358  3.01358  0.00000 -0.02716
       9     C     3.25688  3.25688  0.00000 -0.51377
      10     H     0.39252  0.39252  0.00000  0.21496
      11     H     0.41411  0.41411  0.00000  0.17178
      12     H     0.41324  0.41324  0.00000  0.17352
      13     H     0.40498  0.40498  0.00000  0.19005
      14     H     0.41546  0.41546  0.00000  0.16907

   Total alpha = 24.00000, Total beta = 24.00000, Total charge =  0.00000


*** PSI4 exiting successfully. Buy a developer a beer!
