    -----------------------------------------------------------------------
          Psi4: An Open-Source Ab Initio Electronic Structure Package
                              Psi4 (no tag) Driver

                          Git: Rev {detached?}  

    J. M. Turney, A. C. Simmonett, R. M. Parrish, E. G. Hohenstein,
    F. A. Evangelista, J. T. Fermann, B. J. Mintz, L. A. Burns, J. J. Wilke,
    M. L. Abrams, N. J. Russ, M. L. Leininger, C. L. Janssen, E. T. Seidl,
    W. D. Allen, H. F. Schaefer, R. A. King, E. F. Valeev, C. D. Sherrill,
    and T. D. Crawford, WIREs Comput. Mol. Sci. 2, 556-565 (2012)
    (doi: 10.1002/wcms.93)

                         Additional Contributions by
    A. E. DePrince, M. Saitow, U. Bozkaya, A. Yu. Sokolov
    -----------------------------------------------------------------------


    Psi4 started on: Tue Jul  5 16:34:01 2016

    Process ID:   5794
    PSI4DATADIR: /export131/home/mjharvey/miniconda3/share
    Memory level set to 256.000 MB

  ==> Input File <==

--------------------------------------------------------------------------
set {
	reference rhf
	basis 6-31G*
}


set_num_threads( 1 )
memory 2 gb

molecule MOL {
0 1

H	 -1.836216	 1.387520	 -0.000064
C	 -1.301823	 0.443321	 -0.000031
O	 -0.003969	 0.658512	 0.000451
O	 -1.829879	 -0.616434	 -0.000857
C	 0.801812	 -0.192688	 0.814922
C	 0.488261	 0.131528	 2.259530
H	 1.842584	 -0.016413	 0.580321
H	 0.574372	 -1.222369	 0.575501
H	 0.714629	 1.168638	 2.479064
H	 1.082878	 -0.496186	 2.914998
H	 -0.559703	 -0.043104	 2.474383

	symmetry c1
}
set optking {
	frozen_dihedral = ("
		7 5 3 2
	")
}

ee = energy('scf')
oeprop('DIPOLE', 'QUADRUPOLE', 'MULLIKEN_CHARGES')
f=open( 'psi4out.xyz', 'w' )
f.write( "11  " )
f.write( str(ee) + "\n" )
f.write( MOL.save_string_xyz() )
f.close()
--------------------------------------------------------------------------

  Memory set to   2.000 GiB by Python script.

*** tstart() called on cx1-3-6-1.cx1.hpc.ic.ac.uk
*** at Tue Jul  5 16:34:02 2016


         ---------------------------------------------------------
                                   SCF
            by Justin Turney, Rob Parrish, and Andy Simmonett
                              RHF Reference
                        1 Threads,   2000 MiB Core
         ---------------------------------------------------------

  ==> Geometry <==

    Molecular point group: c1
    Full point group: C1

    Geometry (in Angstrom), charge = 0, multiplicity = 1:

       Center              X                  Y                   Z               Mass       
    ------------   -----------------  -----------------  -----------------  -----------------
           H         -1.462881716251     1.305896506762    -0.621125263005     1.007825032070
           C         -0.928488716251     0.361697506762    -0.621092263005    12.000000000000
           O          0.369365283749     0.576888506762    -0.620610263005    15.994914619560
           O         -1.456544716251    -0.698057493238    -0.621918263005    15.994914619560
           C          1.175146283749    -0.274311493238     0.193860736995    12.000000000000
           C          0.861595283749     0.049904506762     1.638468736995    12.000000000000
           H          2.215918283749    -0.098036493238    -0.040740263005     1.007825032070
           H          0.947706283749    -1.303992493238    -0.045560263005     1.007825032070
           H          1.087963283749     1.087014506762     1.858002736995     1.007825032070
           H          1.456212283749    -0.577809493238     2.293936736995     1.007825032070
           H         -0.186368716251    -0.124727493238     1.853321736995     1.007825032070

  Running in c1 symmetry.

  Rotational constants: A =      0.34784  B =      0.12578  C =      0.11245 [cm^-1]
  Rotational constants: A =  10428.04933  B =   3770.66745  C =   3371.25840 [MHz]
  Nuclear repulsion =  182.956708529087678

  Charge       = 0
  Multiplicity = 1
  Electrons    = 40
  Nalpha       = 20
  Nbeta        = 20

  ==> Algorithm <==

  SCF Algorithm Type is DF.
  DIIS enabled.
  MOM disabled.
  Fractional occupation disabled.
  Guess Type is CORE.
  Energy threshold   = 1.00e-06
  Density threshold  = 1.00e-06
  Integral threshold = 0.00e+00

  ==> Primary Basis <==

  Basis Set: 6-31G*
    Number of shells: 42
    Number of basis function: 87
    Number of Cartesian functions: 87
    Spherical Harmonics?: false
    Max angular momentum: 2

  ==> Pre-Iterations <==

   -------------------------------------------------------
    Irrep   Nso     Nmo     Nalpha   Nbeta   Ndocc  Nsocc
   -------------------------------------------------------
     A         87      87       0       0       0       0
   -------------------------------------------------------
    Total      87      87      20      20      20       0
   -------------------------------------------------------

 OEINTS: Overlap, kinetic, potential, dipole, and quadrupole integrals
         stored in file 35.

  ==> Integral Setup <==

  ==> DFJK: Density-Fitted J/K Matrices <==

    J tasked:                  Yes
    K tasked:                  Yes
    wK tasked:                  No
    OpenMP threads:              1
    Integrals threads:           1
    Memory (MB):              1430
    Algorithm:                Core
    Integral Cache:           NONE
    Schwarz Cutoff:          1E-12
    Fitting Condition:       1E-12

   => Auxiliary Basis Set <=

  Basis Set: 
    Number of shells: 174
    Number of basis function: 555
    Number of Cartesian functions: 555
    Spherical Harmonics?: false
    Max angular momentum: 3

  Minimum eigenvalue in the overlap matrix is 4.8711666203E-03.
  Using Symmetric Orthogonalization.
  SCF Guess: Core (One-Electron) Hamiltonian.

  ==> Iterations <==

                           Total Energy        Delta E     RMS |[F,P]|

   @DF-RHF iter   1:  -216.72797835709684   -2.16728e+02   8.37567e-02 
   @DF-RHF iter   2:  -161.68959355056973    5.50384e+01   9.00652e-02 DIIS
   @DF-RHF iter   3:  -245.58371619148767   -8.38941e+01   3.72130e-02 DIIS
   @DF-RHF iter   4:  -217.99076816698823    2.75929e+01   8.99946e-02 DIIS
   @DF-RHF iter   5:  -238.91611648742548   -2.09253e+01   5.84957e-02 DIIS
   @DF-RHF iter   6:  -260.68705625142911   -2.17709e+01   3.49000e-02 DIIS
   @DF-RHF iter   7:  -263.19955741752881   -2.51250e+00   2.35456e-02 DIIS
   @DF-RHF iter   8:  -266.39604037990733   -3.19648e+00   1.05657e-02 DIIS
   @DF-RHF iter   9:  -266.76365833452769   -3.67618e-01   3.15340e-03 DIIS
   @DF-RHF iter  10:  -266.80279120524546   -3.91329e-02   1.70814e-03 DIIS
   @DF-RHF iter  11:  -266.81456078080856   -1.17696e-02   7.99356e-04 DIIS
   @DF-RHF iter  12:  -266.81773600068402   -3.17522e-03   2.01021e-04 DIIS
   @DF-RHF iter  13:  -266.81791231814680   -1.76317e-04   6.29148e-05 DIIS
   @DF-RHF iter  14:  -266.81793897330613   -2.66552e-05   1.67511e-05 DIIS
   @DF-RHF iter  15:  -266.81794211720450   -3.14390e-06   5.43801e-06 DIIS
   @DF-RHF iter  16:  -266.81794258363209   -4.66428e-07   1.89242e-06 DIIS
   @DF-RHF iter  17:  -266.81794261985635   -3.62243e-08   5.91787e-07 DIIS

  ==> Post-Iterations <==

    Orbital Energies (a.u.)
    -----------------------

    Doubly Occupied:                                                      

       1A    -20.604121     2A    -20.560754     3A    -11.379537  
       4A    -11.295712     5A    -11.228070     6A     -1.474662  
       7A     -1.375206     8A     -1.050225     9A     -0.914503  
      10A     -0.796743    11A     -0.743529    12A     -0.687790  
      13A     -0.666982    14A     -0.623912    15A     -0.564269  
      16A     -0.549419    17A     -0.542563    18A     -0.498943  
      19A     -0.462377    20A     -0.449767  

    Virtual:                                                              

      21A      0.181097    22A      0.244483    23A      0.278496  
      24A      0.287117    25A      0.300006    26A      0.308679  
      27A      0.336811    28A      0.348658    29A      0.405879  
      30A      0.459485    31A      0.516026    32A      0.703774  
      33A      0.709450    34A      0.733749    35A      0.758534  
      36A      0.798441    37A      0.854602    38A      0.901517  
      39A      0.964744    40A      0.995161    41A      1.022688  
      42A      1.094031    43A      1.108374    44A      1.118119  
      45A      1.153146    46A      1.179433    47A      1.182088  
      48A      1.226766    49A      1.258211    50A      1.271153  
      51A      1.323239    52A      1.362349    53A      1.405574  
      54A      1.517548    55A      1.596070    56A      1.674568  
      57A      1.734019    58A      1.760799    59A      1.807735  
      60A      1.915126    61A      1.981865    62A      2.047253  
      63A      2.122517    64A      2.135992    65A      2.221390  
      66A      2.227567    67A      2.249632    68A      2.334495  
      69A      2.424881    70A      2.515793    71A      2.562372  
      72A      2.587306    73A      2.658375    74A      2.736748  
      75A      2.785362    76A      2.847695    77A      2.944328  
      78A      3.017476    79A      3.117973    80A      3.300998  
      81A      3.324402    82A      3.450787    83A      4.298796  
      84A      4.398212    85A      4.592714    86A      4.635249  
      87A      4.848634  

    Final Occupation by Irrep:
              A 
    DOCC [    20 ]

  Energy converged.

  @DF-RHF Final Energy:  -266.81794261985635

   => Energetics <=

    Nuclear Repulsion Energy =            182.9567085290876776
    One-Electron Energy =                -726.6112559583248185
    Two-Electron Energy =                 276.8366048093805034
    DFT Exchange-Correlation Energy =       0.0000000000000000
    Empirical Dispersion Energy =           0.0000000000000000
    PCM Polarization Energy =               0.0000000000000000
    EFP Energy =                            0.0000000000000000
    Total Energy =                       -266.8179426198566375

    Alert: EFP and PCM quantities not currently incorporated into SCF psivars.

Properties will be evaluated at   0.000000,   0.000000,   0.000000 Bohr
  ==> Properties <==


Properties computed using the SCF density matrix

  Nuclear Dipole Moment: (a.u.)
     X:     3.7995      Y:     0.2697      Z:     4.9606

  Electronic Dipole Moment: (a.u.)
     X:    -3.1251      Y:     0.2190      Z:    -4.4433

  Dipole Moment: (a.u.)
     X:     0.6744      Y:     0.4888      Z:     0.5173     Total:     0.9805

  Dipole Moment: (Debye)
     X:     1.7143      Y:     1.2423      Z:     1.3149     Total:     2.4922


  Saving occupied orbitals to File 180.

*** tstop() called on cx1-3-6-1.cx1.hpc.ic.ac.uk at Tue Jul  5 16:34:06 2016
Module time:
	user time   =       3.76 seconds =       0.06 minutes
	system time =       0.04 seconds =       0.00 minutes
	total time  =          4 seconds =       0.07 minutes
Total time:
	user time   =       3.76 seconds =       0.06 minutes
	system time =       0.04 seconds =       0.00 minutes
	total time  =          4 seconds =       0.07 minutes


Properties will be evaluated at   0.000000,   0.000000,   0.000000 Bohr

Properties computed using the  density matrix

  Nuclear Dipole Moment: (a.u.)
     X:     3.7995      Y:     0.2697      Z:     4.9606

  Electronic Dipole Moment: (a.u.)
     X:    -3.1251      Y:     0.2190      Z:    -4.4433

  Dipole Moment: (a.u.)
     X:     0.6744      Y:     0.4888      Z:     0.5173     Total:     0.9805

  Dipole Moment: (Debye)
     X:     1.7143      Y:     1.2423      Z:     1.3149     Total:     2.4922

  Quadrupole Moment: (Debye Ang)
    XX:   -30.4338     YY:   -30.8331     ZZ:   -30.0834
    XY:    -4.9412     XZ:     0.3549     YZ:    -0.9613

  Traceless Quadrupole Moment: (Debye Ang)
    XX:     0.0163     YY:    -0.3830     ZZ:     0.3667
    XY:    -4.9412     XZ:     0.3549     YZ:    -0.9613

  Mulliken Charges: (a.u.)
   Center  Symbol    Alpha    Beta     Spin     Total
       1     H     0.41567  0.41567  0.00000  0.16867
       2     C     2.72783  2.72783  0.00000  0.54434
       3     O     4.29345  4.29345  0.00000 -0.58689
       4     O     4.25481  4.25481  0.00000 -0.50961
       5     C     3.01177  3.01177  0.00000 -0.02355
       6     C     3.25933  3.25933  0.00000 -0.51867
       7     H     0.40469  0.40469  0.00000  0.19062
       8     H     0.40037  0.40037  0.00000  0.19926
       9     H     0.41074  0.41074  0.00000  0.17852
      10     H     0.41425  0.41425  0.00000  0.17150
      11     H     0.40710  0.40710  0.00000  0.18581

   Total alpha = 20.00000, Total beta = 20.00000, Total charge = -0.00000


*** PSI4 exiting successfully. Buy a developer a beer!
