    -----------------------------------------------------------------------
          Psi4: An Open-Source Ab Initio Electronic Structure Package
                              Psi4 (no tag) Driver

                          Git: Rev {detached?}  

    J. M. Turney, A. C. Simmonett, R. M. Parrish, E. G. Hohenstein,
    F. A. Evangelista, J. T. Fermann, B. J. Mintz, L. A. Burns, J. J. Wilke,
    M. L. Abrams, N. J. Russ, M. L. Leininger, C. L. Janssen, E. T. Seidl,
    W. D. Allen, H. F. Schaefer, R. A. King, E. F. Valeev, C. D. Sherrill,
    and T. D. Crawford, WIREs Comput. Mol. Sci. 2, 556-565 (2012)
    (doi: 10.1002/wcms.93)

                         Additional Contributions by
    A. E. DePrince, M. Saitow, U. Bozkaya, A. Yu. Sokolov
    -----------------------------------------------------------------------


    Psi4 started on: Tue Jul  5 16:47:21 2016

    Process ID:  13805
    PSI4DATADIR: /export131/home/mjharvey/miniconda3/share
    Memory level set to 256.000 MB

  ==> Input File <==

--------------------------------------------------------------------------
set {
	reference rhf
	basis 6-31G*
}


set_num_threads( 1 )
memory 2 gb

molecule MOL {
0 1

H	 -0.000158	 1.970498	 0.756846
O	 -0.000074	 1.880206	 -0.189275
C	 -0.000015	 0.544847	 -0.545111
C	 -0.648993	 0.372628	 -1.914473
C	 -0.649203	 -0.285920	 0.556879
H	 1.028219	 0.226045	 -0.629979
F	 0.025368	 1.058121	 -2.812738
F	 -0.676569	 -0.885912	 -2.298761
F	 -1.891206	 0.829192	 -1.907053
F	 0.024837	 -0.138126	 1.677309
F	 -0.676522	 -1.568841	 0.264051
F	 -1.891523	 0.113644	 0.777257

	symmetry c1
}
set optking {
	frozen_dihedral = ("
		7 4 3 6
	")
}

ee = energy('scf')
oeprop('DIPOLE', 'QUADRUPOLE', 'MULLIKEN_CHARGES')
f=open( 'psi4out.xyz', 'w' )
f.write( "12  " )
f.write( str(ee) + "\n" )
f.write( MOL.save_string_xyz() )
f.close()
--------------------------------------------------------------------------

  Memory set to   2.000 GiB by Python script.

*** tstart() called on cx1-3-4-4.cx1.hpc.ic.ac.uk
*** at Tue Jul  5 16:47:21 2016


         ---------------------------------------------------------
                                   SCF
            by Justin Turney, Rob Parrish, and Andy Simmonett
                              RHF Reference
                        1 Threads,   2000 MiB Core
         ---------------------------------------------------------

  ==> Geometry <==

    Molecular point group: c1
    Full point group: C1

    Geometry (in Angstrom), charge = 0, multiplicity = 1:

       Center              X                  Y                   Z               Mass       
    ------------   -----------------  -----------------  -----------------  -----------------
           H          0.661517734037     1.800138565565     1.396270449297     1.007825032070
           O          0.661601734037     1.709846565565     0.450149449297    15.994914619560
           C          0.661660734037     0.374487565565     0.094313449297    12.000000000000
           C          0.012682734037     0.202268565565    -1.275048550703    12.000000000000
           C          0.012472734037    -0.456279434435     1.196303449297    12.000000000000
           H          1.689894734037     0.055685565565     0.009445449297     1.007825032070
           F          0.687043734037     0.887761565565    -2.173313550703    18.998403224000
           F         -0.014893265963    -1.056271434435    -1.659336550703    18.998403224000
           F         -1.229530265963     0.658832565565    -1.267628550703    18.998403224000
           F          0.686512734037    -0.308485434435     2.316733449297    18.998403224000
           F         -0.014846265963    -1.739200434435     0.903475449297    18.998403224000
           F         -1.229847265963    -0.056715434435     1.416681449297    18.998403224000

  Running in c1 symmetry.

  Rotational constants: A =      0.07195  B =      0.03579  C =      0.03158 [cm^-1]
  Rotational constants: A =   2156.95736  B =   1072.91214  C =    946.66284 [MHz]
  Nuclear repulsion =  669.946771565578842

  Charge       = 0
  Multiplicity = 1
  Electrons    = 82
  Nalpha       = 41
  Nbeta        = 41

  ==> Algorithm <==

  SCF Algorithm Type is DF.
  DIIS enabled.
  MOM disabled.
  Fractional occupation disabled.
  Guess Type is CORE.
  Energy threshold   = 1.00e-06
  Density threshold  = 1.00e-06
  Integral threshold = 0.00e+00

  ==> Primary Basis <==

  Basis Set: 6-31G*
    Number of shells: 64
    Number of basis function: 154
    Number of Cartesian functions: 154
    Spherical Harmonics?: false
    Max angular momentum: 2

  ==> Pre-Iterations <==

   -------------------------------------------------------
    Irrep   Nso     Nmo     Nalpha   Nbeta   Ndocc  Nsocc
   -------------------------------------------------------
     A        154     154       0       0       0       0
   -------------------------------------------------------
    Total     154     154      41      41      41       0
   -------------------------------------------------------

 OEINTS: Overlap, kinetic, potential, dipole, and quadrupole integrals
         stored in file 35.

  ==> Integral Setup <==

  ==> DFJK: Density-Fitted J/K Matrices <==

    J tasked:                  Yes
    K tasked:                  Yes
    wK tasked:                  No
    OpenMP threads:              1
    Integrals threads:           1
    Memory (MB):              1430
    Algorithm:                Core
    Integral Cache:           NONE
    Schwarz Cutoff:          1E-12
    Fitting Condition:       1E-12

   => Auxiliary Basis Set <=

  Basis Set: 
    Number of shells: 258
    Number of basis function: 860
    Number of Cartesian functions: 860
    Spherical Harmonics?: false
    Max angular momentum: 3

  Minimum eigenvalue in the overlap matrix is 1.6637134631E-03.
  Using Symmetric Orthogonalization.
  SCF Guess: Core (One-Electron) Hamiltonian.

  ==> Iterations <==

                           Total Energy        Delta E     RMS |[F,P]|

   @DF-RHF iter   1:  -701.31231021958877   -7.01312e+02   6.77628e-02 
   @DF-RHF iter   2:  -553.86163966374500    1.47451e+02   9.34183e-02 DIIS
   @DF-RHF iter   3:  -741.41068616105701   -1.87549e+02   4.44447e-02 DIIS
   @DF-RHF iter   4:  -689.84733798527338    5.15633e+01   6.05520e-02 DIIS
   @DF-RHF iter   5:  -783.32201085261579   -9.34747e+01   1.77175e-02 DIIS
   @DF-RHF iter   6:  -786.14211157230181   -2.82010e+00   3.82737e-03 DIIS
   @DF-RHF iter   7:  -786.26129290208780   -1.19181e-01   9.47866e-04 DIIS
   @DF-RHF iter   8:  -786.27127819860095   -9.98530e-03   2.64793e-04 DIIS
   @DF-RHF iter   9:  -786.27214447908466   -8.66280e-04   9.36593e-05 DIIS
   @DF-RHF iter  10:  -786.27225658601299   -1.12107e-04   2.40060e-05 DIIS
   @DF-RHF iter  11:  -786.27226407105707   -7.48504e-06   7.96566e-06 DIIS
   @DF-RHF iter  12:  -786.27226497835488   -9.07298e-07   2.28520e-06 DIIS
   @DF-RHF iter  13:  -786.27226505396163   -7.56067e-08   7.22878e-07 DIIS

  ==> Post-Iterations <==

    Orbital Energies (a.u.)
    -----------------------

    Doubly Occupied:                                                      

       1A    -26.375852     2A    -26.365857     3A    -26.361183  
       4A    -26.359540     5A    -26.353141     6A    -26.347887  
       7A    -20.613727     8A    -11.532098     9A    -11.523458  
      10A    -11.348891    11A     -1.769656    12A     -1.754069  
      13A     -1.669440    14A     -1.660403    15A     -1.653499  
      16A     -1.646032    17A     -1.433691    18A     -1.102294  
      19A     -0.998582    20A     -0.936230    21A     -0.869262  
      22A     -0.861925    23A     -0.855175    24A     -0.840436  
      25A     -0.831557    26A     -0.793965    27A     -0.750002  
      28A     -0.735155    29A     -0.718412    30A     -0.716894  
      31A     -0.710601    32A     -0.689217    33A     -0.684558  
      34A     -0.668233    35A     -0.666794    36A     -0.664331  
      37A     -0.651125    38A     -0.645769    39A     -0.618666  
      40A     -0.546254    41A     -0.502059  

    Virtual:                                                              

      42A      0.209145    43A      0.247901    44A      0.306699  
      45A      0.340390    46A      0.349559    47A      0.392958  
      48A      0.451297    49A      0.464996    50A      0.469879  
      51A      0.524354    52A      0.539983    53A      0.661905  
      54A      0.675961    55A      0.712129    56A      0.733545  
      57A      0.744613    58A      0.791082    59A      0.812441  
      60A      0.871282    61A      0.902361    62A      0.946787  
      63A      1.045150    64A      1.099088    65A      1.126434  
      66A      1.199446    67A      1.222707    68A      1.259501  
      69A      1.271513    70A      1.310007    71A      1.346218  
      72A      1.351139    73A      1.380016    74A      1.406187  
      75A      1.451505    76A      1.461345    77A      1.514525  
      78A      1.531548    79A      1.578523    80A      1.589593  
      81A      1.604504    82A      1.611725    83A      1.622109  
      84A      1.628665    85A      1.655279    86A      1.658064  
      87A      1.662940    88A      1.674229    89A      1.706769  
      90A      1.738126    91A      1.743576    92A      1.815593  
      93A      1.870464    94A      1.886913    95A      1.914368  
      96A      1.940700    97A      1.969706    98A      1.981535  
      99A      1.993631   100A      2.095278   101A      2.110891  
     102A      2.118150   103A      2.121049   104A      2.132102  
     105A      2.143069   106A      2.153334   107A      2.160690  
     108A      2.187082   109A      2.281018   110A      2.296256  
     111A      2.321608   112A      2.329850   113A      2.340484  
     114A      2.375750   115A      2.391421   116A      2.397500  
     117A      2.407934   118A      2.419073   119A      2.439356  
     120A      2.486167   121A      2.527016   122A      2.552203  
     123A      2.559494   124A      2.609554   125A      2.658598  
     126A      2.681160   127A      2.722722   128A      2.854347  
     129A      2.883918   130A      2.894976   131A      2.939227  
     132A      3.058997   133A      3.152898   134A      3.178428  
     135A      3.194581   136A      3.228337   137A      3.266120  
     138A      3.346490   139A      3.397504   140A      3.415158  
     141A      3.448368   142A      3.455111   143A      3.463763  
     144A      3.479535   145A      4.180655   146A      4.625701  
     147A      4.752844   148A      4.823450   149A      5.036716  
     150A      5.099878   151A      5.270505   152A      5.638779  
     153A      5.796326   154A      6.366721  

    Final Occupation by Irrep:
              A 
    DOCC [    41 ]

  Energy converged.

  @DF-RHF Final Energy:  -786.27226505396163

   => Energetics <=

    Nuclear Repulsion Energy =            669.9467715655788425
    One-Electron Energy =               -2426.7867697870160555
    Two-Electron Energy =                 970.5677331674727384
    DFT Exchange-Correlation Energy =       0.0000000000000000
    Empirical Dispersion Energy =           0.0000000000000000
    PCM Polarization Energy =               0.0000000000000000
    EFP Energy =                            0.0000000000000000
    Total Energy =                       -786.2722650539645883

    Alert: EFP and PCM quantities not currently incorporated into SCF psivars.

Properties will be evaluated at   0.000000,   0.000000,   0.000000 Bohr
  ==> Properties <==


Properties computed using the SCF density matrix

  Nuclear Dipole Moment: (a.u.)
     X:     3.2599      Y:     3.2706      Z:     1.7571

  Electronic Dipole Moment: (a.u.)
     X:    -2.6382      Y:    -3.2840      Z:    -1.1072

  Dipole Moment: (a.u.)
     X:     0.6217      Y:    -0.0134      Z:     0.6499     Total:     0.8995

  Dipole Moment: (Debye)
     X:     1.5802      Y:    -0.0340      Z:     1.6520     Total:     2.2863


  Saving occupied orbitals to File 180.

*** tstop() called on cx1-3-4-4.cx1.hpc.ic.ac.uk at Tue Jul  5 16:47:38 2016
Module time:
	user time   =      15.96 seconds =       0.27 minutes
	system time =       0.19 seconds =       0.00 minutes
	total time  =         17 seconds =       0.28 minutes
Total time:
	user time   =      15.96 seconds =       0.27 minutes
	system time =       0.19 seconds =       0.00 minutes
	total time  =         17 seconds =       0.28 minutes


Properties will be evaluated at   0.000000,   0.000000,   0.000000 Bohr

Properties computed using the  density matrix

  Nuclear Dipole Moment: (a.u.)
     X:     3.2599      Y:     3.2706      Z:     1.7571

  Electronic Dipole Moment: (a.u.)
     X:    -2.6382      Y:    -3.2840      Z:    -1.1072

  Dipole Moment: (a.u.)
     X:     0.6217      Y:    -0.0134      Z:     0.6499     Total:     0.8995

  Dipole Moment: (Debye)
     X:     1.5802      Y:    -0.0340      Z:     1.6520     Total:     2.2863

  Quadrupole Moment: (Debye Ang)
    XX:   -51.7568     YY:   -55.2136     ZZ:   -52.7001
    XY:    -0.1732     XZ:     1.0719     YZ:     3.6362

  Traceless Quadrupole Moment: (Debye Ang)
    XX:     1.4667     YY:    -1.9901     ZZ:     0.5234
    XY:    -0.1732     XZ:     1.0719     YZ:     3.6362

  Mulliken Charges: (a.u.)
   Center  Symbol    Alpha    Beta     Spin     Total
       1     H     0.26362  0.26362  0.00000  0.47276
       2     O     4.36956  4.36956  0.00000 -0.73911
       3     C     3.02510  3.02510  0.00000 -0.05021
       4     C     2.43645  2.43645  0.00000  1.12710
       5     C     2.46444  2.46444  0.00000  1.07113
       6     H     0.38832  0.38832  0.00000  0.22336
       7     F     4.67552  4.67552  0.00000 -0.35105
       8     F     4.67449  4.67449  0.00000 -0.34899
       9     F     4.67610  4.67610  0.00000 -0.35219
      10     F     4.67933  4.67933  0.00000 -0.35866
      11     F     4.67258  4.67258  0.00000 -0.34515
      12     F     4.67449  4.67449  0.00000 -0.34898

   Total alpha = 41.00000, Total beta = 41.00000, Total charge =  0.00000


*** PSI4 exiting successfully. Buy a developer a beer!
