    -----------------------------------------------------------------------
          Psi4: An Open-Source Ab Initio Electronic Structure Package
                              Psi4 (no tag) Driver

                          Git: Rev {detached?}  

    J. M. Turney, A. C. Simmonett, R. M. Parrish, E. G. Hohenstein,
    F. A. Evangelista, J. T. Fermann, B. J. Mintz, L. A. Burns, J. J. Wilke,
    M. L. Abrams, N. J. Russ, M. L. Leininger, C. L. Janssen, E. T. Seidl,
    W. D. Allen, H. F. Schaefer, R. A. King, E. F. Valeev, C. D. Sherrill,
    and T. D. Crawford, WIREs Comput. Mol. Sci. 2, 556-565 (2012)
    (doi: 10.1002/wcms.93)

                         Additional Contributions by
    A. E. DePrince, M. Saitow, U. Bozkaya, A. Yu. Sokolov
    -----------------------------------------------------------------------


    Psi4 started on: Tue Jul  5 16:28:04 2016

    Process ID:  20757
    PSI4DATADIR: /export131/home/mjharvey/miniconda3/share
    Memory level set to 256.000 MB

  ==> Input File <==

--------------------------------------------------------------------------
set {
	reference rhf
	basis 6-31G*
}


set_num_threads( 1 )
memory 2 gb

molecule MOL {
0 1

H	 1.299631	 -1.205259	 -2.865254
C	 1.317749	 -0.598243	 -1.964454
C	 0.046395	 -0.817598	 -1.150414
H	 1.400800	 0.443918	 -2.252145
H	 2.211701	 -0.862812	 -1.410028
N	 -0.000257	 -0.000071	 0.054619
H	 -0.799903	 -0.556435	 -1.773271
H	 -0.068436	 -1.879003	 -0.911835
C	 -1.363055	 0.315058	 0.462241
C	 0.790874	 -0.562689	 1.141003
C	 -2.412078	 -0.285320	 -0.468531
H	 -1.482241	 1.391144	 0.451970
H	 -1.549931	 -0.001174	 1.492681
C	 1.325801	 0.500826	 2.094958
H	 1.637085	 -1.084464	 0.712246
H	 0.221118	 -1.313393	 1.696530
H	 -2.262839	 0.075384	 -1.480151
H	 -2.369300	 -1.368867	 -0.491760
H	 -3.410332	 -0.003975	 -0.144961
H	 1.939934	 1.211891	 1.553792
H	 0.530030	 1.052565	 2.583715
H	 1.931099	 0.042195	 2.871874

	symmetry c1
}
ee = energy('scf')
oeprop('DIPOLE', 'QUADRUPOLE', 'MULLIKEN_CHARGES')
f=open( 'psi4out.xyz', 'w' )
f.write( "22  " )
f.write( str(ee) + "\n" )
f.write( MOL.save_string_xyz() )
f.close()
--------------------------------------------------------------------------

  Memory set to   2.000 GiB by Python script.

*** tstart() called on cx1-3-15-2.cx1.hpc.ic.ac.uk
*** at Tue Jul  5 16:28:05 2016


         ---------------------------------------------------------
                                   SCF
            by Justin Turney, Rob Parrish, and Andy Simmonett
                              RHF Reference
                        1 Threads,   2000 MiB Core
         ---------------------------------------------------------

  ==> Geometry <==

    Molecular point group: c1
    Full point group: C1

    Geometry (in Angstrom), charge = 0, multiplicity = 1:

       Center              X                  Y                   Z               Mass       
    ------------   -----------------  -----------------  -----------------  -----------------
           H          1.342282990586    -0.992971302134    -2.886774219596     1.007825032070
           C          1.360400990586    -0.385955302134    -1.985974219596    12.000000000000
           C          0.089046990586    -0.605310302134    -1.171934219596    12.000000000000
           H          1.443451990586     0.656205697866    -2.273665219596     1.007825032070
           H          2.254352990586    -0.650524302134    -1.431548219596     1.007825032070
           N          0.042394990586     0.212216697866     0.033098780404    14.003074004780
           H         -0.757251009414    -0.344147302134    -1.794791219596     1.007825032070
           H         -0.025784009414    -1.666715302134    -0.933355219596     1.007825032070
           C         -1.320403009414     0.527345697866     0.440720780404    12.000000000000
           C          0.833525990586    -0.350401302134     1.119482780404    12.000000000000
           C         -2.369426009414    -0.073032302134    -0.490051219596    12.000000000000
           H         -1.439589009414     1.603431697866     0.430449780404     1.007825032070
           H         -1.507279009414     0.211113697866     1.471160780404     1.007825032070
           C          1.368452990586     0.713113697866     2.073437780404    12.000000000000
           H          1.679736990586    -0.872176302134     0.690725780404     1.007825032070
           H          0.263769990586    -1.101105302134     1.675009780404     1.007825032070
           H         -2.220187009414     0.287671697866    -1.501671219596     1.007825032070
           H         -2.326648009414    -1.156579302134    -0.513280219596     1.007825032070
           H         -3.367680009414     0.208312697866    -0.166481219596     1.007825032070
           H          1.982585990586     1.424178697866     1.532271780404     1.007825032070
           H          0.572681990586     1.264852697866     2.562194780404     1.007825032070
           H          1.973750990586     0.254482697866     2.850353780404     1.007825032070

  Running in c1 symmetry.

  Rotational constants: A =      0.08900  B =      0.07263  C =      0.04415 [cm^-1]
  Rotational constants: A =   2668.27159  B =   2177.44296  C =   1323.50754 [MHz]
  Nuclear repulsion =  340.022324154757484

  Charge       = 0
  Multiplicity = 1
  Electrons    = 58
  Nalpha       = 29
  Nbeta        = 29

  ==> Algorithm <==

  SCF Algorithm Type is DF.
  DIIS enabled.
  MOM disabled.
  Fractional occupation disabled.
  Guess Type is CORE.
  Energy threshold   = 1.00e-06
  Density threshold  = 1.00e-06
  Integral threshold = 0.00e+00

  ==> Primary Basis <==

  Basis Set: 6-31G*
    Number of shells: 72
    Number of basis function: 135
    Number of Cartesian functions: 135
    Spherical Harmonics?: false
    Max angular momentum: 2

  ==> Pre-Iterations <==

   -------------------------------------------------------
    Irrep   Nso     Nmo     Nalpha   Nbeta   Ndocc  Nsocc
   -------------------------------------------------------
     A        135     135       0       0       0       0
   -------------------------------------------------------
    Total     135     135      29      29      29       0
   -------------------------------------------------------

 OEINTS: Overlap, kinetic, potential, dipole, and quadrupole integrals
         stored in file 35.

  ==> Integral Setup <==

  ==> DFJK: Density-Fitted J/K Matrices <==

    J tasked:                  Yes
    K tasked:                  Yes
    wK tasked:                  No
    OpenMP threads:              1
    Integrals threads:           1
    Memory (MB):              1430
    Algorithm:                Core
    Integral Cache:           NONE
    Schwarz Cutoff:          1E-12
    Fitting Condition:       1E-12

   => Auxiliary Basis Set <=

  Basis Set: 
    Number of shells: 303
    Number of basis function: 942
    Number of Cartesian functions: 942
    Spherical Harmonics?: false
    Max angular momentum: 3

  Minimum eigenvalue in the overlap matrix is 3.6136454544E-03.
  Using Symmetric Orthogonalization.
  SCF Guess: Core (One-Electron) Hamiltonian.

  ==> Iterations <==

                           Total Energy        Delta E     RMS |[F,P]|

   @DF-RHF iter   1:  -152.79583715476116   -1.52796e+02   8.80117e-02 
   @DF-RHF iter   2:  -197.50797292783432   -4.47121e+01   5.31575e-02 DIIS
   @DF-RHF iter   3:  -239.89034273467564   -4.23824e+01   5.21747e-02 DIIS
   @DF-RHF iter   4:  -279.20048701948542   -3.93101e+01   3.12157e-02 DIIS
   @DF-RHF iter   5:  -289.17948307870847   -9.97900e+00   1.08745e-02 DIIS
   @DF-RHF iter   6:  -290.27076231819728   -1.09128e+00   2.38037e-03 DIIS
   @DF-RHF iter   7:  -290.34290986950373   -7.21476e-02   7.24157e-04 DIIS
   @DF-RHF iter   8:  -290.34920945924625   -6.29959e-03   2.36909e-04 DIIS
   @DF-RHF iter   9:  -290.34991283315321   -7.03374e-04   7.86062e-05 DIIS
   @DF-RHF iter  10:  -290.34999652653130   -8.36934e-05   2.37133e-05 DIIS
   @DF-RHF iter  11:  -290.35000430327807   -7.77675e-06   6.33188e-06 DIIS
   @DF-RHF iter  12:  -290.35000481466011   -5.11382e-07   1.26519e-06 DIIS
   @DF-RHF iter  13:  -290.35000483678857   -2.21285e-08   2.78012e-07 DIIS

  ==> Post-Iterations <==

    Orbital Energies (a.u.)
    -----------------------

    Doubly Occupied:                                                      

       1A    -15.534420     2A    -11.239650     3A    -11.239236  
       4A    -11.234131     5A    -11.211483     6A    -11.203721  
       7A    -11.202137     8A     -1.224252     9A     -1.028686  
      10A     -1.017930    11A     -0.956651    12A     -0.862826  
      13A     -0.841168    14A     -0.757511    15A     -0.657138  
      16A     -0.651959    17A     -0.621550    18A     -0.593311  
      19A     -0.583684    20A     -0.547533    21A     -0.537775  
      22A     -0.522273    23A     -0.507304    24A     -0.504388  
      25A     -0.494532    26A     -0.486735    27A     -0.464075  
      28A     -0.449420    29A     -0.335914  

    Virtual:                                                              

      30A      0.229694    31A      0.249539    32A      0.258581  
      33A      0.283741    34A      0.303898    35A      0.311127  
      36A      0.313947    37A      0.317569    38A      0.322320  
      39A      0.329922    40A      0.339011    41A      0.351308  
      42A      0.354240    43A      0.373784    44A      0.387735  
      45A      0.410767    46A      0.422381    47A      0.433842  
      48A      0.444796    49A      0.487659    50A      0.512436  
      51A      0.695738    52A      0.724161    53A      0.734635  
      54A      0.746477    55A      0.759200    56A      0.777175  
      57A      0.796376    58A      0.830768    59A      0.850083  
      60A      0.869092    61A      0.913054    62A      0.940075  
      63A      0.948143    64A      0.990596    65A      1.004390  
      66A      1.048595    67A      1.089591    68A      1.112550  
      69A      1.128753    70A      1.143311    71A      1.154984  
      72A      1.166731    73A      1.169358    74A      1.182306  
      75A      1.191392    76A      1.202969    77A      1.205631  
      78A      1.211656    79A      1.228646    80A      1.250487  
      81A      1.259175    82A      1.272526    83A      1.291460  
      84A      1.297701    85A      1.327742    86A      1.347605  
      87A      1.387979    88A      1.526002    89A      1.585233  
      90A      1.621008    91A      1.657885    92A      1.711547  
      93A      1.803129    94A      1.824427    95A      1.868926  
      96A      1.955698    97A      2.012348    98A      2.087247  
      99A      2.114278   100A      2.125412   101A      2.217200  
     102A      2.247018   103A      2.271480   104A      2.285738  
     105A      2.312900   106A      2.316661   107A      2.354367  
     108A      2.396039   109A      2.415473   110A      2.497661  
     111A      2.525753   112A      2.556581   113A      2.605408  
     114A      2.656057   115A      2.665261   116A      2.678175  
     117A      2.687947   118A      2.694684   119A      2.705048  
     120A      2.721522   121A      2.837258   122A      2.850369  
     123A      2.936435   124A      3.008775   125A      3.087083  
     126A      3.117924   127A      3.236901   128A      3.261780  
     129A      4.521655   130A      4.629516   131A      4.649073  
     132A      4.682453   133A      4.858399   134A      4.882084  
     135A      4.969511  

    Final Occupation by Irrep:
              A 
    DOCC [    29 ]

  Energy converged.

  @DF-RHF Final Energy:  -290.35000483678857

   => Energetics <=

    Nuclear Repulsion Energy =            340.0223241547574844
    One-Electron Energy =               -1065.7218025772024248
    Two-Electron Energy =                 435.3494735856554598
    DFT Exchange-Correlation Energy =       0.0000000000000000
    Empirical Dispersion Energy =           0.0000000000000000
    PCM Polarization Energy =               0.0000000000000000
    EFP Energy =                            0.0000000000000000
    Total Energy =                       -290.3500048367894806

    Alert: EFP and PCM quantities not currently incorporated into SCF psivars.

Properties will be evaluated at   0.000000,   0.000000,   0.000000 Bohr
  ==> Properties <==


Properties computed using the SCF density matrix

  Nuclear Dipole Moment: (a.u.)
     X:    -0.1237      Y:    -0.8199      Z:    -0.2714

  Electronic Dipole Moment: (a.u.)
     X:    -0.1043      Y:     0.5433      Z:     0.3116

  Dipole Moment: (a.u.)
     X:    -0.2280      Y:    -0.2767      Z:     0.0402     Total:     0.3607

  Dipole Moment: (Debye)
     X:    -0.5794      Y:    -0.7032      Z:     0.1021     Total:     0.9169


  Saving occupied orbitals to File 180.

*** tstop() called on cx1-3-15-2.cx1.hpc.ic.ac.uk at Tue Jul  5 16:28:20 2016
Module time:
	user time   =      15.18 seconds =       0.25 minutes
	system time =       0.08 seconds =       0.00 minutes
	total time  =         15 seconds =       0.25 minutes
Total time:
	user time   =      15.18 seconds =       0.25 minutes
	system time =       0.08 seconds =       0.00 minutes
	total time  =         15 seconds =       0.25 minutes


Properties will be evaluated at   0.000000,   0.000000,   0.000000 Bohr

Properties computed using the  density matrix

  Nuclear Dipole Moment: (a.u.)
     X:    -0.1237      Y:    -0.8199      Z:    -0.2714

  Electronic Dipole Moment: (a.u.)
     X:    -0.1043      Y:     0.5433      Z:     0.3116

  Dipole Moment: (a.u.)
     X:    -0.2280      Y:    -0.2767      Z:     0.0402     Total:     0.3607

  Dipole Moment: (Debye)
     X:    -0.5794      Y:    -0.7032      Z:     0.1021     Total:     0.9169

  Quadrupole Moment: (Debye Ang)
    XX:   -47.0600     YY:   -48.5637     ZZ:   -46.9870
    XY:    -0.9106     XZ:     0.4476     YZ:    -0.0175

  Traceless Quadrupole Moment: (Debye Ang)
    XX:     0.4769     YY:    -1.0268     ZZ:     0.5499
    XY:    -0.9106     XZ:     0.4476     YZ:    -0.0175

  Mulliken Charges: (a.u.)
   Center  Symbol    Alpha    Beta     Spin     Total
       1     H     0.42487  0.42487  0.00000  0.15025
       2     C     3.23230  3.23230  0.00000 -0.46459
       3     C     3.05822  3.05822  0.00000 -0.11645
       4     H     0.41680  0.41680  0.00000  0.16641
       5     H     0.42263  0.42263  0.00000  0.15475
       6     N     3.79098  3.79098  0.00000 -0.58196
       7     H     0.41663  0.41663  0.00000  0.16674
       8     H     0.43366  0.43366  0.00000  0.13268
       9     C     3.04215  3.04215  0.00000 -0.08430
      10     C     3.05953  3.05953  0.00000 -0.11907
      11     C     3.26853  3.26853  0.00000 -0.53706
      12     H     0.41874  0.41874  0.00000  0.16253
      13     H     0.42557  0.42557  0.00000  0.14886
      14     C     3.23529  3.23529  0.00000 -0.47058
      15     H     0.41899  0.41899  0.00000  0.16201
      16     H     0.43262  0.43262  0.00000  0.13476
      17     H     0.41180  0.41180  0.00000  0.17641
      18     H     0.41489  0.41489  0.00000  0.17023
      19     H     0.41558  0.41558  0.00000  0.16885
      20     H     0.41519  0.41519  0.00000  0.16962
      21     H     0.42083  0.42083  0.00000  0.15835
      22     H     0.42422  0.42422  0.00000  0.15156

   Total alpha = 29.00000, Total beta = 29.00000, Total charge = -0.00000


*** PSI4 exiting successfully. Buy a developer a beer!
