    -----------------------------------------------------------------------
          Psi4: An Open-Source Ab Initio Electronic Structure Package
                              Psi4 (no tag) Driver

                          Git: Rev {detached?}  

    J. M. Turney, A. C. Simmonett, R. M. Parrish, E. G. Hohenstein,
    F. A. Evangelista, J. T. Fermann, B. J. Mintz, L. A. Burns, J. J. Wilke,
    M. L. Abrams, N. J. Russ, M. L. Leininger, C. L. Janssen, E. T. Seidl,
    W. D. Allen, H. F. Schaefer, R. A. King, E. F. Valeev, C. D. Sherrill,
    and T. D. Crawford, WIREs Comput. Mol. Sci. 2, 556-565 (2012)
    (doi: 10.1002/wcms.93)

                         Additional Contributions by
    A. E. DePrince, M. Saitow, U. Bozkaya, A. Yu. Sokolov
    -----------------------------------------------------------------------


    Psi4 started on: Tue Jul  5 17:32:06 2016

    Process ID:  31865
    PSI4DATADIR: /export131/home/mjharvey/miniconda3/share
    Memory level set to 256.000 MB

  ==> Input File <==

--------------------------------------------------------------------------
set {
	reference rhf
	basis 6-31G*
}


set_num_threads( 1 )
memory 2 gb

molecule MOL {
0 1

H	 -3.457960	 0.166880	 1.449720
O	 -3.367910	 -0.300316	 2.267454
C	 -3.043259	 -1.643282	 2.012310
C	 -1.609705	 -1.833855	 1.529264
H	 -3.184960	 -2.163733	 2.950780
H	 -3.740919	 -2.074362	 1.295219
C	 -0.549478	 -1.522210	 2.588351
H	 -1.494262	 -2.859316	 1.187988
H	 -1.455542	 -1.192057	 0.663414
C	 -0.486874	 -0.033711	 2.942284
H	 0.421689	 -1.850839	 2.228903
H	 -0.760215	 -2.095459	 3.491300
C	 -1.847119	 0.624388	 3.201089
H	 0.149568	 0.100253	 3.815120
H	 0.002055	 0.495574	 2.127111
C	 -2.758572	 0.724036	 1.974793
H	 -2.362334	 0.052955	 3.970396
H	 -1.691964	 1.618760	 3.617010
C	 -4.141516	 1.289981	 2.304355
H	 -2.872289	 -0.263907	 1.530780
H	 -2.295880	 1.348431	 1.214300
C	 -5.051143	 1.396504	 1.080878
H	 -4.617951	 0.662159	 3.054246
H	 -4.029437	 2.273042	 2.757030
H	 -5.209412	 0.423598	 0.624119
H	 -6.023745	 1.798721	 1.347152
H	 -4.619420	 2.048199	 0.326376

	symmetry c1
}
set optking {
	frozen_dihedral = ("
		14 10 7 4,
		14 10 13 16,
		10 7 4 8,
		10 13 16 20,
		20 16 19 22,
		4 3 2 1
	")
}

ee = energy('scf')
oeprop('DIPOLE', 'QUADRUPOLE', 'MULLIKEN_CHARGES')
f=open( 'psi4out.xyz', 'w' )
f.write( "27  " )
f.write( str(ee) + "\n" )
f.write( MOL.save_string_xyz() )
f.close()
--------------------------------------------------------------------------

  Memory set to   2.000 GiB by Python script.

*** tstart() called on cx1-3-4-2.cx1.hpc.ic.ac.uk
*** at Tue Jul  5 17:32:06 2016


         ---------------------------------------------------------
                                   SCF
            by Justin Turney, Rob Parrish, and Andy Simmonett
                              RHF Reference
                        1 Threads,   2000 MiB Core
         ---------------------------------------------------------

  ==> Geometry <==

    Molecular point group: c1
    Full point group: C1

    Geometry (in Angstrom), charge = 0, multiplicity = 1:

       Center              X                  Y                   Z               Mass       
    ------------   -----------------  -----------------  -----------------  -----------------
           H         -0.881158148433     0.307534970330    -0.746549447544     1.007825032070
           O         -0.791108148433    -0.159661029670     0.071184552456    15.994914619560
           C         -0.466457148433    -1.502627029670    -0.183959447544    12.000000000000
           C          0.967096851567    -1.693200029670    -0.667005447544    12.000000000000
           H         -0.608158148433    -2.023078029670     0.754510552456     1.007825032070
           H         -1.164117148433    -1.933707029670    -0.901050447544     1.007825032070
           C          2.027323851567    -1.381555029670     0.392081552456    12.000000000000
           H          1.082539851567    -2.718661029670    -1.008281447544     1.007825032070
           H          1.121259851567    -1.051402029670    -1.532855447544     1.007825032070
           C          2.089927851567     0.106943970330     0.746014552456    12.000000000000
           H          2.998490851567    -1.710184029670     0.032633552456     1.007825032070
           H          1.816586851567    -1.954804029670     1.295030552456     1.007825032070
           C          0.729682851567     0.765042970330     1.004819552456    12.000000000000
           H          2.726369851567     0.240907970330     1.618850552456     1.007825032070
           H          2.578856851567     0.636228970330    -0.069158447544     1.007825032070
           C         -0.181770148433     0.864690970330    -0.221476447544    12.000000000000
           H          0.214467851567     0.193609970330     1.774126552456     1.007825032070
           H          0.884837851567     1.759414970330     1.420740552456     1.007825032070
           C         -1.564714148433     1.430635970330     0.108085552456    12.000000000000
           H         -0.295487148433    -0.123252029670    -0.665489447544     1.007825032070
           H          0.280921851567     1.489085970330    -0.981969447544     1.007825032070
           C         -2.474341148433     1.537158970330    -1.115391447544    12.000000000000
           H         -2.041149148433     0.802813970330     0.857976552456     1.007825032070
           H         -1.452635148433     2.413696970330     0.560760552456     1.007825032070
           H         -2.632610148433     0.564252970330    -1.572150447544     1.007825032070
           H         -3.446943148433     1.939375970330    -0.849117447544     1.007825032070
           H         -2.042618148433     2.188853970330    -1.869893447544     1.007825032070

  Running in c1 symmetry.

  Rotational constants: A =      0.10420  B =      0.03902  C =      0.03179 [cm^-1]
  Rotational constants: A =   3123.76527  B =   1169.79320  C =    953.09238 [MHz]
  Nuclear repulsion =  558.893365823974591

  Charge       = 0
  Multiplicity = 1
  Electrons    = 74
  Nalpha       = 37
  Nbeta        = 37

  ==> Algorithm <==

  SCF Algorithm Type is DF.
  DIIS enabled.
  MOM disabled.
  Fractional occupation disabled.
  Guess Type is CORE.
  Energy threshold   = 1.00e-06
  Density threshold  = 1.00e-06
  Integral threshold = 0.00e+00

  ==> Primary Basis <==

  Basis Set: 6-31G*
    Number of shells: 90
    Number of basis function: 171
    Number of Cartesian functions: 171
    Spherical Harmonics?: false
    Max angular momentum: 2

  ==> Pre-Iterations <==

   -------------------------------------------------------
    Irrep   Nso     Nmo     Nalpha   Nbeta   Ndocc  Nsocc
   -------------------------------------------------------
     A        171     171       0       0       0       0
   -------------------------------------------------------
    Total     171     171      37      37      37       0
   -------------------------------------------------------

 OEINTS: Overlap, kinetic, potential, dipole, and quadrupole integrals
         stored in file 35.

  ==> Integral Setup <==

  ==> DFJK: Density-Fitted J/K Matrices <==

    J tasked:                  Yes
    K tasked:                  Yes
    wK tasked:                  No
    OpenMP threads:              1
    Integrals threads:           1
    Memory (MB):              1430
    Algorithm:                Core
    Integral Cache:           NONE
    Schwarz Cutoff:          1E-12
    Fitting Condition:       1E-12

   => Auxiliary Basis Set <=

  Basis Set: 
    Number of shells: 378
    Number of basis function: 1179
    Number of Cartesian functions: 1179
    Spherical Harmonics?: false
    Max angular momentum: 3

  Minimum eigenvalue in the overlap matrix is 1.5948250904E-03.
  Using Symmetric Orthogonalization.
  SCF Guess: Core (One-Electron) Hamiltonian.

  ==> Iterations <==

                           Total Energy        Delta E     RMS |[F,P]|

   @DF-RHF iter   1:  -218.12221806126365   -2.18122e+02   7.73363e-02 
   @DF-RHF iter   2:  -225.97792407445991   -7.85571e+00   5.56689e-02 DIIS
   @DF-RHF iter   3:  -313.61860103737274   -8.76407e+01   5.00904e-02 DIIS
   @DF-RHF iter   4:  -371.20357555700468   -5.75850e+01   2.86160e-02 DIIS
   @DF-RHF iter   5:  -345.18522105555803    2.60184e+01   3.70900e-02 DIIS
   @DF-RHF iter   6:  -386.44803173208584   -4.12628e+01   6.12120e-03 DIIS
   @DF-RHF iter   7:  -387.04569923085455   -5.97667e-01   2.37081e-03 DIIS
   @DF-RHF iter   8:  -387.13183426570492   -8.61350e-02   7.65625e-04 DIIS
   @DF-RHF iter   9:  -387.14732622904262   -1.54920e-02   2.27615e-04 DIIS
   @DF-RHF iter  10:  -387.14942068634582   -2.09446e-03   1.05087e-04 DIIS
   @DF-RHF iter  11:  -387.14996497988432   -5.44294e-04   4.86370e-05 DIIS
   @DF-RHF iter  12:  -387.15012400933733   -1.59029e-04   1.90643e-05 DIIS
   @DF-RHF iter  13:  -387.15014909307922   -2.50837e-05   7.92415e-06 DIIS
   @DF-RHF iter  14:  -387.15015230593872   -3.21286e-06   2.50601e-06 DIIS
   @DF-RHF iter  15:  -387.15015272032235   -4.14384e-07   6.35849e-07 DIIS

  ==> Post-Iterations <==

    Orbital Energies (a.u.)
    -----------------------

    Doubly Occupied:                                                      

       1A    -20.599553     2A    -11.318175     3A    -11.270456  
       4A    -11.242147     5A    -11.225239     6A    -11.209640  
       7A    -11.209100     8A    -11.204748     9A    -11.185118  
      10A     -1.805199    11A     -1.172214    12A     -1.089952  
      13A     -1.032390    14A     -1.028007    15A     -0.945350  
      16A     -0.937175    17A     -0.864161    18A     -0.793508  
      19A     -0.766115    20A     -0.753435    21A     -0.704887  
      22A     -0.651516    23A     -0.624023    24A     -0.602609  
      25A     -0.584585    26A     -0.565815    27A     -0.560733  
      28A     -0.544119    29A     -0.506640    30A     -0.505760  
      31A     -0.491004    32A     -0.474869    33A     -0.459461  
      34A     -0.453817    35A     -0.411165    36A     -0.396358  
      37A     -0.130446  

    Virtual:                                                              

      38A      0.208987    39A      0.233475    40A      0.240077  
      41A      0.259994    42A      0.274646    43A      0.288657  
      44A      0.293489    45A      0.296243    46A      0.302402  
      47A      0.308761    48A      0.330746    49A      0.335561  
      50A      0.346266    51A      0.350148    52A      0.357936  
      53A      0.362433    54A      0.372515    55A      0.389058  
      56A      0.405272    57A      0.417229    58A      0.430357  
      59A      0.446040    60A      0.468110    61A      0.493962  
      62A      0.535458    63A      0.557372    64A      0.689941  
      65A      0.705777    66A      0.717775    67A      0.736776  
      68A      0.746145    69A      0.769055    70A      0.791240  
      71A      0.812475    72A      0.838974    73A      0.857995  
      74A      0.884680    75A      0.903143    76A      0.925479  
      77A      0.944695    78A      0.964105    79A      0.976072  
      80A      0.997434    81A      1.029217    82A      1.039973  
      83A      1.060387    84A      1.091656    85A      1.104554  
      86A      1.117141    87A      1.126436    88A      1.133313  
      89A      1.140521    90A      1.156030    91A      1.178476  
      92A      1.180816    93A      1.185626    94A      1.187946  
      95A      1.207846    96A      1.218783    97A      1.234014  
      98A      1.237867    99A      1.252346   100A      1.266976  
     101A      1.273995   102A      1.286973   103A      1.290706  
     104A      1.307690   105A      1.385775   106A      1.431173  
     107A      1.461051   108A      1.508852   109A      1.532960  
     110A      1.589825   111A      1.623673   112A      1.678585  
     113A      1.748802   114A      1.786423   115A      1.790316  
     116A      1.831000   117A      1.875052   118A      1.899085  
     119A      1.933275   120A      1.974189   121A      2.043925  
     122A      2.089849   123A      2.138913   124A      2.160786  
     125A      2.204956   126A      2.225916   127A      2.243440  
     128A      2.256997   129A      2.278739   130A      2.307621  
     131A      2.322423   132A      2.336611   133A      2.340226  
     134A      2.380812   135A      2.420248   136A      2.461024  
     137A      2.511844   138A      2.561090   139A      2.568658  
     140A      2.592640   141A      2.630450   142A      2.640987  
     143A      2.654971   144A      2.690369   145A      2.697850  
     146A      2.725322   147A      2.747619   148A      2.773012  
     149A      2.783185   150A      2.816061   151A      2.853265  
     152A      2.945934   153A      2.977296   154A      2.990571  
     155A      3.005939   156A      3.110914   157A      3.123205  
     158A      3.170274   159A      3.212201   160A      3.358090  
     161A      3.495281   162A      3.851617   163A      4.545299  
     164A      4.613796   165A      4.695331   166A      4.781719  
     167A      4.854383   168A      4.960188   169A      5.028898  
     170A      5.044338   171A      5.159694  

    Final Occupation by Irrep:
              A 
    DOCC [    37 ]

  Energy converged.

  @DF-RHF Final Energy:  -387.15015272032235

   => Energetics <=

    Nuclear Repulsion Energy =            558.8933658239745910
    One-Electron Energy =               -1631.4482953381366315
    Two-Electron Energy =                 685.4047767938390052
    DFT Exchange-Correlation Energy =       0.0000000000000000
    Empirical Dispersion Energy =           0.0000000000000000
    PCM Polarization Energy =               0.0000000000000000
    EFP Energy =                            0.0000000000000000
    Total Energy =                       -387.1501527203230353

    Alert: EFP and PCM quantities not currently incorporated into SCF psivars.

Properties will be evaluated at   0.000000,   0.000000,   0.000000 Bohr
  ==> Properties <==


Properties computed using the SCF density matrix

  Nuclear Dipole Moment: (a.u.)
     X:    -0.8105      Y:     0.9561      Z:    -1.7639

  Electronic Dipole Moment: (a.u.)
     X:     0.5697      Y:    -2.4509      Z:     2.0129

  Dipole Moment: (a.u.)
     X:    -0.2408      Y:    -1.4948      Z:     0.2490     Total:     1.5345

  Dipole Moment: (Debye)
     X:    -0.6122      Y:    -3.7995      Z:     0.6330     Total:     3.9002


  Saving occupied orbitals to File 180.

*** tstop() called on cx1-3-4-2.cx1.hpc.ic.ac.uk at Tue Jul  5 17:32:43 2016
Module time:
	user time   =      36.63 seconds =       0.61 minutes
	system time =       0.31 seconds =       0.01 minutes
	total time  =         37 seconds =       0.62 minutes
Total time:
	user time   =      36.63 seconds =       0.61 minutes
	system time =       0.31 seconds =       0.01 minutes
	total time  =         37 seconds =       0.62 minutes


Properties will be evaluated at   0.000000,   0.000000,   0.000000 Bohr

Properties computed using the  density matrix

  Nuclear Dipole Moment: (a.u.)
     X:    -0.8105      Y:     0.9561      Z:    -1.7639

  Electronic Dipole Moment: (a.u.)
     X:     0.5697      Y:    -2.4509      Z:     2.0129

  Dipole Moment: (a.u.)
     X:    -0.2408      Y:    -1.4948      Z:     0.2490     Total:     1.5345

  Dipole Moment: (Debye)
     X:    -0.6122      Y:    -3.7995      Z:     0.6330     Total:     3.9002

  Quadrupole Moment: (Debye Ang)
    XX:   -61.0816     YY:   -60.6194     ZZ:   -63.0150
    XY:    -0.0755     XZ:    -0.2817     YZ:     2.1546

  Traceless Quadrupole Moment: (Debye Ang)
    XX:     0.4904     YY:     0.9526     ZZ:    -1.4430
    XY:    -0.0755     XZ:    -0.2817     YZ:     2.1546

  Mulliken Charges: (a.u.)
   Center  Symbol    Alpha    Beta     Spin     Total
       1     H     0.43897  0.43897  0.00000  0.12206
       2     O     4.13338  4.13338  0.00000 -0.26676
       3     C     3.06183  3.06183  0.00000 -0.12366
       4     C     3.19942  3.19942  0.00000 -0.39885
       5     H     0.38806  0.38806  0.00000  0.22389
       6     H     0.39214  0.39214  0.00000  0.21571
       7     C     3.15494  3.15494  0.00000 -0.30988
       8     H     0.40738  0.40738  0.00000  0.18525
       9     H     0.38449  0.38449  0.00000  0.23102
      10     C     3.14965  3.14965  0.00000 -0.29931
      11     H     0.41310  0.41310  0.00000  0.17380
      12     H     0.42440  0.42440  0.00000  0.15119
      13     C     3.18079  3.18079  0.00000 -0.36157
      14     H     0.42034  0.42034  0.00000  0.15931
      15     H     0.41844  0.41844  0.00000  0.16312
      16     C     3.15255  3.15255  0.00000 -0.30511
      17     H     0.43214  0.43214  0.00000  0.13572
      18     H     0.42030  0.42030  0.00000  0.15940
      19     C     3.15292  3.15292  0.00000 -0.30584
      20     H     0.43822  0.43822  0.00000  0.12355
      21     H     0.51257  0.51257  0.00000 -0.02513
      22     C     3.23190  3.23190  0.00000 -0.46380
      23     H     0.41131  0.41131  0.00000  0.17738
      24     H     0.42346  0.42346  0.00000  0.15309
      25     H     0.42314  0.42314  0.00000  0.15372
      26     H     0.42480  0.42480  0.00000  0.15040
      27     H     0.40935  0.40935  0.00000  0.18130

   Total alpha = 37.00000, Total beta = 37.00000, Total charge = -0.00000


*** PSI4 exiting successfully. Buy a developer a beer!
