
    -----------------------------------------------------------------------
          Psi4: An Open-Source Ab Initio Electronic Structure Package
                               Psi4 1.1 release

                         Git: Rev {HEAD} add49b9 


    R. M. Parrish, L. A. Burns, D. G. A. Smith, A. C. Simmonett,
    A. E. DePrince III, E. G. Hohenstein, U. Bozkaya, A. Yu. Sokolov,
    R. Di Remigio, R. M. Richard, J. F. Gonthier, A. M. James,
    H. R. McAlexander, A. Kumar, M. Saitow, X. Wang, B. P. Pritchard,
    P. Verma, H. F. Schaefer III, K. Patkowski, R. A. King, E. F. Valeev,
    F. A. Evangelista, J. M. Turney, T. D. Crawford, and C. D. Sherrill,
    J. Chem. Theory Comput. in press (2017).
    (doi: 10.1021/acs.jctc.7b00174)

    -----------------------------------------------------------------------


    Psi4 started on: Tuesday, 12 December 2017 02:37PM

    Process ID:  26876
    PSIDATADIR: /opt/acellera/miniconda3/share/psi4
    Memory:     500.0 MiB
    Threads:    1
    
  ==> Input File <==

--------------------------------------------------------------------------
set_num_threads(1)
set_memory(3145728000)

set { reference rks }
set { basis 6-31G* }

molecule MOL {
    1 1
    noreorient
    nocom
    symmetry c1
    C    0.000000   0.000000  -0.177864
    C    0.036678   1.219374   0.524165
    C    0.031764   1.213119   1.915444
    C   -0.000000  -0.000000   2.610107
    C   -0.031764  -1.213119   1.915444
    C   -0.036677  -1.219374   0.524165
    C    0.000000  -0.000000  -1.644734
    H    0.018170   2.164705  -0.010853
    H    0.042402   2.152895   2.457886
    H   -0.000000  -0.000000   3.695756
    H   -0.042402  -2.152895   2.457886
    H   -0.018170  -2.164705  -0.010853
    N   -0.712590  -0.905950  -2.308460
    N    0.712590   0.905950  -2.308461
    H    0.673432   1.006469  -3.315997
    H    1.377190   1.485970  -1.813317
    H   -1.444347  -0.607694  -2.940013
    H   -0.516849  -1.899233  -2.265536
}

set optking { frozen_dihedral = (" 1 7 13 17 ") }

set optking { dynamic_level = 1 
 geom_maxiter = 250
 print_trajectory_xyz_file = True }

energy, wfn = optimize('B3LYP-D3', return_wfn=True)

import os
os.chdir(os.environ['HTMD_PSI4_WORKDIR'])

oeprop(wfn, 'DIPOLE', 'QUADRUPOLE', 'MULLIKEN_CHARGES')

with open('psi4out.xyz', 'w') as f:
    f.write('18 ' )
    f.write('%.12f\n' % energy)
    f.write(MOL.save_string_xyz())
--------------------------------------------------------------------------
  Threads set to 1 by Python driver.

  Memory set to   2.930 GiB by Python driver.
gradient() will perform analytic gradient computation.

*** tstart() called on computer05
*** at Tue Dec 12 14:37:42 2017

   => Loading Basis Set <=

    Name: 6-31G*
    Role: ORBITAL
    Keyword: BASIS
    atoms 1-7         entry C          line   102 file /opt/acellera/miniconda3/share/psi4/basis/6-31gs.gbs 
    atoms 8-12, 15-18 entry H          line    35 file /opt/acellera/miniconda3/share/psi4/basis/6-31gs.gbs 
    atoms 13-14       entry N          line   119 file /opt/acellera/miniconda3/share/psi4/basis/6-31gs.gbs 


         ---------------------------------------------------------
                                   SCF
            by Justin Turney, Rob Parrish, and Andy Simmonett
                              RKS Reference
                        1 Threads,   3000 MiB Core
         ---------------------------------------------------------

  ==> Geometry <==

    Molecular point group: c1
    Full point group: C1

    Geometry (in Angstrom), charge = 1, multiplicity = 1:

       Center              X                  Y                   Z               Mass       
    ------------   -----------------  -----------------  -----------------  -----------------
           C          0.000000000000     0.000000000000    -0.177864000000    12.000000000000
           C          0.036678000000     1.219374000000     0.524165000000    12.000000000000
           C          0.031764000000     1.213119000000     1.915444000000    12.000000000000
           C          0.000000000000     0.000000000000     2.610107000000    12.000000000000
           C         -0.031764000000    -1.213119000000     1.915444000000    12.000000000000
           C         -0.036677000000    -1.219374000000     0.524165000000    12.000000000000
           C          0.000000000000     0.000000000000    -1.644734000000    12.000000000000
           H          0.018170000000     2.164705000000    -0.010853000000     1.007825032070
           H          0.042402000000     2.152895000000     2.457886000000     1.007825032070
           H          0.000000000000     0.000000000000     3.695756000000     1.007825032070
           H         -0.042402000000    -2.152895000000     2.457886000000     1.007825032070
           H         -0.018170000000    -2.164705000000    -0.010853000000     1.007825032070
           N         -0.712590000000    -0.905950000000    -2.308460000000    14.003074004780
           N          0.712590000000     0.905950000000    -2.308461000000    14.003074004780
           H          0.673432000000     1.006469000000    -3.315997000000     1.007825032070
           H          1.377190000000     1.485970000000    -1.813317000000     1.007825032070
           H         -1.444347000000    -0.607694000000    -2.940013000000     1.007825032070
           H         -0.516849000000    -1.899233000000    -2.265536000000     1.007825032070

  Running in c1 symmetry.

  Rotational constants: A =      0.12123  B =      0.03958  C =      0.03130 [cm^-1]
  Rotational constants: A =   3634.43481  B =   1186.61611  C =    938.36635 [MHz]
  Nuclear repulsion =  416.669136505944948

  Charge       = 1
  Multiplicity = 1
  Electrons    = 64
  Nalpha       = 32
  Nbeta        = 32

  ==> Algorithm <==

  SCF Algorithm Type is DF.
  DIIS enabled.
  MOM disabled.
  Fractional occupation disabled.
  Guess Type is SAD.
  Energy threshold   = 1.00e-08
  Density threshold  = 1.00e-08
  Integral threshold = 0.00e+00

  ==> Primary Basis <==

  Basis Set: 6-31G*
    Blend: 6-31G*
    Number of shells: 72
    Number of basis function: 153
    Number of Cartesian functions: 153
    Spherical Harmonics?: false
    Max angular momentum: 2

  ==> DFT Potential <==

   => B3LYP Composite Functional <= 

    B3LYP Hybrid-GGA Exchange-Correlation Functional (VWN1-RPA)

    P.J. Stephens et. al., J. Phys. Chem., 98, 11623-11627, 1994

    Points   =           5000
    Deriv    =              1
    GGA      =           TRUE
    Meta     =          FALSE

    X_LRC        =          FALSE
    X_Hybrid     =           TRUE
    X_Alpha      =   2.000000E-01
    X_Omega      =   0.000000E+00
    C_LRC        =          FALSE
    C_Hybrid     =          FALSE
    C_Alpha      =   0.000000E+00
    C_Omega      =   0.000000E+00

   => Exchange Functionals <=

    0.8000    B3_X
    0.2000      HF 

   => Correlation Functionals <=

    0.1900 VWN3RPA_C
    0.8100   LYP_C

   => Molecular Quadrature <=

    Radial Scheme    =       TREUTLER
    Pruning Scheme   =           FLAT
    Nuclear Scheme   =       TREUTLER

    BS radius alpha  =              1
    Pruning alpha    =              1
    Radial Points    =             75
    Spherical Points =            302
    Total Points     =         397004
    Total Blocks     =            368
    Max Points       =           4980
    Max Functions    =            151

   => -D3ZERO: Empirical Dispersion <=

    Grimme's -D3 (zero-damping) Dispersion Correction
    Grimme S.; Antony J.; Ehrlich S.; Krieg H. (2010), J. Chem. Phys., 132: 154104

        S6 =   1.000000E+00
        S8 =   1.703000E+00
       SR6 =   1.261000E+00
    ALPHA6 =   1.400000E+01

   => Loading Basis Set <=

    Name: (6-31G* AUX)
    Role: JKFIT
    Keyword: DF_BASIS_SCF
    atoms 1-7         entry C          line   120 file /opt/acellera/miniconda3/share/psi4/basis/cc-pvdz-jkfit.gbs 
    atoms 8-12, 15-18 entry H          line    50 file /opt/acellera/miniconda3/share/psi4/basis/cc-pvdz-jkfit.gbs 
    atoms 13-14       entry N          line   170 file /opt/acellera/miniconda3/share/psi4/basis/cc-pvdz-jkfit.gbs 

  ==> Pre-Iterations <==

   -------------------------------------------------------
    Irrep   Nso     Nmo     Nalpha   Nbeta   Ndocc  Nsocc
   -------------------------------------------------------
     A        153     153       0       0       0       0
   -------------------------------------------------------
    Total     153     153      32      32      32       0
   -------------------------------------------------------

  ==> Integral Setup <==

  ==> DFJK: Density-Fitted J/K Matrices <==

    J tasked:                  Yes
    K tasked:                  Yes
    wK tasked:                  No
    OpenMP threads:              1
    Integrals threads:           1
    Memory (MB):              2250
    Algorithm:                Core
    Integral Cache:           NONE
    Schwarz Cutoff:          1E-12
    Fitting Condition:       1E-12

   => Auxiliary Basis Set <=

  Basis Set: (6-31G* AUX)
    Blend: CC-PVDZ-JKFIT
    Number of shells: 297
    Number of basis function: 954
    Number of Cartesian functions: 954
    Spherical Harmonics?: false
    Max angular momentum: 3

  Minimum eigenvalue in the overlap matrix is 4.8559174525E-04.
  Using Symmetric Orthogonalization.

  SCF Guess: Superposition of Atomic Densities via on-the-fly atomic UHF.

  ==> Iterations <==

                           Total Energy        Delta E     RMS |[F,P]|

   @DF-RKS iter   0:  -379.37488417005710   -3.79375e+02   3.34341e-02 
   @DF-RKS iter   1:  -380.94620427801368   -1.57132e+00   6.28631e-03 
   @DF-RKS iter   2:  -380.80592524036484    1.40279e-01   7.14995e-03 DIIS
   @DF-RKS iter   3:  -381.41550386045162   -6.09579e-01   1.21570e-03 DIIS
   @DF-RKS iter   4:  -381.42869967351515   -1.31958e-02   5.80399e-04 DIIS
   @DF-RKS iter   5:  -381.43210379787547   -3.40412e-03   1.75079e-04 DIIS
   @DF-RKS iter   6:  -381.43243401404862   -3.30216e-04   5.55056e-05 DIIS
   @DF-RKS iter   7:  -381.43247240506440   -3.83910e-05   1.56339e-05 DIIS
   @DF-RKS iter   8:  -381.43247518538300   -2.78032e-06   2.64309e-06 DIIS
   @DF-RKS iter   9:  -381.43247525518478   -6.98018e-08   1.46412e-06 DIIS
   @DF-RKS iter  10:  -381.43247527901957   -2.38348e-08   2.86547e-07 DIIS
   @DF-RKS iter  11:  -381.43247527979401   -7.74435e-10   1.32615e-07 DIIS
   @DF-RKS iter  12:  -381.43247528001314   -2.19131e-10   4.14848e-08 DIIS
   @DF-RKS iter  13:  -381.43247528003587   -2.27374e-11   6.74226e-09 DIIS

  ==> Post-Iterations <==

    Orbital Energies (a.u.)
    -----------------------

    Doubly Occupied:                                                      

       1A    -14.582894     2A    -14.529927     3A    -10.502146  
       4A    -10.372492     5A    -10.358076     6A    -10.356802  
       7A    -10.344553     8A    -10.341247     9A    -10.341027  
      10A     -1.181068    11A     -1.084344    12A     -1.014560  
      13A     -0.925782    14A     -0.902908    15A     -0.843236  
      16A     -0.779369    17A     -0.771145    18A     -0.742002  
      19A     -0.723991    20A     -0.704013    21A     -0.673085  
      22A     -0.629900    23A     -0.605764    24A     -0.587440  
      25A     -0.577235    26A     -0.561468    27A     -0.516341  
      28A     -0.508191    29A     -0.498973    30A     -0.450775  
      31A     -0.408935    32A     -0.404839  

    Virtual:                                                              

      33A     -0.247659    34A     -0.155669    35A     -0.144168  
      36A     -0.103782    37A     -0.077463    38A     -0.050291  
      39A     -0.037506    40A     -0.019469    41A      0.006431  
      42A      0.017104    43A      0.028475    44A      0.059154  
      45A      0.070052    46A      0.092307    47A      0.127536  
      48A      0.142333    49A      0.156486    50A      0.165752  
      51A      0.207833    52A      0.239591    53A      0.297603  
      54A      0.354239    55A      0.359943    56A      0.381982  
      57A      0.394721    58A      0.402024    59A      0.414627  
      60A      0.422163    61A      0.438578    62A      0.448811  
      63A      0.456779    64A      0.470696    65A      0.473024  
      66A      0.481577    67A      0.488423    68A      0.504085  
      69A      0.519590    70A      0.537396    71A      0.563188  
      72A      0.583453    73A      0.612528    74A      0.644880  
      75A      0.662937    76A      0.678772    77A      0.688081  
      78A      0.701874    79A      0.714137    80A      0.727593  
      81A      0.743635    82A      0.753310    83A      0.767433  
      84A      0.775222    85A      0.809564    86A      0.832491  
      87A      0.851262    88A      0.892283    89A      0.955989  
      90A      0.965614    91A      0.976025    92A      1.016947  
      93A      1.035821    94A      1.090016    95A      1.140532  
      96A      1.151982    97A      1.256769    98A      1.273791  
      99A      1.283354   100A      1.304146   101A      1.324032  
     102A      1.341519   103A      1.359742   104A      1.372332  
     105A      1.428678   106A      1.466512   107A      1.505539  
     108A      1.599272   109A      1.631493   110A      1.672389  
     111A      1.707178   112A      1.726442   113A      1.755566  
     114A      1.788957   115A      1.806020   116A      1.830952  
     117A      1.894870   118A      1.949162   119A      1.955421  
     120A      1.983409   121A      1.996531   122A      2.003074  
     123A      2.014514   124A      2.045218   125A      2.123672  
     126A      2.124729   127A      2.152355   128A      2.195875  
     129A      2.205618   130A      2.311382   131A      2.354335  
     132A      2.430298   133A      2.446339   134A      2.455143  
     135A      2.487321   136A      2.520388   137A      2.552650  
     138A      2.590751   139A      2.597072   140A      2.626907  
     141A      2.731435   142A      2.840722   143A      2.979163  
     144A      3.257665   145A      3.618021   146A      3.683758  
     147A      3.912141   148A      3.945774   149A      3.963594  
     150A      4.041513   151A      4.173170   152A      4.250592  
     153A      4.544957  

    Final Occupation by Irrep:
              A 
    DOCC [    32 ]

  Energy converged.

  @DF-RKS Final Energy:  -381.43247528003587

   => Energetics <=

    Nuclear Repulsion Energy =            416.6691365059449481
    One-Electron Energy =               -1328.6031597072797013
    Two-Electron Energy =                 574.9237582391175465
    DFT Exchange-Correlation Energy =     -44.4102635978186626
    Empirical Dispersion Energy =          -0.0119467200000000
    PCM Polarization Energy =               0.0000000000000000
    EFP Energy =                            0.0000000000000000
    Total Energy =                       -381.4324752800358738



Properties will be evaluated at   0.000000,   0.000000,   0.000000 Bohr

Properties computed using the SCF density matrix

  Nuclear Dipole Moment: (a.u.)
     X:     0.1690      Y:    -0.0274      Z:    -0.1193

  Electronic Dipole Moment: (a.u.)
     X:     0.0446      Y:     0.2123      Z:    -2.0525

  Dipole Moment: (a.u.)
     X:     0.2136      Y:     0.1850      Z:    -2.1717     Total:     2.1900

  Dipole Moment: (Debye)
     X:     0.5428      Y:     0.4701      Z:    -5.5200     Total:     5.5665


*** tstop() called on computer05 at Tue Dec 12 14:39:14 2017
Module time:
	user time   =      90.68 seconds =       1.51 minutes
	system time =       0.52 seconds =       0.01 minutes
	total time  =         92 seconds =       1.53 minutes
Total time:
	user time   =      90.68 seconds =       1.51 minutes
	system time =       0.52 seconds =       0.01 minutes
	total time  =         92 seconds =       1.53 minutes

*** tstart() called on computer05
*** at Tue Dec 12 14:39:14 2017


         ------------------------------------------------------------
                                   SCF GRAD                          
                          Rob Parrish, Justin Turney,                
                       Andy Simmonett, and Alex Sokolov              
         ------------------------------------------------------------

  ==> Geometry <==

    Molecular point group: c1
    Full point group: C1

    Geometry (in Angstrom), charge = 1, multiplicity = 1:

       Center              X                  Y                   Z               Mass       
    ------------   -----------------  -----------------  -----------------  -----------------
           C          0.000000000000     0.000000000000    -0.177864000000    12.000000000000
           C          0.036678000000     1.219374000000     0.524165000000    12.000000000000
           C          0.031764000000     1.213119000000     1.915444000000    12.000000000000
           C          0.000000000000     0.000000000000     2.610107000000    12.000000000000
           C         -0.031764000000    -1.213119000000     1.915444000000    12.000000000000
           C         -0.036677000000    -1.219374000000     0.524165000000    12.000000000000
           C          0.000000000000     0.000000000000    -1.644734000000    12.000000000000
           H          0.018170000000     2.164705000000    -0.010853000000     1.007825032070
           H          0.042402000000     2.152895000000     2.457886000000     1.007825032070
           H          0.000000000000     0.000000000000     3.695756000000     1.007825032070
           H         -0.042402000000    -2.152895000000     2.457886000000     1.007825032070
           H         -0.018170000000    -2.164705000000    -0.010853000000     1.007825032070
           N         -0.712590000000    -0.905950000000    -2.308460000000    14.003074004780
           N          0.712590000000     0.905950000000    -2.308461000000    14.003074004780
           H          0.673432000000     1.006469000000    -3.315997000000     1.007825032070
           H          1.377190000000     1.485970000000    -1.813317000000     1.007825032070
           H         -1.444347000000    -0.607694000000    -2.940013000000     1.007825032070
           H         -0.516849000000    -1.899233000000    -2.265536000000     1.007825032070

  Nuclear repulsion =  416.669136505944948

  ==> Basis Set <==

  Basis Set: 6-31G*
    Blend: 6-31G*
    Number of shells: 72
    Number of basis function: 153
    Number of Cartesian functions: 153
    Spherical Harmonics?: false
    Max angular momentum: 2

  ==> DFJKGrad: Density-Fitted SCF Gradients <==

    Gradient:                    1
    J tasked:                  Yes
    K tasked:                  Yes
    wK tasked:                  No
    OpenMP threads:              1
    Integrals threads:           1
    Memory (MB):              2250
    Schwarz Cutoff:          0E+00
    Fitting Condition:       1E-12

   => Auxiliary Basis Set <=

  Basis Set: (6-31G* AUX)
    Blend: CC-PVDZ-JKFIT
    Number of shells: 297
    Number of basis function: 954
    Number of Cartesian functions: 954
    Spherical Harmonics?: false
    Max angular momentum: 3

  ==> DFT Potential <==

   => B3LYP Composite Functional <= 

    B3LYP Hybrid-GGA Exchange-Correlation Functional (VWN1-RPA)

    P.J. Stephens et. al., J. Phys. Chem., 98, 11623-11627, 1994

    Points   =           5000
    Deriv    =              1
    GGA      =           TRUE
    Meta     =          FALSE

    X_LRC        =          FALSE
    X_Hybrid     =           TRUE
    X_Alpha      =   2.000000E-01
    X_Omega      =   0.000000E+00
    C_LRC        =          FALSE
    C_Hybrid     =          FALSE
    C_Alpha      =   0.000000E+00
    C_Omega      =   0.000000E+00

   => Exchange Functionals <=

    0.8000    B3_X
    0.2000      HF 

   => Correlation Functionals <=

    0.1900 VWN3RPA_C
    0.8100   LYP_C

   => Molecular Quadrature <=

    Radial Scheme    =       TREUTLER
    Pruning Scheme   =           FLAT
    Nuclear Scheme   =       TREUTLER

    BS radius alpha  =              1
    Pruning alpha    =              1
    Radial Points    =             75
    Spherical Points =            302
    Total Points     =         397004
    Total Blocks     =            368
    Max Points       =           4980
    Max Functions    =            151


  -Total Gradient:
     Atom            X                  Y                   Z
    ------   -----------------  -----------------  -----------------
       1       -0.011750736341     0.002371713893     0.003711850186
       2       -0.003218917920    -0.001275120219    -0.001527555544
       3        0.001296460541    -0.000196744596    -0.000119376957
       4       -0.000183196847    -0.001248124448    -0.000361490251
       5       -0.000816674948     0.001525978872     0.002648449603
       6        0.001241697546     0.000484974559    -0.002992026768
       7       -0.026294184761    -0.017459223489    -0.020918475829
       8       -0.000196565064    -0.000123986572    -0.000154797920
       9        0.000375055505    -0.000049680018     0.000004444190
      10        0.000131881176    -0.000029014002     0.000003484719
      11       -0.000051327448    -0.000017121916    -0.000024648966
      12        0.001912415809    -0.000196744351    -0.000964899626
      13        0.022240224243     0.018679729905     0.028464691368
      14        0.010390375201    -0.000307243109    -0.007456169532
      15       -0.000041584634     0.004100140557     0.001948377451
      16        0.003488032436    -0.006807646471    -0.001627462421
      17       -0.005961281651     0.002221585155     0.009304556088
      18        0.007438768978    -0.001674329490    -0.009941971091


*** tstop() called on computer05 at Tue Dec 12 14:39:37 2017
Module time:
	user time   =      21.53 seconds =       0.36 minutes
	system time =       1.15 seconds =       0.02 minutes
	total time  =         23 seconds =       0.38 minutes
Total time:
	user time   =     112.21 seconds =       1.87 minutes
	system time =       1.68 seconds =       0.03 minutes
	total time  =        115 seconds =       1.92 minutes

			-----------------------------------------
			 OPTKING 2.0: for geometry optimizations 
			  - R.A. King,  Bethel University        
			-----------------------------------------
	At level 1: Red. Int., RFO, no backsteps, dynamic trust

	Internal coordinates to be generated automatically.
	Detected frag 1 with atoms:  1 2 3 4 5 6 7 8 9 10 11 12 13 14 15 16 17 18
	---Fragment 1 Bond Connectivity---
	 1 : 2 6 7
	 2 : 1 3 8
	 3 : 2 4 9
	 4 : 3 5 10
	 5 : 4 6 11
	 6 : 1 5 12
	 7 : 1 13 14
	 8 : 2
	 9 : 3
	 10 : 4
	 11 : 5
	 12 : 6
	 13 : 7 17 18
	 14 : 7 15 16
	 15 : 14
	 16 : 14
	 17 : 13
	 18 : 13

	Assuming in current code that numbering for constraints corresponds to unified fragment.
	Frozen dihedral atom list: 
	     1     7    13    17
	---Fragment 1 Geometry and Gradient---
	 C           0.0000000000        0.0000000000       -0.3361142489
	 C           0.0693113751        2.3042829136        0.9905282984
	 C           0.0600252609        2.2924626766        3.6196645829
	 C           0.0000000000        0.0000000000        4.9323874075
	 C          -0.0600252609       -2.2924626766        3.6196645829
	 C          -0.0693094854       -2.3042829136        0.9905282984
	 C           0.0000000000        0.0000000000       -3.1080968214
	 H           0.0343363238        4.0906996085       -0.0205091977
	 H           0.0801281675        4.0683819429        4.6447314059
	 H           0.0000000000        0.0000000000        6.9839666940
	 H          -0.0801281675       -4.0683819429        4.6447314059
	 H          -0.0343363238       -4.0906996085       -0.0205091977
	 N          -1.3465999450       -1.7119973901       -4.3623571887
	 N           1.3465999450        1.7119973901       -4.3623590784
	 H           1.2726020491        1.9019507712       -6.2663261875
	 H           2.6025119329        2.8080763417       -3.4266725221
	 H          -2.7294202709       -1.1483752326       -5.5558193971
	 H          -0.9767030621       -3.5890302325       -4.2812425842
	            -0.0117507363        0.0023717139        0.0037118502
	            -0.0032189179       -0.0012751202       -0.0015275555
	             0.0012964605       -0.0001967446       -0.0001193770
	            -0.0001831968       -0.0012481244       -0.0003614903
	            -0.0008166749        0.0015259789        0.0026484496
	             0.0012416975        0.0004849746       -0.0029920268
	            -0.0262941848       -0.0174592235       -0.0209184758
	            -0.0001965651       -0.0001239866       -0.0001547979
	             0.0003750555       -0.0000496800        0.0000044442
	             0.0001318812       -0.0000290140        0.0000034847
	            -0.0000513274       -0.0000171219       -0.0000246490
	             0.0019124158       -0.0001967444       -0.0009648996
	             0.0222402242        0.0186797299        0.0284646914
	             0.0103903752       -0.0003072431       -0.0074561695
	            -0.0000415846        0.0041001406        0.0019483775
	             0.0034880324       -0.0068076465       -0.0016274624
	            -0.0059612817        0.0022215852        0.0093045561
	             0.0074387690       -0.0016743295       -0.0099419711

	Previous optimization step data not found.  Starting new optimization.

	---Fragment 1 Intrafragment Coordinates---
	 - Coordinate -           - BOHR/RAD -       - ANG/DEG -
	 R(1,2)           =         2.659794	       1.407502
	 R(1,6)           =         2.659794	       1.407502
	 R(1,7)           =         2.771983	       1.466870
	 R(2,3)           =         2.629179	       1.391302
	 R(2,8)           =         2.052975	       1.086387
	 R(3,4)           =         2.642391	       1.398293
	 R(3,9)           =         2.050623	       1.085143
	 R(4,5)           =         2.642391	       1.398293
	 R(4,10)          =         2.051579	       1.085649
	 R(5,6)           =         2.629179	       1.391302
	 R(5,11)          =         2.050623	       1.085143
	 R(6,12)          =         2.052975	       1.086387
	 R(7,13)          =         2.513451	       1.330061
	 R(7,14)          =         2.513452	       1.330061
	 R(13,17)         =         1.911600	       1.011575
	 R(13,18)         =         1.914851	       1.013296
	 R(14,15)         =         1.914850	       1.013295
	 R(14,16)         =         1.911600	       1.011575
	 B(1,2,3)         =         2.088380	     119.655334
	 B(1,2,8)         =         2.103396	     120.515735
	 B(1,6,5)         =         2.088380	     119.655336
	 B(1,6,12)        =         2.103396	     120.515739
	 B(1,7,13)        =         2.093263	     119.935135
	 B(1,7,14)        =         2.093264	     119.935172
	 B(2,1,6)         =         2.097220	     120.161836
	 B(2,1,7)         =         2.092983	     119.919082
	 B(2,3,4)         =         2.095280	     120.050699
	 B(2,3,9)         =         2.089718	     119.732039
	 B(3,2,8)         =         2.090149	     119.756716
	 B(3,4,5)         =         2.101792	     120.423818
	 B(3,4,10)        =         2.090697	     119.788091
	 B(4,3,9)         =         2.098135	     120.214304
	 B(4,5,6)         =         2.095280	     120.050698
	 B(4,5,11)        =         2.098135	     120.214304
	 B(5,4,10)        =         2.090697	     119.788091
	 B(5,6,12)        =         2.090149	     119.756718
	 B(6,1,7)         =         2.092983	     119.919082
	 B(6,5,11)        =         2.089718	     119.732040
	 B(7,13,17)       =         2.092412	     119.886358
	 B(7,13,18)       =         2.144861	     122.891455
	 B(7,14,15)       =         2.144860	     122.891403
	 B(7,14,16)       =         2.092412	     119.886356
	 B(13,7,14)       =         2.096659	     120.129694
	 B(15,14,16)      =         2.043400	     117.078183
	 B(17,13,18)      =         2.043399	     117.078118
	 D(1,2,3,4)       =         0.007800	       0.446917
	 D(1,2,3,9)       =        -3.122897	    -178.928796
	 D(1,6,5,4)       =         0.007799	       0.446823
	 D(1,6,5,11)      =        -3.122897	    -178.928843
	*D(1,7,13,17)     =         2.094396	     120.000050
	 D(1,7,13,18)     =        -1.125616	     -64.493046
	 D(1,7,14,15)     =        -3.032165	    -173.730265
	 D(1,7,14,16)     =         0.187844	      10.762677
	 D(2,1,6,5)       =        -0.003905	      -0.223756
	 D(2,1,6,12)      =        -3.091438	    -177.126344
	 D(2,1,7,13)      =        -2.505167	    -143.535494
	 D(2,1,7,14)      =         0.636426	      36.464506
	 D(2,3,4,5)       =        -0.003943	      -0.225922
	 D(2,3,4,10)      =         3.137650	     179.774078
	 D(3,2,1,6)       =        -0.003908	      -0.223897
	 D(3,2,1,7)       =         3.137686	     179.776150
	 D(3,4,5,6)       =        -0.003942	      -0.225875
	 D(3,4,5,11)      =         3.126701	     179.146753
	 D(4,3,2,8)       =         3.095745	     177.373103
	 D(4,5,6,12)      =         3.095746	     177.373164
	 D(5,4,3,9)       =         3.126701	     179.146753
	 D(5,6,1,7)       =         3.137687	     179.776197
	 D(6,1,2,8)       =        -3.091438	    -177.126330
	 D(6,1,7,13)      =         0.636427	      36.464553
	 D(6,1,7,14)      =        -2.505166	    -143.535447
	 D(6,5,4,10)      =         3.137650	     179.774125
	 D(7,1,2,8)       =         0.050156	       2.873717
	 D(7,1,6,12)      =         0.050154	       2.873609
	 D(8,2,3,9)       =        -0.034952	      -2.002610
	 D(9,3,4,10)      =        -0.014892	      -0.853247
	 D(10,4,5,11)     =        -0.014892	      -0.853247
	 D(11,5,6,12)     =        -0.034950	      -2.002502
	 D(13,7,14,15)    =         0.109428	       6.269735
	 D(13,7,14,16)    =        -2.953749	    -169.237323
	 D(14,7,13,17)    =        -1.047197	     -59.999950
	 D(14,7,13,18)    =         2.015977	     115.506954

	Current energy   :      -381.4324752800

	Generating empirical Hessian (Schlegel '84) for each fragment.
	Taking RFO optimization step.
	Going to follow RFO solution 1.
	Using RFO vector 1.

	Determining step-restricting scale parameter for RS-RFO.
	Maximum step size allowed    0.50000

	 Iter      |step|        alpha        rfo_root  
	------------------------------------------------
	    0     0.59379       1.00000           1
	    1     0.51822       1.46631           1
	    2     0.50093       1.60488           1
	    3     0.50000       1.61275           1
	------------------------------------------------
	Norm of target step-size    0.50000
	Projected energy change by RFO approximation:        -0.0153305000

	Back-transformation to cartesian coordinates...
	Could not converge backtransformation.
	Using first guess instead.

	Back-transformation to cartesian coordinates to adjust frozen coordinates...
	Successfully converged to displaced geometry.

	--- Internal Coordinate Step in ANG or DEG, aJ/ANG or AJ/DEG ---
	 ---------------------------------------------------------------------------
	   Coordinate                Previous        Force       Change         New 
	   ----------                --------       ------       ------       ------
	    1 R(1,2)          =      1.407502     0.019658     0.003244     1.410747
	    2 R(1,6)          =      1.407502     0.014296     0.003226     1.410729
	    3 R(1,7)          =      1.466870    -0.001856    -0.000278     1.466592
	    4 R(2,3)          =      1.391302    -0.002071     0.000225     1.391527
	    5 R(2,8)          =      1.086387     0.000236     0.000773     1.087160
	    6 R(3,4)          =      1.398293    -0.003148     0.000335     1.398628
	    7 R(3,9)          =      1.085143     0.000307     0.000224     1.085367
	    8 R(4,5)          =      1.398293     0.010466     0.001633     1.399926
	    9 R(4,10)         =      1.085649    -0.000030     0.000265     1.085914
	   10 R(5,6)          =      1.391302    -0.015654    -0.001937     1.389365
	   11 R(5,11)         =      1.085143    -0.000027     0.000952     1.086095
	   12 R(6,12)         =      1.086387    -0.005595     0.000324     1.086711
	   13 R(7,13)         =      1.330061     0.327001     0.035230     1.365290
	   14 R(7,14)         =      1.330061    -0.073499    -0.000759     1.329303
	   15 R(13,17)        =      1.011575     0.006932     0.001266     1.012841
	   16 R(13,18)        =      1.013296    -0.021884     0.005131     1.018427
	   17 R(14,15)        =      1.013295     0.012600     0.001770     1.015064
	   18 R(14,16)        =      1.011575     0.019836     0.018895     1.030470
	   19 B(1,2,3)        =    119.655334     0.000035     0.076366   119.731699
	   20 B(1,2,8)        =    120.515735    -0.000003     0.009382   120.525117
	   21 B(1,6,5)        =    119.655336     0.000038     0.110819   119.766155
	   22 B(1,6,12)       =    120.515739     0.000042     0.269408   120.785146
	   23 B(1,7,13)       =    119.935135     0.000906     2.447891   122.383026
	   24 B(1,7,14)       =    119.935172    -0.000497    -1.580786   118.354386
	   25 B(2,1,6)        =    120.161836    -0.000099    -0.229287   119.932549
	   26 B(2,1,7)        =    119.919082    -0.000082    -0.251116   119.667966
	   27 B(2,3,4)        =    120.050699    -0.000012    -0.017688   120.033011
	   28 B(2,3,9)        =    119.732039     0.000004    -0.017422   119.714617
	   29 B(3,2,8)        =    119.756716    -0.000034    -0.120392   119.636324
	   30 B(3,4,5)        =    120.423818     0.000013     0.021871   120.445689
	   31 B(3,4,10)       =    119.788091    -0.000009     0.006384   119.794476
	   32 B(4,3,9)        =    120.214304     0.000008     0.037014   120.251317
	   33 B(4,5,6)        =    120.050698     0.000024     0.021270   120.071968
	   34 B(4,5,11)       =    120.214304    -0.000014    -0.007941   120.206362
	   35 B(5,4,10)       =    119.788091    -0.000004    -0.029389   119.758702
	   36 B(5,6,12)       =    119.756718    -0.000077    -0.341100   119.415617
	   37 B(6,1,7)        =    119.919082     0.000181     0.475886   120.394968
	   38 B(6,5,11)       =    119.732040    -0.000010    -0.010676   119.721364
	   39 B(7,13,17)      =    119.886358     0.000336     1.551616   121.437974
	   40 B(7,13,18)      =    122.891455    -0.000208    -1.328770   121.562686
	   41 B(7,14,15)      =    122.891403    -0.000341    -1.498035   121.393368
	   42 B(7,14,16)      =    119.886356     0.000242     1.567212   121.453568
	   43 B(13,7,14)      =    120.129694    -0.000409    -1.185416   118.944278
	   44 B(15,14,16)     =    117.078183     0.000116     0.073647   117.151830
	   45 B(17,13,18)     =    117.078118    -0.000091    -0.268394   116.809725
	   46 D(1,2,3,4)      =      0.446917     0.000011     0.916315     1.363231
	   47 D(1,2,3,9)      =   -178.928796     0.000008     0.664655  -178.264141
	   48 D(1,6,5,4)      =      0.446823     0.000009     0.752599     1.199422
	   49 D(1,6,5,11)     =   -178.928843    -0.000001    -0.072493  -179.001336
	   50 *D(1,7,13,17)   =    120.000050    -0.000000    -0.000000   120.000050
	   51 D(1,7,13,18)    =    -64.493046     0.000132     9.657508   -54.835538
	   52 D(1,7,14,15)    =   -173.730265    -0.000002     0.134475  -173.595790
	   53 D(1,7,14,16)    =     10.762677    -0.000066    -4.774248     5.988429
	   54 D(2,1,6,5)      =     -0.223756    -0.000005    -0.414717    -0.638474
	   55 D(2,1,6,12)     =   -177.126344    -0.000017    -1.407919  -178.534264
	   56 D(2,1,7,13)     =   -143.535494    -0.000009    -1.808850  -145.344344
	   57 D(2,1,7,14)     =     36.464506    -0.000088    -8.361034    28.103473
	   58 D(2,3,4,5)      =     -0.225922    -0.000007    -0.583691    -0.809613
	   59 D(2,3,4,10)     =    179.774078    -0.000002    -0.195492   179.578586
	   60 D(3,2,1,6)      =     -0.223897    -0.000006    -0.421907    -0.645804
	   61 D(3,2,1,7)      =    179.776150    -0.000014    -1.191926   178.584223
	   62 D(3,4,5,6)      =     -0.225875    -0.000003    -0.259860    -0.485734
	   63 D(3,4,5,11)     =    179.146753     0.000007     0.569253   179.716006
	   64 D(4,3,2,8)      =    177.373103     0.000003     0.252124   177.625227
	   65 D(4,5,6,12)     =    177.373164     0.000022     1.751019   179.124182
	   66 D(5,4,3,9)      =    179.146753    -0.000004    -0.331012   178.815740
	   67 D(5,6,1,7)      =    179.776197     0.000004     0.360971   180.137168
	   68 D(6,1,2,8)      =   -177.126330     0.000003     0.252318  -176.874012
	   69 D(6,1,7,13)     =     36.464553    -0.000017    -2.582490    33.882063
	   70 D(6,1,7,14)     =   -143.535447    -0.000097    -9.134673  -152.670120
	   71 D(6,5,4,10)     =    179.774125    -0.000008    -0.647919   179.126206
	   72 D(7,1,2,8)      =      2.873717    -0.000006    -0.517702     2.356015
	   73 D(7,1,6,12)     =      2.873609    -0.000008    -0.632230     2.241378
	   74 D(8,2,3,9)      =     -2.002610     0.000000     0.000464    -2.002146
	   75 D(9,3,4,10)     =     -0.853247     0.000001     0.057186    -0.796061
	   76 D(10,4,5,11)    =     -0.853247     0.000002     0.181194    -0.672054
	   77 D(11,5,6,12)    =     -2.002502     0.000012     0.925926    -1.076576
	   78 D(13,7,14,15)   =      6.269735    -0.000082    -6.187610     0.082125
	   79 D(13,7,14,16)   =   -169.237323    -0.000146   -11.096333  -180.333656
	   80 D(14,7,13,17)   =    -59.999950     0.000080     6.589306   -53.410644
	   81 D(14,7,13,18)   =    115.506954     0.000212    16.246814   131.753768
	 ---------------------------------------------------------------------------
	Successfully symmetrized geometry.

  ==> Convergence Check <==

  Measures of convergence in internal coordinates in au.
  Criteria marked as inactive (o), active & met (*), and active & unmet ( ).
  --------------------------------------------------------------------------------------------- ~
   Step     Total Energy     Delta E     MAX Force     RMS Force      MAX Disp      RMS Disp    ~
  --------------------------------------------------------------------------------------------- ~
    Convergence Criteria    1.00e-06 *    3.00e-04 *             o    1.20e-03 *             o  ~
  --------------------------------------------------------------------------------------------- ~
      1    -381.43247528   -3.81e+02      3.97e-02      5.40e-03 o    2.84e-01      5.48e-02 o  ~
  ---------------------------------------------------------------------------------------------

	Writing optimization data to binary file.
	Structure for next step:
	Cartesian Geometry (in Angstrom)
	    C     0.0420183950  -0.0287324917  -0.1794073012
	    C     0.1119230598   1.1985414579   0.5127763223
	    C     0.0762596251   1.2093135847   1.9038044389
	    C     0.0002481484   0.0053071450   2.6114422798
	    C    -0.0575231028  -1.2159064201   1.9294659220
	    C    -0.0497994273  -1.2385820864   0.5403072769
	    C     0.0483059894  -0.0363964016  -1.6459662463
	    H     0.1318841271   2.1392723415  -0.0317829452
	    H     0.1015573362   2.1552936020   2.4353153720
	    H    -0.0204448423   0.0178849317   3.6970863887
	    H    -0.1118311470  -2.1488158374   2.4829389748
	    H    -0.0805637086  -2.1931810444   0.0219105421
	    N    -0.6594226289  -0.9479668982  -2.3754712059
	    N     0.6624614624   0.9576047834  -2.2798594973
	    H     0.6138630717   1.0509139258  -3.2894570910
	    H     1.2027970853   1.6697413440  -1.7672507144
	    H    -1.3782293329  -0.6589920521  -3.0278952439
	    H    -0.5440771107  -1.9497878843  -2.2331922724
			--------------------------
			 OPTKING Finished Execution 
			--------------------------

    Structure for next step:
    Molecular point group: c1
    Full point group: C1

    Geometry (in Angstrom), charge = 1, multiplicity = 1:

    C            0.042018394986    -0.028732491665    -0.179407301189
    C            0.111923059780     1.198541457950     0.512776322287
    C            0.076259625120     1.209313584724     1.903804438879
    C            0.000248148381     0.005307144999     2.611442279826
    C           -0.057523102781    -1.215906420050     1.929465922001
    C           -0.049799427326    -1.238582086419     0.540307276865
    C            0.048305989421    -0.036396401617    -1.645966246344
    H            0.131884127081     2.139272341548    -0.031782945186
    H            0.101557336248     2.155293601978     2.435315371991
    H           -0.020444842325     0.017884931655     3.697086388733
    H           -0.111831146980    -2.148815837393     2.482938974801
    H           -0.080563708583    -2.193181044442     0.021910542120
    N           -0.659422628896    -0.947966898191    -2.375471205873
    N            0.662461462444     0.957604783446    -2.279859497303
    H            0.613863071744     1.050913925809    -3.289457090990
    H            1.202797085343     1.669741344041    -1.767250714351
    H           -1.378229332926    -0.658992052108    -3.027895243878
    H           -0.544077110731    -1.949787884265    -2.233192272389

gradient() will perform analytic gradient computation.

*** tstart() called on computer05
*** at Tue Dec 12 14:39:37 2017

   => Loading Basis Set <=

    Name: 6-31G*
    Role: ORBITAL
    Keyword: BASIS
    atoms 1-7         entry C          line   102 file /opt/acellera/miniconda3/share/psi4/basis/6-31gs.gbs 
    atoms 8-12, 15-18 entry H          line    35 file /opt/acellera/miniconda3/share/psi4/basis/6-31gs.gbs 
    atoms 13-14       entry N          line   119 file /opt/acellera/miniconda3/share/psi4/basis/6-31gs.gbs 


         ---------------------------------------------------------
                                   SCF
            by Justin Turney, Rob Parrish, and Andy Simmonett
                              RKS Reference
                        1 Threads,   3000 MiB Core
         ---------------------------------------------------------

  ==> Geometry <==

    Molecular point group: c1
    Full point group: C1

    Geometry (in Angstrom), charge = 1, multiplicity = 1:

       Center              X                  Y                   Z               Mass       
    ------------   -----------------  -----------------  -----------------  -----------------
           C          0.042018394986    -0.028732491665    -0.179407301189    12.000000000000
           C          0.111923059780     1.198541457950     0.512776322287    12.000000000000
           C          0.076259625120     1.209313584724     1.903804438879    12.000000000000
           C          0.000248148381     0.005307144999     2.611442279826    12.000000000000
           C         -0.057523102781    -1.215906420050     1.929465922001    12.000000000000
           C         -0.049799427326    -1.238582086419     0.540307276865    12.000000000000
           C          0.048305989421    -0.036396401617    -1.645966246344    12.000000000000
           H          0.131884127081     2.139272341548    -0.031782945186     1.007825032070
           H          0.101557336248     2.155293601978     2.435315371991     1.007825032070
           H         -0.020444842325     0.017884931655     3.697086388733     1.007825032070
           H         -0.111831146980    -2.148815837393     2.482938974801     1.007825032070
           H         -0.080563708583    -2.193181044442     0.021910542120     1.007825032070
           N         -0.659422628896    -0.947966898191    -2.375471205873    14.003074004780
           N          0.662461462444     0.957604783446    -2.279859497303    14.003074004780
           H          0.613863071744     1.050913925809    -3.289457090990     1.007825032070
           H          1.202797085343     1.669741344041    -1.767250714351     1.007825032070
           H         -1.378229332926    -0.658992052108    -3.027895243878     1.007825032070
           H         -0.544077110731    -1.949787884265    -2.233192272389     1.007825032070

  Running in c1 symmetry.

  Rotational constants: A =      0.12038  B =      0.03960  C =      0.03089 [cm^-1]
  Rotational constants: A =   3608.85673  B =   1187.28522  C =    926.12949 [MHz]
  Nuclear repulsion =  415.457636026507373

  Charge       = 1
  Multiplicity = 1
  Electrons    = 64
  Nalpha       = 32
  Nbeta        = 32

  ==> Algorithm <==

  SCF Algorithm Type is DF.
  DIIS enabled.
  MOM disabled.
  Fractional occupation disabled.
  Guess Type is READ.
  Energy threshold   = 1.00e-08
  Density threshold  = 1.00e-08
  Integral threshold = 0.00e+00

  ==> Primary Basis <==

  Basis Set: 6-31G*
    Blend: 6-31G*
    Number of shells: 72
    Number of basis function: 153
    Number of Cartesian functions: 153
    Spherical Harmonics?: false
    Max angular momentum: 2

  ==> DFT Potential <==

   => B3LYP Composite Functional <= 

    B3LYP Hybrid-GGA Exchange-Correlation Functional (VWN1-RPA)

    P.J. Stephens et. al., J. Phys. Chem., 98, 11623-11627, 1994

    Points   =           5000
    Deriv    =              1
    GGA      =           TRUE
    Meta     =          FALSE

    X_LRC        =          FALSE
    X_Hybrid     =           TRUE
    X_Alpha      =   2.000000E-01
    X_Omega      =   0.000000E+00
    C_LRC        =          FALSE
    C_Hybrid     =          FALSE
    C_Alpha      =   0.000000E+00
    C_Omega      =   0.000000E+00

   => Exchange Functionals <=

    0.8000    B3_X
    0.2000      HF 

   => Correlation Functionals <=

    0.1900 VWN3RPA_C
    0.8100   LYP_C

   => Molecular Quadrature <=

    Radial Scheme    =       TREUTLER
    Pruning Scheme   =           FLAT
    Nuclear Scheme   =       TREUTLER

    BS radius alpha  =              1
    Pruning alpha    =              1
    Radial Points    =             75
    Spherical Points =            302
    Total Points     =         396923
    Total Blocks     =            362
    Max Points       =           4980
    Max Functions    =            152

   => -D3ZERO: Empirical Dispersion <=

    Grimme's -D3 (zero-damping) Dispersion Correction
    Grimme S.; Antony J.; Ehrlich S.; Krieg H. (2010), J. Chem. Phys., 132: 154104

        S6 =   1.000000E+00
        S8 =   1.703000E+00
       SR6 =   1.261000E+00
    ALPHA6 =   1.400000E+01

   => Loading Basis Set <=

    Name: (6-31G* AUX)
    Role: JKFIT
    Keyword: DF_BASIS_SCF
    atoms 1-7         entry C          line   120 file /opt/acellera/miniconda3/share/psi4/basis/cc-pvdz-jkfit.gbs 
    atoms 8-12, 15-18 entry H          line    50 file /opt/acellera/miniconda3/share/psi4/basis/cc-pvdz-jkfit.gbs 
    atoms 13-14       entry N          line   170 file /opt/acellera/miniconda3/share/psi4/basis/cc-pvdz-jkfit.gbs 

  Reading orbitals from file 180, no projection.

  ==> Pre-Iterations <==

   -------------------------------------------------------
    Irrep   Nso     Nmo     Nalpha   Nbeta   Ndocc  Nsocc
   -------------------------------------------------------
     A        153     153       0       0       0       0
   -------------------------------------------------------
    Total     153     153      32      32      32       0
   -------------------------------------------------------

  ==> Integral Setup <==

  ==> DFJK: Density-Fitted J/K Matrices <==

    J tasked:                  Yes
    K tasked:                  Yes
    wK tasked:                  No
    OpenMP threads:              1
    Integrals threads:           1
    Memory (MB):              2250
    Algorithm:                Core
    Integral Cache:           NONE
    Schwarz Cutoff:          1E-12
    Fitting Condition:       1E-12

   => Auxiliary Basis Set <=

  Basis Set: (6-31G* AUX)
    Blend: CC-PVDZ-JKFIT
    Number of shells: 297
    Number of basis function: 954
    Number of Cartesian functions: 954
    Spherical Harmonics?: false
    Max angular momentum: 3

  Minimum eigenvalue in the overlap matrix is 4.8754778432E-04.
  Using Symmetric Orthogonalization.

  SCF Guess: Orbitals guess was supplied from a previous computation.

  ==> Iterations <==

                           Total Energy        Delta E     RMS |[F,P]|

   @DF-RKS iter   0:  -381.38976105057941   -3.81390e+02   1.46475e-03 
   @DF-RKS iter   1:  -381.44081661338657   -5.10556e-02   2.33943e-04 
   @DF-RKS iter   2:  -381.44013263142449    6.83982e-04   3.44794e-04 DIIS
   @DF-RKS iter   3:  -381.44158035172410   -1.44772e-03   5.93251e-05 DIIS
   @DF-RKS iter   4:  -381.44161481837301   -3.44666e-05   2.50472e-05 DIIS
   @DF-RKS iter   5:  -381.44162202985598   -7.21148e-06   8.52379e-06 DIIS
   @DF-RKS iter   6:  -381.44162289696663   -8.67111e-07   3.30613e-06 DIIS
   @DF-RKS iter   7:  -381.44162301061260   -1.13646e-07   9.30110e-07 DIIS
   @DF-RKS iter   8:  -381.44162302043947   -9.82686e-09   2.71192e-07 DIIS
   @DF-RKS iter   9:  -381.44162302115967   -7.20206e-10   9.58403e-08 DIIS
   @DF-RKS iter  10:  -381.44162302126108   -1.01409e-10   3.78321e-08 DIIS
   @DF-RKS iter  11:  -381.44162302127904   -1.79625e-11   1.38712e-08 DIIS
   @DF-RKS iter  12:  -381.44162302128240   -3.35376e-12   2.48194e-09 DIIS

  ==> Post-Iterations <==

    Orbital Energies (a.u.)
    -----------------------

    Doubly Occupied:                                                      

       1A    -14.581447     2A    -14.539660     3A    -10.503052  
       4A    -10.375519     5A    -10.360949     6A    -10.358238  
       7A    -10.346052     8A    -10.343212     9A    -10.342054  
      10A     -1.175104    11A     -1.077786    12A     -1.015318  
      13A     -0.926548    14A     -0.904579    15A     -0.842967  
      16A     -0.779265    17A     -0.770742    18A     -0.737259  
      19A     -0.724562    20A     -0.696146    21A     -0.670074  
      22A     -0.631931    23A     -0.606491    24A     -0.587638  
      25A     -0.578960    26A     -0.567154    27A     -0.515890  
      28A     -0.509954    29A     -0.500373    30A     -0.455577  
      31A     -0.409971    32A     -0.406850  

    Virtual:                                                              

      33A     -0.243036    34A     -0.156788    35A     -0.141830  
      36A     -0.108470    37A     -0.078988    38A     -0.058421  
      39A     -0.037579    40A     -0.022365    41A      0.006722  
      42A      0.020060    43A      0.026915    44A      0.060673  
      45A      0.069171    46A      0.086063    47A      0.121705  
      48A      0.130559    49A      0.154379    50A      0.171782  
      51A      0.209580    52A      0.230757    53A      0.297349  
      54A      0.351390    55A      0.362052    56A      0.379544  
      57A      0.390840    58A      0.399925    59A      0.414618  
      60A      0.420355    61A      0.436254    62A      0.447811  
      63A      0.456537    64A      0.469360    65A      0.471988  
      66A      0.478133    67A      0.484225    68A      0.497359  
      69A      0.515271    70A      0.549350    71A      0.559781  
      72A      0.583877    73A      0.611946    74A      0.639162  
      75A      0.662347    76A      0.676609    77A      0.691152  
      78A      0.701932    79A      0.714768    80A      0.728062  
      81A      0.744810    82A      0.763932    83A      0.773054  
      84A      0.785430    85A      0.814093    86A      0.835007  
      87A      0.852203    88A      0.905838    89A      0.961762  
      90A      0.964541    91A      0.988450    92A      1.022667  
      93A      1.042205    94A      1.087358    95A      1.130022  
      96A      1.143569    97A      1.245442    98A      1.272959  
      99A      1.284080   100A      1.303619   101A      1.323326  
     102A      1.336451   103A      1.356458   104A      1.358370  
     105A      1.410080   106A      1.449412   107A      1.536529  
     108A      1.583050   109A      1.621500   110A      1.651916  
     111A      1.713779   112A      1.723635   113A      1.743918  
     114A      1.790472   115A      1.802024   116A      1.828568  
     117A      1.891807   118A      1.938595   119A      1.945052  
     120A      1.974410   121A      1.992750   122A      1.998167  
     123A      2.013889   124A      2.032642   125A      2.116576  
     126A      2.122141   127A      2.150728   128A      2.182909  
     129A      2.194395   130A      2.306568   131A      2.327670  
     132A      2.404268   133A      2.441180   134A      2.453444  
     135A      2.481313   136A      2.513139   137A      2.536808  
     138A      2.589973   139A      2.596429   140A      2.620208  
     141A      2.729384   142A      2.823956   143A      2.978675  
     144A      3.252200   145A      3.616236   146A      3.660359  
     147A      3.907916   148A      3.943563   149A      3.961739  
     150A      4.039122   151A      4.169743   152A      4.249941  
     153A      4.542234  

    Final Occupation by Irrep:
              A 
    DOCC [    32 ]

  Energy converged.

  @DF-RKS Final Energy:  -381.44162302128240

   => Energetics <=

    Nuclear Repulsion Energy =            415.4576360265073731
    One-Electron Energy =               -1326.1856733817194254
    Two-Electron Energy =                 573.6785459720429117
    DFT Exchange-Correlation Energy =     -44.3803580881132405
    Empirical Dispersion Energy =          -0.0117735500000000
    PCM Polarization Energy =               0.0000000000000000
    EFP Energy =                            0.0000000000000000
    Total Energy =                       -381.4416230212823962



Properties will be evaluated at   0.000000,   0.000000,   0.000000 Bohr

Properties computed using the SCF density matrix

  Nuclear Dipole Moment: (a.u.)
     X:     1.8233      Y:    -0.9240      Z:    -0.5010

  Electronic Dipole Moment: (a.u.)
     X:    -1.7549      Y:     1.1288      Z:    -1.5855

  Dipole Moment: (a.u.)
     X:     0.0683      Y:     0.2048      Z:    -2.0865     Total:     2.0976

  Dipole Moment: (Debye)
     X:     0.1736      Y:     0.5206      Z:    -5.3033     Total:     5.3317


*** tstop() called on computer05 at Tue Dec 12 14:40:54 2017
Module time:
	user time   =      76.48 seconds =       1.27 minutes
	system time =       0.62 seconds =       0.01 minutes
	total time  =         77 seconds =       1.28 minutes
Total time:
	user time   =     188.75 seconds =       3.15 minutes
	system time =       2.31 seconds =       0.04 minutes
	total time  =        192 seconds =       3.20 minutes

*** tstart() called on computer05
*** at Tue Dec 12 14:40:54 2017


         ------------------------------------------------------------
                                   SCF GRAD                          
                          Rob Parrish, Justin Turney,                
                       Andy Simmonett, and Alex Sokolov              
         ------------------------------------------------------------

  ==> Geometry <==

    Molecular point group: c1
    Full point group: C1

    Geometry (in Angstrom), charge = 1, multiplicity = 1:

       Center              X                  Y                   Z               Mass       
    ------------   -----------------  -----------------  -----------------  -----------------
           C          0.042018394986    -0.028732491665    -0.179407301189    12.000000000000
           C          0.111923059780     1.198541457950     0.512776322287    12.000000000000
           C          0.076259625120     1.209313584724     1.903804438879    12.000000000000
           C          0.000248148381     0.005307144999     2.611442279826    12.000000000000
           C         -0.057523102781    -1.215906420050     1.929465922001    12.000000000000
           C         -0.049799427326    -1.238582086419     0.540307276865    12.000000000000
           C          0.048305989421    -0.036396401617    -1.645966246344    12.000000000000
           H          0.131884127081     2.139272341548    -0.031782945186     1.007825032070
           H          0.101557336248     2.155293601978     2.435315371991     1.007825032070
           H         -0.020444842325     0.017884931655     3.697086388733     1.007825032070
           H         -0.111831146980    -2.148815837393     2.482938974801     1.007825032070
           H         -0.080563708583    -2.193181044442     0.021910542120     1.007825032070
           N         -0.659422628896    -0.947966898191    -2.375471205873    14.003074004780
           N          0.662461462444     0.957604783446    -2.279859497303    14.003074004780
           H          0.613863071744     1.050913925809    -3.289457090990     1.007825032070
           H          1.202797085343     1.669741344041    -1.767250714351     1.007825032070
           H         -1.378229332926    -0.658992052108    -3.027895243878     1.007825032070
           H         -0.544077110731    -1.949787884265    -2.233192272389     1.007825032070

  Nuclear repulsion =  415.457636026507373

  ==> Basis Set <==

  Basis Set: 6-31G*
    Blend: 6-31G*
    Number of shells: 72
    Number of basis function: 153
    Number of Cartesian functions: 153
    Spherical Harmonics?: false
    Max angular momentum: 2

  ==> DFJKGrad: Density-Fitted SCF Gradients <==

    Gradient:                    1
    J tasked:                  Yes
    K tasked:                  Yes
    wK tasked:                  No
    OpenMP threads:              1
    Integrals threads:           1
    Memory (MB):              2250
    Schwarz Cutoff:          0E+00
    Fitting Condition:       1E-12

   => Auxiliary Basis Set <=

  Basis Set: (6-31G* AUX)
    Blend: CC-PVDZ-JKFIT
    Number of shells: 297
    Number of basis function: 954
    Number of Cartesian functions: 954
    Spherical Harmonics?: false
    Max angular momentum: 3

  ==> DFT Potential <==

   => B3LYP Composite Functional <= 

    B3LYP Hybrid-GGA Exchange-Correlation Functional (VWN1-RPA)

    P.J. Stephens et. al., J. Phys. Chem., 98, 11623-11627, 1994

    Points   =           5000
    Deriv    =              1
    GGA      =           TRUE
    Meta     =          FALSE

    X_LRC        =          FALSE
    X_Hybrid     =           TRUE
    X_Alpha      =   2.000000E-01
    X_Omega      =   0.000000E+00
    C_LRC        =          FALSE
    C_Hybrid     =          FALSE
    C_Alpha      =   0.000000E+00
    C_Omega      =   0.000000E+00

   => Exchange Functionals <=

    0.8000    B3_X
    0.2000      HF 

   => Correlation Functionals <=

    0.1900 VWN3RPA_C
    0.8100   LYP_C

   => Molecular Quadrature <=

    Radial Scheme    =       TREUTLER
    Pruning Scheme   =           FLAT
    Nuclear Scheme   =       TREUTLER

    BS radius alpha  =              1
    Pruning alpha    =              1
    Radial Points    =             75
    Spherical Points =            302
    Total Points     =         396923
    Total Blocks     =            362
    Max Points       =           4980
    Max Functions    =            152


  -Total Gradient:
     Atom            X                  Y                   Z
    ------   -----------------  -----------------  -----------------
       1       -0.008826506032     0.009830624235     0.001072724708
       2       -0.001367164531     0.001309506461    -0.001054876608
       3        0.000095942453     0.000088533192     0.000786342940
       4       -0.000026574978     0.000187045846     0.000143639231
       5        0.000070723721     0.000406133461    -0.000365710733
       6        0.000804837088    -0.001800422295     0.000333230325
       7        0.003836434190    -0.010159759655    -0.001625930881
       8        0.000597138977    -0.000032650997    -0.001998080402
       9        0.000176008736     0.000127132235     0.000107572207
      10        0.000008845447    -0.000059278048     0.000213931734
      11       -0.000133202485    -0.000669670748     0.000208037218
      12        0.000812208913    -0.000718341559    -0.000268954276
      13       -0.007730914825     0.004071462647     0.001426761889
      14        0.002729575514    -0.005499577999    -0.004352589203
      15       -0.001353085772     0.001736747174     0.000017701455
      16        0.009736098052     0.009285983246     0.007051920988
      17       -0.007903565643    -0.000632495840     0.006535940521
      18        0.008475963675    -0.007468527728    -0.008227838741


*** tstop() called on computer05 at Tue Dec 12 14:41:14 2017
Module time:
	user time   =      19.31 seconds =       0.32 minutes
	system time =       0.46 seconds =       0.01 minutes
	total time  =         20 seconds =       0.33 minutes
Total time:
	user time   =     208.06 seconds =       3.47 minutes
	system time =       2.78 seconds =       0.05 minutes
	total time  =        212 seconds =       3.53 minutes

			-----------------------------------------
			 OPTKING 2.0: for geometry optimizations 
			  - R.A. King,  Bethel University        
			-----------------------------------------
	At level 1: Red. Int., RFO, no backsteps, dynamic trust

	Previous internal coordinate definitions found.
	---Fragment 1 Geometry and Gradient---
	 C           0.0794032591       -0.0542965404       -0.3390306655
	 C           0.2115039309        2.2649151144        0.9690068166
	 C           0.1441098065        2.2852714839        3.5976690001
	 C           0.0004689325        0.0100290506        4.9349107207
	 C          -0.1087029106       -2.2977301371        3.6461621753
	 C          -0.0941072792       -2.3405809364        1.0210327809
	 C           0.0912850906       -0.0687792313       -3.1104254296
	 H           0.2492248815        4.0426388492       -0.0600610621
	 H           0.1919155523        4.0729146437        4.6020791003
	 H          -0.0386351528        0.0337976227        6.9864807643
	 H          -0.2113302409       -4.0606734427        4.6920746670
	 H          -0.1522433455       -4.1445115338        0.0414049240
	 N          -1.2461281744       -1.7913978206       -4.4889900157
	 N           1.2518707376        1.8096107843       -4.3083100714
	 H           1.1600330887        1.9859395090       -6.2161730278
	 H           2.2729570847        3.1553538530       -3.3396198583
	 H          -2.6044759875       -1.2453145022       -5.7218927700
	 H          -1.0281567345       -3.6845651185       -4.2201217969
	            -0.0088265060        0.0098306242        0.0010727247
	            -0.0013671645        0.0013095065       -0.0010548766
	             0.0000959425        0.0000885332        0.0007863429
	            -0.0000265750        0.0001870458        0.0001436392
	             0.0000707237        0.0004061335       -0.0003657107
	             0.0008048371       -0.0018004223        0.0003332303
	             0.0038364342       -0.0101597597       -0.0016259309
	             0.0005971390       -0.0000326510       -0.0019980804
	             0.0001760087        0.0001271322        0.0001075722
	             0.0000088454       -0.0000592780        0.0002139317
	            -0.0001332025       -0.0006696707        0.0002080372
	             0.0008122089       -0.0007183416       -0.0002689543
	            -0.0077309148        0.0040714626        0.0014267619
	             0.0027295755       -0.0054995780       -0.0043525892
	            -0.0013530858        0.0017367472        0.0000177015
	             0.0097360981        0.0092859832        0.0070519210
	            -0.0079035656       -0.0006324958        0.0065359405
	             0.0084759637       -0.0074685277       -0.0082278387

	---Fragment 1 Intrafragment Coordinates---
	 - Coordinate -           - BOHR/RAD -       - ANG/DEG -
	 R(1,2)           =         2.665925	       1.410747
	 R(1,6)           =         2.665891	       1.410729
	 R(1,7)           =         2.771458	       1.466592
	 R(2,3)           =         2.629605	       1.391527
	 R(2,8)           =         2.054436	       1.087160
	 R(3,4)           =         2.643024	       1.398628
	 R(3,9)           =         2.051047	       1.085367
	 R(4,5)           =         2.645476	       1.399926
	 R(4,10)          =         2.052080	       1.085914
	 R(5,6)           =         2.625520	       1.389365
	 R(5,11)          =         2.052422	       1.086095
	 R(6,12)          =         2.053586	       1.086711
	 R(7,13)          =         2.580025	       1.365290
	 R(7,14)          =         2.512018	       1.329303
	 R(13,17)         =         1.913992	       1.012841
	 R(13,18)         =         1.924548	       1.018427
	 R(14,15)         =         1.918194	       1.015064
	 R(14,16)         =         1.947306	       1.030470
	 B(1,2,3)         =         2.089712	     119.731699
	 B(1,2,8)         =         2.103560	     120.525117
	 B(1,6,5)         =         2.090314	     119.766155
	 B(1,6,12)        =         2.108098	     120.785146
	 B(1,7,13)        =         2.135987	     122.383026
	 B(1,7,14)        =         2.065674	     118.354386
	 B(2,1,6)         =         2.093218	     119.932549
	 B(2,1,7)         =         2.088600	     119.667966
	 B(2,3,4)         =         2.094971	     120.033011
	 B(2,3,9)         =         2.089414	     119.714617
	 B(3,2,8)         =         2.088048	     119.636324
	 B(3,4,5)         =         2.102174	     120.445689
	 B(3,4,10)        =         2.090808	     119.794476
	 B(4,3,9)         =         2.098781	     120.251317
	 B(4,5,6)         =         2.095651	     120.071968
	 B(4,5,11)        =         2.097997	     120.206362
	 B(5,4,10)        =         2.090184	     119.758702
	 B(5,6,12)        =         2.084196	     119.415617
	 B(6,1,7)         =         2.101289	     120.394968
	 B(6,5,11)        =         2.089532	     119.721364
	 B(7,13,17)       =         2.119492	     121.437974
	 B(7,13,18)       =         2.121669	     121.562686
	 B(7,14,15)       =         2.118714	     121.393368
	 B(7,14,16)       =         2.119765	     121.453568
	 B(13,7,14)       =         2.075969	     118.944278
	 B(15,14,16)      =         2.044685	     117.151830
	 B(17,13,18)      =         2.038714	     116.809725
	 D(1,2,3,4)       =         0.023793	       1.363231
	 D(1,2,3,9)       =        -3.111296	    -178.264141
	 D(1,6,5,4)       =         0.020934	       1.199422
	 D(1,6,5,11)      =        -3.124163	    -179.001336
	*D(1,7,13,17)     =         2.094396	     120.000050
	 D(1,7,13,18)     =        -0.957061	     -54.835538
	 D(1,7,14,15)     =        -3.029818	    -173.595790
	 D(1,7,14,16)     =         0.104518	       5.988429
	 D(2,1,6,5)       =        -0.011143	      -0.638474
	 D(2,1,6,12)      =        -3.116011	    -178.534264
	 D(2,1,7,13)      =        -2.536737	    -145.344344
	 D(2,1,7,14)      =         0.490498	      28.103473
	 D(2,3,4,5)       =        -0.014130	      -0.809613
	 D(2,3,4,10)      =         3.134238	     179.578586
	 D(3,2,1,6)       =        -0.011271	      -0.645804
	 D(3,2,1,7)       =         3.116883	     178.584223
	 D(3,4,5,6)       =        -0.008478	      -0.485734
	 D(3,4,5,11)      =         3.136636	     179.716006
	 D(4,3,2,8)       =         3.100145	     177.625227
	 D(4,5,6,12)      =         3.126307	     179.124182
	 D(5,4,3,9)       =         3.120923	     178.815740
	 D(5,6,1,7)       =        -3.139199	    -179.862832
	 D(6,1,2,8)       =        -3.087034	    -176.874012
	 D(6,1,7,13)      =         0.591354	      33.882063
	 D(6,1,7,14)      =        -2.664596	    -152.670120
	 D(6,5,4,10)      =         3.126342	     179.126206
	 D(7,1,2,8)       =         0.041120	       2.356015
	 D(7,1,6,12)      =         0.039119	       2.241378
	 D(8,2,3,9)       =        -0.034944	      -2.002146
	 D(9,3,4,10)      =        -0.013894	      -0.796061
	 D(10,4,5,11)     =        -0.011730	      -0.672054
	 D(11,5,6,12)     =        -0.018790	      -1.076576
	 D(13,7,14,15)    =         0.001433	       0.082125
	 D(13,7,14,16)    =         3.135769	     179.666344
	 D(14,7,13,17)    =        -0.932192	     -53.410644
	 D(14,7,13,18)    =         2.299537	     131.753768

	Current energy   :      -381.4416230213

	Energy change for the previous step:
		Projected    :        -0.0153305000
		Actual       :        -0.0091477412

	Performing BFGS update.
	Previous computed or guess Hessian on step 1.
	Steps to be used in Hessian update: 1
	Taking RFO optimization step.
	Going to follow RFO solution 1.
	Using RFO vector 1.

	Determining step-restricting scale parameter for RS-RFO.
	Maximum step size allowed    0.50000

	 Iter      |step|        alpha        rfo_root  
	------------------------------------------------
	    0     0.64058       1.00000           1
	    1     0.53534       1.66095           1
	    2     0.50325       1.95381           1
	    3     0.50003       1.98649           1
	    4     0.50000       1.98681           1
	------------------------------------------------
	Norm of target step-size    0.50000
	Projected energy change by RFO approximation:        -0.0038138883

	Back-transformation to cartesian coordinates...
	Could not converge backtransformation.
	Using first guess instead.

	Back-transformation to cartesian coordinates to adjust frozen coordinates...
	Successfully converged to displaced geometry.

	--- Internal Coordinate Step in ANG or DEG, aJ/ANG or AJ/DEG ---
	 ---------------------------------------------------------------------------
	   Coordinate                Previous        Force       Change         New 
	   ----------                --------       ------       ------       ------
	    1 R(1,2)          =      1.410747     0.005585     0.002346     1.413092
	    2 R(1,6)          =      1.410729    -0.011375     0.000008     1.410737
	    3 R(1,7)          =      1.466592     0.006144     0.001106     1.467699
	    4 R(2,3)          =      1.391527    -0.007679    -0.000718     1.390809
	    5 R(2,8)          =      1.087160    -0.008104    -0.000821     1.086340
	    6 R(3,4)          =      1.398628    -0.007676    -0.000683     1.397945
	    7 R(3,9)          =      1.085367    -0.001380    -0.000108     1.085259
	    8 R(4,5)          =      1.399926    -0.009706    -0.000692     1.399234
	    9 R(4,10)         =      1.085914    -0.001753    -0.000019     1.085895
	   10 R(5,6)          =      1.389365    -0.001356    -0.000726     1.388639
	   11 R(5,11)         =      1.086095    -0.005667    -0.000274     1.085821
	   12 R(6,12)         =      1.086711    -0.006067    -0.000591     1.086120
	   13 R(7,13)         =      1.365290    -0.053919     0.007923     1.373214
	   14 R(7,14)         =      1.329303    -0.065642    -0.004834     1.324469
	   15 R(13,17)        =      1.012841    -0.010042    -0.000750     1.012091
	   16 R(13,18)        =      1.018427    -0.058969     0.023870     1.042296
	   17 R(14,15)        =      1.015064    -0.001708     0.002785     1.017849
	   18 R(14,16)        =      1.030470    -0.123826    -0.002790     1.027680
	   19 B(1,2,3)        =    119.731699     0.000053     0.191351   119.923051
	   20 B(1,2,8)        =    120.525117     0.000108     0.552470   121.077587
	   21 B(1,6,5)        =    119.766155     0.000106     0.410689   120.176844
	   22 B(1,6,12)       =    120.785146    -0.000058    -0.089576   120.695570
	   23 B(1,7,13)       =    122.383026    -0.000072     0.644022   123.027047
	   24 B(1,7,14)       =    118.354386     0.000822     1.971454   120.325840
	   25 B(2,1,6)        =    119.932549    -0.000142    -0.536397   119.396152
	   26 B(2,1,7)        =    119.667966     0.000330     0.946622   120.614588
	   27 B(2,3,4)        =    120.033011     0.000031     0.112754   120.145765
	   28 B(2,3,9)        =    119.714617    -0.000017    -0.075963   119.638654
	   29 B(3,2,8)        =    119.636324    -0.000162    -0.784884   118.851440
	   30 B(3,4,5)        =    120.445689    -0.000039    -0.137280   120.308409
	   31 B(3,4,10)       =    119.794476     0.000015     0.063683   119.858159
	   32 B(4,3,9)        =    120.251317    -0.000014    -0.037641   120.213677
	   33 B(4,5,6)        =    120.071968    -0.000010    -0.053105   120.018863
	   34 B(4,5,11)       =    120.206362    -0.000008    -0.036625   120.169738
	   35 B(5,4,10)       =    119.758702     0.000024     0.070183   119.828885
	   36 B(5,6,12)       =    119.415617    -0.000047    -0.304028   119.111590
	   37 B(6,1,7)        =    120.394968    -0.000188    -0.425426   119.969542
	   38 B(6,5,11)       =    119.721364     0.000018     0.087971   119.809335
	   39 B(7,13,17)      =    121.437974     0.000008     0.261285   121.699259
	   40 B(7,13,18)      =    121.562686    -0.000139    -2.886442   118.676244
	   41 B(7,14,15)      =    121.393368    -0.000050    -0.969050   120.424317
	   42 B(7,14,16)      =    121.453568     0.000004     0.709420   122.162988
	   43 B(13,7,14)      =    118.944278    -0.000754    -2.785331   116.158947
	   44 B(15,14,16)     =    117.151830     0.000045     0.246207   117.398036
	   45 B(17,13,18)     =    116.809725     0.000075    -0.768801   116.040923
	   46 D(1,2,3,4)      =      1.363231     0.000001     0.207968     1.571200
	   47 D(1,2,3,9)      =   -178.264141     0.000002     0.336268  -177.927873
	   48 D(1,6,5,4)      =      1.199422     0.000003     0.387232     1.586654
	   49 D(1,6,5,11)     =   -179.001336     0.000001     0.066245  -178.935091
	   50 *D(1,7,13,17)   =    120.000050    -0.000000    -0.000000   120.000050
	   51 D(1,7,13,18)    =    -54.835538     0.000173    17.028653   -37.806885
	   52 D(1,7,14,15)    =   -173.595790    -0.000025    -2.378825  -175.974614
	   53 D(1,7,14,16)    =      5.988429    -0.000027    -3.392371     2.596058
	   54 D(2,1,6,5)      =     -0.638474    -0.000004    -0.573333    -1.211807
	   55 D(2,1,6,12)     =   -178.534264    -0.000010    -1.209804  -179.744068
	   56 D(2,1,7,13)     =   -145.344344    -0.000010    -2.188848  -147.533192
	   57 D(2,1,7,14)     =     28.103473    -0.000029    -3.964718    24.138755
	   58 D(2,3,4,5)      =     -0.809613    -0.000003    -0.397836    -1.207449
	   59 D(2,3,4,10)     =    179.578586     0.000000    -0.009008   179.569578
	   60 D(3,2,1,6)      =     -0.645804     0.000003     0.275377    -0.370427
	   61 D(3,2,1,7)      =    178.584223    -0.000004    -0.570352   178.013872
	   62 D(3,4,5,6)      =     -0.485734     0.000001     0.103270    -0.382464
	   63 D(3,4,5,11)     =    179.716006     0.000003     0.425172   180.141178
	   64 D(4,3,2,8)      =    177.625227    -0.000004    -0.426541   177.198686
	   65 D(4,5,6,12)     =    179.124182     0.000008     1.017891   180.142073
	   66 D(5,4,3,9)      =    178.815740    -0.000004    -0.527019   178.288722
	   67 D(5,6,1,7)      =   -179.862832     0.000002     0.256133  -179.606699
	   68 D(6,1,2,8)      =   -176.874012     0.000010     0.975365  -175.898647
	   69 D(6,1,7,13)     =     33.882063    -0.000017    -3.040202    30.841861
	   70 D(6,1,7,14)     =   -152.670120    -0.000037    -4.816072  -157.486192
	   71 D(6,5,4,10)     =    179.126206    -0.000002    -0.285469   178.840737
	   72 D(7,1,2,8)      =      2.356015     0.000003     0.129636     2.485651
	   73 D(7,1,6,12)     =      2.241378    -0.000003    -0.380338     1.861040
	   74 D(8,2,3,9)      =     -2.002146    -0.000002    -0.298242    -2.300387
	   75 D(9,3,4,10)     =     -0.796061    -0.000001    -0.138190    -0.934252
	   76 D(10,4,5,11)    =     -0.672054     0.000000     0.036433    -0.635621
	   77 D(11,5,6,12)    =     -1.076576     0.000006     0.696904    -0.379672
	   78 D(13,7,14,15)   =      0.082125    -0.000034    -3.832356    -3.750230
	   79 D(13,7,14,16)   =    179.666344    -0.000036    -4.845902   174.820442
	   80 D(14,7,13,17)   =    -53.410644    -0.000003     1.417373   -51.993271
	   81 D(14,7,13,18)   =    131.753768     0.000169    18.446026   150.199794
	 ---------------------------------------------------------------------------
	Successfully symmetrized geometry.

  ==> Convergence Check <==

  Measures of convergence in internal coordinates in au.
  Criteria marked as inactive (o), active & met (*), and active & unmet ( ).
  ---------------------------------------------------------------------------------------------
   Step     Total Energy     Delta E     MAX Force     RMS Force      MAX Disp      RMS Disp   
  ---------------------------------------------------------------------------------------------
    Convergence Criteria    1.00e-06 *    3.00e-04 *             o    1.20e-03 *             o
  ---------------------------------------------------------------------------------------------
      2    -381.44162302   -9.15e-03      1.50e-02      3.27e-03 o    3.22e-01      5.42e-02 o  ~
  ---------------------------------------------------------------------------------------------

	Writing optimization data to binary file.
	Structure for next step:
	Cartesian Geometry (in Angstrom)
	    C     0.0751044783  -0.0169796523  -0.1815116167
	    C     0.1498543708   1.2012063397   0.5307140614
	    C     0.0918738425   1.1971130681   1.9203077263
	    C    -0.0071460311  -0.0117953110   2.6152791405
	    C    -0.0740116370  -1.2233917507   1.9185595315
	    C    -0.0501537611  -1.2286097541   0.5301352256
	    C     0.0911402691  -0.0269582359  -1.6490886266
	    H     0.1801594737   2.1542027003   0.0101248276
	    H     0.1156990513   2.1376552041   2.4612330470
	    H    -0.0450432125  -0.0099721884   3.7005107586
	    H    -0.1531929883  -2.1609131616   2.4605839415
	    H    -0.1052135163  -2.1773363702   0.0042625351
	    N    -0.5832455046  -0.9592176759  -2.3986300930
	    N     0.6357344459   0.9776119134  -2.3187706385
	    H     0.5937907138   1.0021666906  -3.3354586535
	    H     1.0934869573   1.7664579870  -1.8451565168
	    H    -1.3018490109  -0.6916507629  -3.0591937504
	    H    -0.6175609410  -1.9440770403  -2.0591358997
			--------------------------
			 OPTKING Finished Execution 
			--------------------------

    Structure for next step:
    Molecular point group: c1
    Full point group: C1

    Geometry (in Angstrom), charge = 1, multiplicity = 1:

    C            0.075104478338    -0.016979652267    -0.181511616719
    C            0.149854370849     1.201206339706     0.530714061370
    C            0.091873842540     1.197113068123     1.920307726286
    C           -0.007146031147    -0.011795311016     2.615279140491
    C           -0.074011637044    -1.223391750680     1.918559531522
    C           -0.050153761074    -1.228609754071     0.530135225640
    C            0.091140269125    -0.026958235940    -1.649088626629
    H            0.180159473707     2.154202700265     0.010124827599
    H            0.115699051331     2.137655204122     2.461233047004
    H           -0.045043212525    -0.009972188427     3.700510758645
    H           -0.153192988321    -2.160913161620     2.460583941518
    H           -0.105213516259    -2.177336370174     0.004262535126
    N           -0.583245504626    -0.959217675852    -2.398630092996
    N            0.635734445902     0.977611913353    -2.318770638535
    H            0.593790713826     1.002166690637    -3.335458653464
    H            1.093486957270     1.766457987042    -1.845156516791
    H           -1.301849010898    -0.691650762874    -3.059193750396
    H           -0.617560940993    -1.944077040327    -2.059135899671

gradient() will perform analytic gradient computation.

*** tstart() called on computer05
*** at Tue Dec 12 14:41:14 2017

   => Loading Basis Set <=

    Name: 6-31G*
    Role: ORBITAL
    Keyword: BASIS
    atoms 1-7         entry C          line   102 file /opt/acellera/miniconda3/share/psi4/basis/6-31gs.gbs 
    atoms 8-12, 15-18 entry H          line    35 file /opt/acellera/miniconda3/share/psi4/basis/6-31gs.gbs 
    atoms 13-14       entry N          line   119 file /opt/acellera/miniconda3/share/psi4/basis/6-31gs.gbs 


         ---------------------------------------------------------
                                   SCF
            by Justin Turney, Rob Parrish, and Andy Simmonett
                              RKS Reference
                        1 Threads,   3000 MiB Core
[...]
	 R(2,3)           =         2.628494	       1.390939
	 R(2,8)           =         2.052757	       1.086272
	 R(3,4)           =         2.641767	       1.397963
	 R(3,9)           =         2.050569	       1.085115
	 R(4,5)           =         2.642249	       1.398218
	 R(4,10)          =         2.051543	       1.085630
	 R(5,6)           =         2.626988	       1.390142
	 R(5,11)          =         2.050527	       1.085092
	 R(6,12)          =         2.054244	       1.087059
	 R(7,13)          =         2.571552	       1.360807
	 R(7,14)          =         2.500215	       1.323057
	 R(13,17)         =         1.922904	       1.017557
	 R(13,18)         =         1.919151	       1.015571
	 R(14,15)         =         1.916824	       1.014340
	 R(14,16)         =         1.912135	       1.011858
	 B(1,2,3)         =         2.091245	     119.819537
	 B(1,2,8)         =         2.112062	     121.012213
	 B(1,6,5)         =         2.094510	     120.006606
	 B(1,6,12)        =         2.110335	     120.913278
	 B(1,7,13)        =         2.131342	     122.116880
	 B(1,7,14)        =         2.103676	     120.531771
	 B(2,1,6)         =         2.088728	     119.675292
	 B(2,1,7)         =         2.096120	     120.098814
	 B(2,3,4)         =         2.097538	     120.180094
	 B(2,3,9)         =         2.087191	     119.587215
	 B(3,2,8)         =         2.077682	     119.042412
	 B(3,4,5)         =         2.099293	     120.280657
	 B(3,4,10)        =         2.091808	     119.851746
	 B(4,3,9)         =         2.098433	     120.231349
	 B(4,5,6)         =         2.094824	     120.024577
	 B(4,5,11)        =         2.098893	     120.257729
	 B(5,4,10)        =         2.092082	     119.867448
	 B(5,6,12)        =         2.076953	     119.000637
	 B(6,1,7)         =         2.098310	     120.224325
	 B(6,5,11)        =         2.089440	     119.716121
	 B(7,13,17)       =         2.038495	     116.797179
	 B(7,13,18)       =         1.977318	     113.291981
	 B(7,14,15)       =         2.116159	     121.246954
	 B(7,14,16)       =         2.114619	     121.158752
	 B(13,7,14)       =         2.043958	     117.110177
	 B(15,14,16)      =         2.044363	     117.133390
	 B(17,13,18)      =         1.883965	     107.943217
	 D(1,2,3,4)       =         0.022993	       1.317388
	 D(1,2,3,9)       =        -3.111263	    -178.262263
	 D(1,6,5,4)       =         0.010781	       0.617693
	 D(1,6,5,11)      =        -3.122870	    -178.927244
	*D(1,7,13,17)     =         2.094396	     120.000050
	 D(1,7,13,18)     =        -0.111427	      -6.384317
	 D(1,7,14,15)     =        -3.132171	    -179.460204
	 D(1,7,14,16)     =         0.149286	       8.553430
	 D(2,1,6,5)       =         0.001496	       0.085705
	 D(2,1,6,12)      =        -3.082951	    -176.640095
	 D(2,1,7,13)      =        -2.571349	    -147.327454
	 D(2,1,7,14)      =         0.468905	      26.866296
	 D(2,3,4,5)       =        -0.010749	      -0.615883
	 D(2,3,4,10)      =         3.133290	     179.524281
	 D(3,2,1,6)       =        -0.018386	      -1.053456
	 D(3,2,1,7)       =         3.115272	     178.491922
	 D(3,4,5,6)       =        -0.006279	      -0.359752
	 D(3,4,5,11)      =         3.127328	     179.182696
	 D(4,3,2,8)       =         3.094144	     177.281366
	 D(4,5,6,12)      =         3.096318	     177.405960
	 D(5,4,3,9)       =         3.123459	     178.961041
	 D(5,6,1,7)       =        -3.132152	    -179.459093
	 D(6,1,2,8)       =        -3.088121	    -176.936283
	 D(6,1,7,13)      =         0.562265	      32.215406
	 D(6,1,7,14)      =        -2.680666	    -153.590844
	 D(6,5,4,10)      =         3.132867	     179.500062
	 D(7,1,2,8)       =         0.045537	       2.609094
	 D(7,1,6,12)      =         0.066586	       3.815107
	 D(8,2,3,9)       =        -0.040113	      -2.298285
	 D(9,3,4,10)      =        -0.015687	      -0.898795
	 D(10,4,5,11)     =        -0.016711	      -0.957489
	 D(11,5,6,12)     =        -0.037332	      -2.138978
	 D(13,7,14,15)    =        -0.086987	      -4.983985
	 D(13,7,14,16)    =        -3.088715	    -176.970351
	 D(14,7,13,17)    =        -0.949146	     -54.382071
	 D(14,7,13,18)    =         3.128216	     179.233562

	Current energy   :      -381.4548904653

	Energy change for the previous step:
		Projected    :        -0.0000032432
		Actual       :        -0.0000003584

	Performing BFGS update.
	Previous computed or guess Hessian on step 1.
	Steps to be used in Hessian update: 17 16
	Taking RFO optimization step.
	Going to follow RFO solution 1.
	Rejecting RFO root 1 because normalization gives large value.
	Rejecting RFO root 2 because normalization gives large value.
	Using RFO vector 3.
	Norm of target step-size    0.00653
	Projected energy change by RFO approximation:         0.0000016044

	Back-transformation to cartesian coordinates...
	Successfully converged to displaced geometry.

	Back-transformation to cartesian coordinates to adjust frozen coordinates...
	Successfully converged to displaced geometry.

	--- Internal Coordinate Step in ANG or DEG, aJ/ANG or AJ/DEG ---
	 ---------------------------------------------------------------------------
	   Coordinate                Previous        Force       Change         New 
	   ----------                --------       ------       ------       ------
	    1 R(1,2)          =      1.409160     0.001023     0.000111     1.409271
	    2 R(1,6)          =      1.409343    -0.000193    -0.000039     1.409305
	    3 R(1,7)          =      1.465627     0.000699     0.000052     1.465678
	    4 R(2,3)          =      1.390939    -0.000862    -0.000066     1.390873
	    5 R(2,8)          =      1.086272    -0.000640    -0.000062     1.086210
	    6 R(3,4)          =      1.397963    -0.000023    -0.000005     1.397958
	    7 R(3,9)          =      1.085115     0.000053    -0.000013     1.085102
	    8 R(4,5)          =      1.398218     0.001087     0.000116     1.398334
	    9 R(4,10)         =      1.085630    -0.000360    -0.000050     1.085580
	   10 R(5,6)          =      1.390142    -0.000401    -0.000035     1.390107
	   11 R(5,11)         =      1.085092    -0.000280    -0.000027     1.085065
	   12 R(6,12)         =      1.087059    -0.000270    -0.000056     1.087003
	   13 R(7,13)         =      1.360807    -0.000778    -0.000108     1.360698
	   14 R(7,14)         =      1.323057    -0.000170    -0.000031     1.323025
	   15 R(13,17)        =      1.017557    -0.000033     0.000001     1.017558
	   16 R(13,18)        =      1.015571    -0.000130     0.000008     1.015579
	   17 R(14,15)        =      1.014340    -0.000125    -0.000008     1.014332
	   18 R(14,16)        =      1.011858     0.000317     0.000020     1.011879
	   19 B(1,2,3)        =    119.819537     0.000001    -0.004838   119.814699
	   20 B(1,2,8)        =    121.012213     0.000001    -0.000042   121.012171
	   21 B(1,6,5)        =    120.006606    -0.000001    -0.005034   120.001572
	   22 B(1,6,12)       =    120.913278     0.000000    -0.004380   120.908898
	   23 B(1,7,13)       =    122.116880    -0.000004    -0.023701   122.093179
	   24 B(1,7,14)       =    120.531771     0.000003     0.018421   120.550192
	   25 B(2,1,6)        =    119.675292     0.000001     0.007996   119.683288
	   26 B(2,1,7)        =    120.098814     0.000004    -0.001739   120.097074
	   27 B(2,3,4)        =    120.180094    -0.000001    -0.000526   120.179568
	   28 B(2,3,9)        =    119.587215     0.000000    -0.001115   119.586100
	   29 B(3,2,8)        =    119.042412    -0.000002     0.005949   119.048361
	   30 B(3,4,5)        =    120.280657     0.000001     0.002739   120.283397
	   31 B(3,4,10)       =    119.851746    -0.000001    -0.002196   119.849550
	   32 B(4,3,9)        =    120.231349     0.000001     0.001438   120.232787
	   33 B(4,5,6)        =    120.024577    -0.000001    -0.001626   120.022951
	   34 B(4,5,11)       =    120.257729     0.000001     0.001971   120.259700
	   35 B(5,4,10)       =    119.867448     0.000000    -0.000531   119.866918
	   36 B(5,6,12)       =    119.000637     0.000001     0.008569   119.009206
	   37 B(6,1,7)        =    120.224325    -0.000005    -0.006780   120.217545
	   38 B(6,5,11)       =    119.716121    -0.000000    -0.000126   119.715995
	   39 B(7,13,17)      =    116.797179    -0.000001     0.018781   116.815960
	   40 B(7,13,18)      =    113.291981    -0.000004     0.001768   113.293749
	   41 B(7,14,15)      =    121.246954     0.000001     0.006211   121.253165
	   42 B(7,14,16)      =    121.158752    -0.000000    -0.006536   121.152217
	   43 B(13,7,14)      =    117.110177     0.000000     0.005407   117.115584
	   44 B(15,14,16)     =    117.133390    -0.000001    -0.000757   117.132633
	   45 B(17,13,18)     =    107.943217     0.000002     0.010940   107.954157
	   46 D(1,2,3,4)      =      1.317388     0.000000     0.014774     1.332162
	   47 D(1,2,3,9)      =   -178.262263     0.000001     0.045401  -178.216862
	   48 D(1,6,5,4)      =      0.617693     0.000001     0.132591     0.750285
	   49 D(1,6,5,11)     =   -178.927244     0.000000     0.099634  -178.827610
	   50 *D(1,7,13,17)   =    120.000050    -0.000000    -0.000000   120.000050
	   51 D(1,7,13,18)    =     -6.384317     0.000000    -0.034486    -6.418804
	   52 D(1,7,14,15)    =   -179.460204     0.000000     0.028385  -179.431819
	   53 D(1,7,14,16)    =      8.553430     0.000000     0.037794     8.591224
	   54 D(2,1,6,5)      =      0.085705    -0.000000    -0.071204     0.014501
	   55 D(2,1,6,12)     =   -176.640095    -0.000000    -0.054133  -176.694228
	   56 D(2,1,7,13)     =   -147.327454     0.000000     0.057813  -147.269641
	   57 D(2,1,7,14)     =     26.866296     0.000000     0.059676    26.925971
	   58 D(2,3,4,5)      =     -0.615883     0.000000     0.046546    -0.569337
	   59 D(2,3,4,10)     =    179.524281     0.000000     0.040338   179.564619
	   60 D(3,2,1,6)      =     -1.053456    -0.000000    -0.002713    -1.056168
	   61 D(3,2,1,7)      =    178.491922    -0.000001    -0.073181   178.418741
	   62 D(3,4,5,6)      =     -0.359752    -0.000001    -0.120825    -0.480577
	   63 D(3,4,5,11)     =    179.182696     0.000000    -0.087696   179.095000
	   64 D(4,3,2,8)      =    177.281366    -0.000000     0.031932   177.313298
	   65 D(4,5,6,12)     =    177.405960     0.000001     0.115431   177.521391
	   66 D(5,4,3,9)      =    178.961041     0.000000     0.015709   178.976750
	   67 D(5,6,1,7)      =   -179.459093    -0.000000    -0.000673  -179.459766
	   68 D(6,1,2,8)      =   -176.936283     0.000000    -0.020455  -176.956738
	   69 D(6,1,7,13)     =     32.215406    -0.000000    -0.012967    32.202439
	   70 D(6,1,7,14)     =   -153.590844    -0.000000    -0.011104  -153.601948
	   71 D(6,5,4,10)     =    179.500062    -0.000001    -0.114618   179.385444
	   72 D(7,1,2,8)      =      2.609094    -0.000000    -0.090923     2.518171
	   73 D(7,1,6,12)     =      3.815107     0.000000     0.016398     3.831504
	   74 D(8,2,3,9)      =     -2.298285     0.000000     0.062559    -2.235726
	   75 D(9,3,4,10)     =     -0.898795    -0.000000     0.009501    -0.889295
	   76 D(10,4,5,11)    =     -0.957489     0.000000    -0.081489    -1.038979
	   77 D(11,5,6,12)    =     -2.138978    -0.000000     0.082474    -2.056504
	   78 D(13,7,14,15)   =     -4.983985     0.000000     0.028452    -4.955533
	   79 D(13,7,14,16)   =   -176.970351     0.000000     0.037861  -176.932490
	   80 D(14,7,13,17)   =    -54.382071     0.000000    -0.002599   -54.384670
	   81 D(14,7,13,18)   =    179.233562     0.000000    -0.037085   179.196477
	 ---------------------------------------------------------------------------
	Successfully symmetrized geometry.

  ==> Convergence Check <==

  Measures of convergence in internal coordinates in au.
  Criteria marked as inactive (o), active & met (*), and active & unmet ( ).
  ---------------------------------------------------------------------------------------------
   Step     Total Energy     Delta E     MAX Force     RMS Force      MAX Disp      RMS Disp   
  ---------------------------------------------------------------------------------------------
    Convergence Criteria    1.00e-06 *    3.00e-04 *             o    1.20e-03 *             o
  ---------------------------------------------------------------------------------------------
     18    -381.45489047   -3.58e-07 *    1.32e-04 *    3.68e-05 o    2.31e-03      7.26e-04 o  ~
  ---------------------------------------------------------------------------------------------


  **** Optimization is complete! (in 18 steps) ****

  ==> Optimization Summary <==

  Measures of convergence in internal coordinates in au.
  --------------------------------------------------------------------------------------------------------------- ~
   Step         Total Energy             Delta E       MAX Force       RMS Force        MAX Disp        RMS Disp  ~
  --------------------------------------------------------------------------------------------------------------- ~
      1    -381.195722388121   -381.195722388121      0.12080286      0.03178197      0.08708987      0.02221757  ~
      2    -381.250383960712     -0.054661572590      0.11461601      0.02893772      0.09026383      0.02221584  ~
      3    -381.299796902457     -0.049412941745      0.10511315      0.02594424      0.09103064      0.02221553  ~
      4    -381.343593301564     -0.043796399107      0.09538337      0.02267636      0.09919886      0.02221634  ~
      5    -381.381225791898     -0.037632490334      0.08857345      0.01907166      0.11117833      0.02221972  ~
      6    -381.411984762503     -0.030758970605      0.07821272      0.01500401      0.12524209      0.02222644  ~
      7    -381.434914149923     -0.022929387420      0.06027385      0.01034768      0.14034493      0.02224579  ~
      8    -381.448926155205     -0.014012005282      0.03067617      0.00520235      0.13363362      0.02233452  ~
      9    -381.453841196803     -0.004915041597      0.00753793      0.00186060      0.07833076      0.02234133  ~
     10    -381.454465176293     -0.000623979491      0.00904638      0.00158332      0.10250225      0.02216898  ~
     11    -381.454680105313     -0.000214929019      0.00944637      0.00120188      0.04340835      0.01273786  ~
     12    -381.454822620721     -0.000142515409      0.00219484      0.00054365      0.03520609      0.01105190  ~
     13    -381.454836578609     -0.000013957887      0.00366955      0.00052600      0.02038936      0.00687707  ~
     14    -381.454879544240     -0.000042965631      0.00114900      0.00027014      0.02365583      0.00563367  ~
     15    -381.454882110949     -0.000002566710      0.00067879      0.00015460      0.01190067      0.00427605  ~
     16    -381.454882672561     -0.000000561612      0.00087029      0.00017375      0.01069908      0.00337925  ~
     17    -381.454890106889     -0.000007434328      0.00013608      0.00004094      0.00636960      0.00161621  ~
     18    -381.454890465260     -0.000000358371      0.00013199      0.00003678      0.00231416      0.00072586  ~
  --------------------------------------------------------------------------------------------------------------- ~

	Writing optimization data to binary file.
	Final energy is   -381.4548904652603
	Final (previous) structure:
	Cartesian Geometry (in Angstrom)
	    C     0.1447355131  -0.0890829589  -0.0931075992
	    C     0.0207587537   1.3142500679  -0.0611940796
	    C    -0.8651698530   1.9102555026   0.8302206990
	    C    -1.6111994736   1.1226826867   1.7119624937
	    C    -1.4820261441  -0.2694593794   1.6955884302
	    C    -0.6146234726  -0.8770063656   0.7950363577
	    C     1.0518644308  -0.7251770837  -1.0525674419
	    H     0.5579808120   1.9397865577  -0.7683604391
	    H    -0.9784724578   2.9894369836   0.8320735477
	    H    -2.2953969979   1.5939763325   2.4107816281
	    H    -2.0513840928  -0.8795997651   2.3891194494
	    H    -0.4951258275  -1.9570556072   0.8252294215
	    N     0.7884556643  -1.9431912042  -1.5992412295
	    N     2.1114413922  -0.0765117368  -1.5075493406
	    H     2.7418843058  -0.5032773643  -2.1778463561
	    H     2.3901952908   0.8126461751  -1.1131486591
	    H     0.7044520879  -1.9827559318  -2.6125527740
	    H    -0.0289429312  -2.3944049090  -1.1996791085
	Saving final (previous) structure.
			--------------------------
			 OPTKING Finished Execution 
			--------------------------

    Final optimized geometry and variables:
    Molecular point group: c1
    Full point group: C1

    Geometry (in Angstrom), charge = 1, multiplicity = 1:

    C            0.144735513124    -0.089082958861    -0.093107599154
    C            0.020758753691     1.314250067852    -0.061194079594
    C           -0.865169852998     1.910255502554     0.830220699032
    C           -1.611199473616     1.122682686708     1.711962493733
    C           -1.482026144103    -0.269459379419     1.695588430227
    C           -0.614623472618    -0.877006365591     0.795036357650
    C            1.051864430835    -0.725177083727    -1.052567441860
    H            0.557980811977     1.939786557668    -0.768360439064
    H           -0.978472457777     2.989436983636     0.832073547736
    H           -2.295396997924     1.593976332523     2.410781628100
    H           -2.051384092824    -0.879599765101     2.389119449417
    H           -0.495125827497    -1.957055607166     0.825229421505
    N            0.788455664278    -1.943191204185    -1.599241229523
    N            2.111441392195    -0.076511736827    -1.507549340563
    H            2.741884305770    -0.503277364347    -2.177846356072
    H            2.390195290790     0.812646175079    -1.113148659054
    H            0.704452087930    -1.982755931786    -2.612552774007
    H           -0.028942931234    -2.394404909017    -1.199679108500

	Cleaning optimization helper files.


Properties will be evaluated at   0.000000,   0.000000,   0.000000 Bohr

Properties computed using the  density matrix

  Nuclear Dipole Moment: (a.u.)
     X:     1.3427      Y:    -0.3787      Z:    -0.3898

  Electronic Dipole Moment: (a.u.)
     X:    -0.3030      Y:    -0.0950      Z:    -1.1212

  Dipole Moment: (a.u.)
     X:     1.0397      Y:    -0.4737      Z:    -1.5110     Total:     1.8943

  Dipole Moment: (Debye)
     X:     2.6426      Y:    -1.2041      Z:    -3.8406     Total:     4.8149

  Quadrupole Moment: (Debye Ang)
    XX:   -35.3647     YY:   -35.9039     ZZ:   -32.8968
    XY:     0.5333     XZ:   -15.8583     YZ:     7.2698

  Traceless Quadrupole Moment: (Debye Ang)
    XX:    -0.6429     YY:    -1.1821     ZZ:     1.8250
    XY:     0.5333     XZ:   -15.8583     YZ:     7.2698

  Mulliken Charges: (a.u.)
   Center  Symbol    Alpha    Beta     Spin     Total
       1     C     2.93850  2.93850  0.00000  0.12300
       2     C     3.08424  3.08424  0.00000 -0.16847
       3     C     3.06185  3.06185  0.00000 -0.12369
       4     C     3.05098  3.05098  0.00000 -0.10196
       5     C     3.06216  3.06216  0.00000 -0.12431
       6     C     3.08811  3.08811  0.00000 -0.17622
       7     C     2.75444  2.75444  0.00000  0.49112
       8     H     0.41656  0.41656  0.00000  0.16689
       9     H     0.40421  0.40421  0.00000  0.19159
      10     H     0.40234  0.40234  0.00000  0.19533
      11     H     0.40382  0.40382  0.00000  0.19237
      12     H     0.41152  0.41152  0.00000  0.17696
      13     N     3.85941  3.85941  0.00000 -0.71882
      14     N     3.84984  3.84984  0.00000 -0.69968
      15     H     0.29955  0.29955  0.00000  0.40090
      16     H     0.29871  0.29871  0.00000  0.40258
      17     H     0.30414  0.30414  0.00000  0.39172
      18     H     0.30965  0.30965  0.00000  0.38070

   Total alpha = 32.00000, Total beta = 32.00000, Total charge =  1.00000


*** Psi4 exiting successfully. Buy a developer a beer!
