    -----------------------------------------------------------------------
          Psi4: An Open-Source Ab Initio Electronic Structure Package
                              Psi4 (no tag) Driver

                          Git: Rev {detached?}  

    J. M. Turney, A. C. Simmonett, R. M. Parrish, E. G. Hohenstein,
    F. A. Evangelista, J. T. Fermann, B. J. Mintz, L. A. Burns, J. J. Wilke,
    M. L. Abrams, N. J. Russ, M. L. Leininger, C. L. Janssen, E. T. Seidl,
    W. D. Allen, H. F. Schaefer, R. A. King, E. F. Valeev, C. D. Sherrill,
    and T. D. Crawford, WIREs Comput. Mol. Sci. 2, 556-565 (2012)
    (doi: 10.1002/wcms.93)

                         Additional Contributions by
    A. E. DePrince, M. Saitow, U. Bozkaya, A. Yu. Sokolov
    -----------------------------------------------------------------------


    Psi4 started on: Tue Jul  5 18:43:30 2016

    Process ID:   8002
    PSI4DATADIR: /export131/home/mjharvey/miniconda3/share
    Memory level set to 256.000 MB

  ==> Input File <==

--------------------------------------------------------------------------
set {
	reference rhf
	basis 6-31G*
}


set_num_threads( 1 )
memory 2 gb

molecule MOL {
0 1

H	 -2.577606	 0.247184	 1.509904
O	 -1.840915	 -0.185680	 1.103718
C	 -2.061112	 -1.573124	 1.079922
C	 -3.266465	 -2.004760	 1.907896
H	 -2.221759	 -1.827826	 0.040214
H	 -1.169872	 -2.106099	 1.409176
C	 -4.525143	 -1.170917	 1.656294
H	 -3.473292	 -3.050670	 1.696560
H	 -2.995073	 -1.941379	 2.960368
C	 -4.391389	 0.268670	 2.160792
H	 -5.372342	 -1.648019	 2.141053
H	 -4.742260	 -1.156301	 0.588124
C	 -3.084498	 0.968858	 1.770778
H	 -5.234972	 0.854308	 1.799901
H	 -4.468628	 0.263647	 3.246016
C	 -1.824058	 0.387222	 2.416896
H	 -2.976769	 0.913666	 0.689499
H	 -3.158098	 2.028009	 2.012897
C	 -1.763124	 0.627384	 3.926878
H	 -0.944793	 0.827130	 1.948405
H	 -1.766531	 -0.682202	 2.228944
C	 -3.063189	 0.263551	 4.643202
H	 -0.944305	 0.049769	 4.350415
H	 -1.527758	 1.672769	 4.115715
H	 -3.309258	 -0.784930	 4.500509
H	 -2.987760	 0.442898	 5.711275
H	 -3.896079	 0.851352	 4.267505

	symmetry c1
}
set optking {
	frozen_dihedral = ("
		14 10 7 4,
		14 10 13 16,
		10 7 4 8,
		8 4 3 2,
		10 13 16 20,
		20 16 19 22
	")
}

ee = energy('scf')
oeprop('DIPOLE', 'QUADRUPOLE', 'MULLIKEN_CHARGES')
f=open( 'psi4out.xyz', 'w' )
f.write( "27  " )
f.write( str(ee) + "\n" )
f.write( MOL.save_string_xyz() )
f.close()
--------------------------------------------------------------------------

  Memory set to   2.000 GiB by Python script.

*** tstart() called on cx1-3-4-2.cx1.hpc.ic.ac.uk
*** at Tue Jul  5 18:43:31 2016


         ---------------------------------------------------------
                                   SCF
            by Justin Turney, Rob Parrish, and Andy Simmonett
                              RHF Reference
                        1 Threads,   2000 MiB Core
         ---------------------------------------------------------

  ==> Geometry <==

    Molecular point group: c1
    Full point group: C1

    Geometry (in Angstrom), charge = 0, multiplicity = 1:

       Center              X                  Y                   Z               Mass       
    ------------   -----------------  -----------------  -----------------  -----------------
           H          0.276189790860     0.515008239065    -0.779828350899     1.007825032070
           O          1.012880790860     0.082144239065    -1.186014350899    15.994914619560
           C          0.792683790860    -1.305299760935    -1.209810350899    12.000000000000
           C         -0.412669209140    -1.736935760935    -0.381836350899    12.000000000000
           H          0.632036790860    -1.560001760935    -2.249518350899     1.007825032070
           H          1.683923790860    -1.838274760935    -0.880556350899     1.007825032070
           C         -1.671347209140    -0.903092760935    -0.633438350899    12.000000000000
           H         -0.619496209140    -2.782845760935    -0.593172350899     1.007825032070
           H         -0.141277209140    -1.673554760935     0.670635649101     1.007825032070
           C         -1.537593209140     0.536494239065    -0.128940350899    12.000000000000
           H         -2.518546209140    -1.380194760935    -0.148679350899     1.007825032070
           H         -1.888464209140    -0.888476760935    -1.701608350899     1.007825032070
           C         -0.230702209140     1.236682239065    -0.518954350899    12.000000000000
           H         -2.381176209140     1.122132239065    -0.489831350899     1.007825032070
           H         -1.614832209140     0.531471239065     0.956283649101     1.007825032070
           C          1.029737790860     0.655046239065     0.127163649101    12.000000000000
           H         -0.122973209140     1.181490239065    -1.600233350899     1.007825032070
           H         -0.304302209140     2.295833239065    -0.276835350899     1.007825032070
           C          1.090671790860     0.895208239065     1.637145649101    12.000000000000
           H          1.909002790860     1.094954239065    -0.341327350899     1.007825032070
           H          1.087264790860    -0.414377760935    -0.060788350899     1.007825032070
           C         -0.209393209140     0.531375239065     2.353469649101    12.000000000000
           H          1.909490790860     0.317593239065     2.060682649101     1.007825032070
           H          1.326037790860     1.940593239065     1.825982649101     1.007825032070
           H         -0.455462209140    -0.517105760935     2.210776649101     1.007825032070
           H         -0.133964209140     0.710722239065     3.421542649101     1.007825032070
           H         -1.042283209140     1.119176239065     1.977772649101     1.007825032070

  Running in c1 symmetry.

  Rotational constants: A =      0.07062  B =      0.05058  C =      0.04283 [cm^-1]
  Rotational constants: A =   2117.16049  B =   1516.20520  C =   1284.06134 [MHz]
  Nuclear repulsion =  564.872613448453080

  Charge       = 0
  Multiplicity = 1
  Electrons    = 74
  Nalpha       = 37
  Nbeta        = 37

  ==> Algorithm <==

  SCF Algorithm Type is DF.
  DIIS enabled.
  MOM disabled.
  Fractional occupation disabled.
  Guess Type is CORE.
  Energy threshold   = 1.00e-06
  Density threshold  = 1.00e-06
  Integral threshold = 0.00e+00

  ==> Primary Basis <==

  Basis Set: 6-31G*
    Number of shells: 90
    Number of basis function: 171
    Number of Cartesian functions: 171
    Spherical Harmonics?: false
    Max angular momentum: 2

  ==> Pre-Iterations <==

   -------------------------------------------------------
    Irrep   Nso     Nmo     Nalpha   Nbeta   Ndocc  Nsocc
   -------------------------------------------------------
     A        171     171       0       0       0       0
   -------------------------------------------------------
    Total     171     171      37      37      37       0
   -------------------------------------------------------

 OEINTS: Overlap, kinetic, potential, dipole, and quadrupole integrals
         stored in file 35.

  ==> Integral Setup <==

  ==> DFJK: Density-Fitted J/K Matrices <==

    J tasked:                  Yes
    K tasked:                  Yes
    wK tasked:                  No
    OpenMP threads:              1
    Integrals threads:           1
    Memory (MB):              1430
    Algorithm:                Core
    Integral Cache:           NONE
    Schwarz Cutoff:          1E-12
    Fitting Condition:       1E-12

   => Auxiliary Basis Set <=

  Basis Set: 
    Number of shells: 378
    Number of basis function: 1179
    Number of Cartesian functions: 1179
    Spherical Harmonics?: false
    Max angular momentum: 3

  Minimum eigenvalue in the overlap matrix is 6.8317653501E-04.
  Using Symmetric Orthogonalization.
  SCF Guess: Core (One-Electron) Hamiltonian.

  ==> Iterations <==

                           Total Energy        Delta E     RMS |[F,P]|

   @DF-RHF iter   1:  -253.92712872840559   -2.53927e+02   7.11283e-02 
   @DF-RHF iter   2:  -165.63061762930863    8.82965e+01   6.28267e-02 DIIS
   @DF-RHF iter   3:  -303.25636352739173   -1.37626e+02   5.08333e-02 DIIS
   @DF-RHF iter   4:  -332.35875009516519   -2.91024e+01   4.99483e-02 DIIS
   @DF-RHF iter   5:  -385.50826883506727   -5.31495e+01   1.10047e-02 DIIS
   @DF-RHF iter   6:  -387.16203440887182   -1.65377e+00   3.84192e-03 DIIS
   @DF-RHF iter   7:  -387.40682317818255   -2.44789e-01   9.81629e-04 DIIS
   @DF-RHF iter   8:  -387.42711992751947   -2.02967e-02   2.97426e-04 DIIS
   @DF-RHF iter   9:  -387.43032898230888   -3.20905e-03   1.46819e-04 DIIS
   @DF-RHF iter  10:  -387.43107429197573   -7.45310e-04   5.53502e-05 DIIS
   @DF-RHF iter  11:  -387.43123869926808   -1.64407e-04   2.13675e-05 DIIS
   @DF-RHF iter  12:  -387.43126169887432   -2.29996e-05   6.76675e-06 DIIS
   @DF-RHF iter  13:  -387.43126364602244   -1.94715e-06   1.72792e-06 DIIS
   @DF-RHF iter  14:  -387.43126377436806   -1.28346e-07   4.90896e-07 DIIS

  ==> Post-Iterations <==

    Orbital Energies (a.u.)
    -----------------------

    Doubly Occupied:                                                      

       1A    -20.496473     2A    -11.271998     3A    -11.249535  
       4A    -11.228347     5A    -11.224954     6A    -11.221222  
       7A    -11.213552     8A    -11.191084     9A    -11.164510  
      10A     -1.580955    11A     -1.155781    12A     -1.095585  
      13A     -1.025610    14A     -0.954945    15A     -0.933014  
      16A     -0.896098    17A     -0.834840    18A     -0.769328  
      19A     -0.756384    20A     -0.716224    21A     -0.681435  
      22A     -0.633711    23A     -0.616733    24A     -0.592912  
      25A     -0.578643    26A     -0.565131    27A     -0.559791  
      28A     -0.538036    29A     -0.506535    30A     -0.486813  
      31A     -0.480532    32A     -0.473515    33A     -0.468417  
      34A     -0.426741    35A     -0.420903    36A     -0.390977  
      37A     -0.218449  

    Virtual:                                                              

      38A      0.222258    39A      0.229798    40A      0.251362  
      41A      0.266867    42A      0.271141    43A      0.285457  
      44A      0.293156    45A      0.301769    46A      0.317541  
      47A      0.326979    48A      0.336625    49A      0.342932  
      50A      0.348341    51A      0.360801    52A      0.365635  
      53A      0.376297    54A      0.387530    55A      0.414384  
      56A      0.419835    57A      0.433253    58A      0.451322  
      59A      0.463875    60A      0.480168    61A      0.533339  
      62A      0.560835    63A      0.617327    64A      0.685634  
      65A      0.710037    66A      0.734961    67A      0.746656  
      68A      0.757986    69A      0.789103    70A      0.800530  
      71A      0.816595    72A      0.860270    73A      0.870550  
      74A      0.906320    75A      0.918959    76A      0.943225  
      77A      0.952185    78A      0.974349    79A      0.994966  
      80A      1.006175    81A      1.029908    82A      1.040881  
      83A      1.064253    84A      1.080445    85A      1.108471  
      86A      1.121358    87A      1.143383    88A      1.146477  
      89A      1.165028    90A      1.174708    91A      1.180114  
      92A      1.185447    93A      1.211312    94A      1.218135  
      95A      1.229784    96A      1.239902    97A      1.245290  
      98A      1.268767    99A      1.279350   100A      1.290413  
     101A      1.325964   102A      1.350249   103A      1.374167  
     104A      1.397177   105A      1.432151   106A      1.447617  
     107A      1.500532   108A      1.523291   109A      1.582777  
     110A      1.616396   111A      1.694579   112A      1.735321  
     113A      1.744144   114A      1.781279   115A      1.833471  
     116A      1.849616   117A      1.874660   118A      1.939713  
     119A      1.959071   120A      1.988159   121A      2.033230  
     122A      2.063388   123A      2.081596   124A      2.158915  
     125A      2.197178   126A      2.228377   127A      2.236078  
     128A      2.245834   129A      2.266710   130A      2.306323  
     131A      2.333612   132A      2.357920   133A      2.376702  
     134A      2.388892   135A      2.429618   136A      2.447928  
     137A      2.499090   138A      2.534179   139A      2.580624  
     140A      2.610396   141A      2.629101   142A      2.661007  
     143A      2.686561   144A      2.703865   145A      2.715069  
     146A      2.734945   147A      2.744829   148A      2.751800  
     149A      2.774508   150A      2.792255   151A      2.825035  
     152A      2.897073   153A      2.925671   154A      2.975291  
     155A      2.999874   156A      3.020016   157A      3.055704  
     158A      3.093425   159A      3.134245   160A      3.248008  
     161A      3.573761   162A      3.856069   163A      4.624191  
     164A      4.651569   165A      4.761996   166A      4.837459  
     167A      4.883306   168A      4.973899   169A      5.081773  
     170A      5.144519   171A      5.298277  

    Final Occupation by Irrep:
              A 
    DOCC [    37 ]

  Energy converged.

  @DF-RHF Final Energy:  -387.43126377436806

   => Energetics <=

    Nuclear Repulsion Energy =            564.8726134484530803
    One-Electron Energy =               -1645.3682712909330803
    Two-Electron Energy =                 693.0643940681078448
    DFT Exchange-Correlation Energy =       0.0000000000000000
    Empirical Dispersion Energy =           0.0000000000000000
    PCM Polarization Energy =               0.0000000000000000
    EFP Energy =                            0.0000000000000000
    Total Energy =                       -387.4312637743720416

    Alert: EFP and PCM quantities not currently incorporated into SCF psivars.

Properties will be evaluated at   0.000000,   0.000000,   0.000000 Bohr
  ==> Properties <==


Properties computed using the SCF density matrix

  Nuclear Dipole Moment: (a.u.)
     X:    -2.2440      Y:    -0.2113      Z:     3.7454

  Electronic Dipole Moment: (a.u.)
     X:     1.5121      Y:    -0.1736      Z:    -4.2217

  Dipole Moment: (a.u.)
     X:    -0.7319      Y:    -0.3850      Z:    -0.4763     Total:     0.9543

  Dipole Moment: (Debye)
     X:    -1.8603      Y:    -0.9785      Z:    -1.2105     Total:     2.4256


  Saving occupied orbitals to File 180.

*** tstop() called on cx1-3-4-2.cx1.hpc.ic.ac.uk at Tue Jul  5 18:44:03 2016
Module time:
	user time   =      32.02 seconds =       0.53 minutes
	system time =       0.30 seconds =       0.01 minutes
	total time  =         32 seconds =       0.53 minutes
Total time:
	user time   =      32.02 seconds =       0.53 minutes
	system time =       0.30 seconds =       0.01 minutes
	total time  =         32 seconds =       0.53 minutes


Properties will be evaluated at   0.000000,   0.000000,   0.000000 Bohr

Properties computed using the  density matrix

  Nuclear Dipole Moment: (a.u.)
     X:    -2.2440      Y:    -0.2113      Z:     3.7454

  Electronic Dipole Moment: (a.u.)
     X:     1.5121      Y:    -0.1736      Z:    -4.2217

  Dipole Moment: (a.u.)
     X:    -0.7319      Y:    -0.3850      Z:    -0.4763     Total:     0.9543

  Dipole Moment: (Debye)
     X:    -1.8603      Y:    -0.9785      Z:    -1.2105     Total:     2.4256

  Quadrupole Moment: (Debye Ang)
    XX:   -62.7159     YY:   -58.1637     ZZ:   -63.3385
    XY:    -2.0484     XZ:     0.1572     YZ:    -0.3567

  Traceless Quadrupole Moment: (Debye Ang)
    XX:    -1.3099     YY:     3.2423     ZZ:    -1.9325
    XY:    -2.0484     XZ:     0.1572     YZ:    -0.3567

  Mulliken Charges: (a.u.)
   Center  Symbol    Alpha    Beta     Spin     Total
       1     H     0.25872  0.25872  0.00000  0.48257
       2     O     4.33363  4.33363  0.00000 -0.66725
       3     C     3.04684  3.04684  0.00000 -0.09368
       4     C     3.19462  3.19462  0.00000 -0.38924
       5     H     0.40320  0.40320  0.00000  0.19360
       6     H     0.40532  0.40532  0.00000  0.18937
       7     C     3.15522  3.15522  0.00000 -0.31045
       8     H     0.41165  0.41165  0.00000  0.17671
       9     H     0.39709  0.39709  0.00000  0.20581
      10     C     3.16277  3.16277  0.00000 -0.32553
      11     H     0.41086  0.41086  0.00000  0.17827
      12     H     0.42006  0.42006  0.00000  0.15989
      13     C     3.30054  3.30054  0.00000 -0.60107
      14     H     0.41618  0.41618  0.00000  0.16765
      15     H     0.40730  0.40730  0.00000  0.18541
      16     C     3.07529  3.07529  0.00000 -0.15058
      17     H     0.36526  0.36526  0.00000  0.26949
      18     H     0.38154  0.38154  0.00000  0.23693
      19     C     3.13820  3.13820  0.00000 -0.27641
      20     H     0.43390  0.43390  0.00000  0.13221
      21     H     0.47695  0.47695  0.00000  0.04610
      22     C     3.25852  3.25852  0.00000 -0.51705
      23     H     0.43026  0.43026  0.00000  0.13949
      24     H     0.44854  0.44854  0.00000  0.10292
      25     H     0.42733  0.42733  0.00000  0.14533
      26     H     0.42117  0.42117  0.00000  0.15766
      27     H     0.41906  0.41906  0.00000  0.16188

   Total alpha = 37.00000, Total beta = 37.00000, Total charge = -0.00000


*** PSI4 exiting successfully. Buy a developer a beer!
