    -----------------------------------------------------------------------
          Psi4: An Open-Source Ab Initio Electronic Structure Package
                              Psi4 (no tag) Driver

                          Git: Rev {detached?}  

    J. M. Turney, A. C. Simmonett, R. M. Parrish, E. G. Hohenstein,
    F. A. Evangelista, J. T. Fermann, B. J. Mintz, L. A. Burns, J. J. Wilke,
    M. L. Abrams, N. J. Russ, M. L. Leininger, C. L. Janssen, E. T. Seidl,
    W. D. Allen, H. F. Schaefer, R. A. King, E. F. Valeev, C. D. Sherrill,
    and T. D. Crawford, WIREs Comput. Mol. Sci. 2, 556-565 (2012)
    (doi: 10.1002/wcms.93)

                         Additional Contributions by
    A. E. DePrince, M. Saitow, U. Bozkaya, A. Yu. Sokolov
    -----------------------------------------------------------------------


    Psi4 started on: Tue Jul  5 16:40:17 2016

    Process ID:  12489
    PSI4DATADIR: /export131/home/mjharvey/miniconda3/share
    Memory level set to 256.000 MB

  ==> Input File <==

--------------------------------------------------------------------------
set {
	reference rhf
	basis 6-31G*
}


set_num_threads( 1 )
memory 2 gb

molecule MOL {
0 1

H	 -2.153054	 -2.250733	 0.000000
O	 -2.462445	 -1.355403	 0.000000
C	 -1.434260	 -0.483044	 0.000000
C	 -0.148134	 -1.012751	 -0.000000
C	 -1.618242	 0.886650	 0.000000
H	 -0.029622	 -2.079948	 -0.000000
C	 0.944059	 -0.169776	 -0.000000
H	 -2.607197	 1.309170	 0.000000
C	 -0.505647	 1.724241	 0.000000
H	 1.934311	 -0.586874	 -0.000000
C	 0.779268	 1.208316	 -0.000000
C	 -0.706484	 3.156079	 0.000000
H	 1.626851	 1.866482	 -0.000000
N	 -0.866877	 4.280881	 0.000000

	symmetry c1
}
set optking {
	frozen_dihedral = ("
		14 12 9 5
	")
}

ee = energy('scf')
oeprop('DIPOLE', 'QUADRUPOLE', 'MULLIKEN_CHARGES')
f=open( 'psi4out.xyz', 'w' )
f.write( "14  " )
f.write( str(ee) + "\n" )
f.write( MOL.save_string_xyz() )
f.close()
--------------------------------------------------------------------------

  Memory set to   2.000 GiB by Python script.

*** tstart() called on cx1-3-4-4.cx1.hpc.ic.ac.uk
*** at Tue Jul  5 16:40:18 2016


         ---------------------------------------------------------
                                   SCF
            by Justin Turney, Rob Parrish, and Andy Simmonett
                              RHF Reference
                        1 Threads,   2000 MiB Core
         ---------------------------------------------------------

  ==> Geometry <==

    Molecular point group: c1
    Full point group: Cs

    Geometry (in Angstrom), charge = 0, multiplicity = 1:

       Center              X                  Y                   Z               Mass       
    ------------   -----------------  -----------------  -----------------  -----------------
           H         -1.438678933992    -3.092713971775     0.000000000000     1.007825032070
           O         -1.748069933992    -2.197383971775     0.000000000000    15.994914619560
           C         -0.719884933992    -1.325024971775     0.000000000000    12.000000000000
           C          0.566241066008    -1.854731971775     0.000000000000    12.000000000000
           C         -0.903866933992     0.044669028225     0.000000000000    12.000000000000
           H          0.684753066008    -2.921928971775     0.000000000000     1.007825032070
           C          1.658434066008    -1.011756971775     0.000000000000    12.000000000000
           H         -1.892821933992     0.467189028225     0.000000000000     1.007825032070
           C          0.208728066008     0.882260028225     0.000000000000    12.000000000000
           H          2.648686066008    -1.428854971775     0.000000000000     1.007825032070
           C          1.493643066008     0.366335028225     0.000000000000    12.000000000000
           C          0.007891066008     2.314098028225     0.000000000000    12.000000000000
           H          2.341226066008     1.024501028225     0.000000000000     1.007825032070
           N         -0.152501933992     3.438900028225     0.000000000000    14.003074004780

  Running in c1 symmetry.

  Rotational constants: A =      0.11887  B =      0.04008  C =      0.02997 [cm^-1]
  Rotational constants: A =   3563.60203  B =   1201.56922  C =    898.58565 [MHz]
  Nuclear repulsion =  379.331690961341849

  Charge       = 0
  Multiplicity = 1
  Electrons    = 62
  Nalpha       = 31
  Nbeta        = 31

  ==> Algorithm <==

  SCF Algorithm Type is DF.
  DIIS enabled.
  MOM disabled.
  Fractional occupation disabled.
  Guess Type is CORE.
  Energy threshold   = 1.00e-06
  Density threshold  = 1.00e-06
  Integral threshold = 0.00e+00

  ==> Primary Basis <==

  Basis Set: 6-31G*
    Number of shells: 64
    Number of basis function: 145
    Number of Cartesian functions: 145
    Spherical Harmonics?: false
    Max angular momentum: 2

  ==> Pre-Iterations <==

   -------------------------------------------------------
    Irrep   Nso     Nmo     Nalpha   Nbeta   Ndocc  Nsocc
   -------------------------------------------------------
     A        145     145       0       0       0       0
   -------------------------------------------------------
    Total     145     145      31      31      31       0
   -------------------------------------------------------

 OEINTS: Overlap, kinetic, potential, dipole, and quadrupole integrals
         stored in file 35.

  ==> Integral Setup <==

  ==> DFJK: Density-Fitted J/K Matrices <==

    J tasked:                  Yes
    K tasked:                  Yes
    wK tasked:                  No
    OpenMP threads:              1
    Integrals threads:           1
    Memory (MB):              1430
    Algorithm:                Core
    Integral Cache:           NONE
    Schwarz Cutoff:          1E-12
    Fitting Condition:       1E-12

   => Auxiliary Basis Set <=

  Basis Set: 
    Number of shells: 261
    Number of basis function: 854
    Number of Cartesian functions: 854
    Spherical Harmonics?: false
    Max angular momentum: 3

  Minimum eigenvalue in the overlap matrix is 4.1977566386E-04.
  Using Symmetric Orthogonalization.
  SCF Guess: Core (One-Electron) Hamiltonian.

  ==> Iterations <==

                           Total Energy        Delta E     RMS |[F,P]|

   @DF-RHF iter   1:  -309.41358489843475   -3.09414e+02   6.50455e-02 
   @DF-RHF iter   2:  -146.42638352696366    1.62987e+02   7.88534e-02 DIIS
   @DF-RHF iter   3:  -317.87200739228678   -1.71446e+02   5.28101e-02 DIIS
   @DF-RHF iter   4:  -341.80073901850454   -2.39287e+01   5.25433e-02 DIIS
   @DF-RHF iter   5:  -395.80076569063743   -5.40000e+01   1.10806e-02 DIIS
   @DF-RHF iter   6:  -397.08855802298177   -1.28779e+00   4.29902e-03 DIIS
   @DF-RHF iter   7:  -397.26950769472904   -1.80950e-01   1.22527e-03 DIIS
   @DF-RHF iter   8:  -397.28596400904161   -1.64563e-02   4.36083e-04 DIIS
   @DF-RHF iter   9:  -397.28851547285802   -2.55146e-03   1.43716e-04 DIIS
   @DF-RHF iter  10:  -397.28891114036281   -3.95668e-04   6.12395e-05 DIIS
   @DF-RHF iter  11:  -397.28901498003546   -1.03840e-04   3.09486e-05 DIIS
   @DF-RHF iter  12:  -397.28906556345299   -5.05834e-05   1.38701e-05 DIIS
   @DF-RHF iter  13:  -397.28907542007170   -9.85662e-06   7.28283e-06 DIIS
   @DF-RHF iter  14:  -397.28907890493298   -3.48486e-06   2.46321e-06 DIIS
   @DF-RHF iter  15:  -397.28907916887709   -2.63944e-07   5.65786e-07 DIIS

  ==> Post-Iterations <==

    Orbital Energies (a.u.)
    -----------------------

    Doubly Occupied:                                                      

       1A    -20.611436     2A    -15.574837     3A    -11.327367  
       4A    -11.295040     5A    -11.275921     6A    -11.264968  
       7A    -11.261153     8A    -11.259397     9A    -11.258644  
      10A     -1.433303    11A     -1.232426    12A     -1.182544  
      13A     -1.063473    14A     -1.039999    15A     -0.899085  
      16A     -0.859210    17A     -0.794122    18A     -0.718219  
      19A     -0.691285    20A     -0.675481    21A     -0.628770  
      22A     -0.613413    23A     -0.594338    24A     -0.566967  
      25A     -0.547209    26A     -0.537873    27A     -0.523075  
      28A     -0.473522    29A     -0.472082    30A     -0.363731  
      31A     -0.337218  

    Virtual:                                                              

      32A      0.085833    33A      0.132761    34A      0.199805  
      35A      0.220237    36A      0.226209    37A      0.274149  
      38A      0.280429    39A      0.290819    40A      0.330599  
      41A      0.369401    42A      0.378536    43A      0.437250  
      44A      0.455893    45A      0.468620    46A      0.485978  
      47A      0.570393    48A      0.598533    49A      0.633838  
      50A      0.700091    51A      0.714057    52A      0.717153  
      53A      0.757104    54A      0.782689    55A      0.793200  
      56A      0.803098    57A      0.804011    58A      0.827431  
      59A      0.852035    60A      0.856488    61A      0.870956  
      62A      0.883674    63A      0.887322    64A      0.937659  
      65A      0.955057    66A      0.991211    67A      0.996708  
      68A      1.064705    69A      1.089870    70A      1.104065  
      71A      1.104095    72A      1.123486    73A      1.126973  
      74A      1.139384    75A      1.170810    76A      1.189904  
      77A      1.225003    78A      1.227685    79A      1.261970  
      80A      1.330828    81A      1.376535    82A      1.392320  
      83A      1.437909    84A      1.451074    85A      1.465191  
      86A      1.518067    87A      1.569703    88A      1.586250  
      89A      1.620007    90A      1.624433    91A      1.688858  
      92A      1.698847    93A      1.729866    94A      1.733289  
      95A      1.799727    96A      1.807118    97A      1.845380  
      98A      2.002085    99A      2.006130   100A      2.062048  
     101A      2.078066   102A      2.099747   103A      2.110206  
     104A      2.153991   105A      2.227316   106A      2.241700  
     107A      2.262179   108A      2.285253   109A      2.292097  
     110A      2.295281   111A      2.329995   112A      2.388089  
     113A      2.422220   114A      2.440328   115A      2.453091  
     116A      2.537384   117A      2.589004   118A      2.616473  
     119A      2.624549   120A      2.752303   121A      2.823144  
     122A      2.843052   123A      2.868522   124A      2.930851  
     125A      2.993314   126A      3.002663   127A      3.024301  
     128A      3.098097   129A      3.138470   130A      3.168852  
     131A      3.209490   132A      3.280167   133A      3.382425  
     134A      3.562850   135A      3.674807   136A      3.870989  
     137A      4.350743   138A      4.465652   139A      4.506232  
     140A      4.559830   141A      4.613363   142A      4.721035  
     143A      4.828437   144A      4.970679   145A      5.257938  

    Final Occupation by Irrep:
              A 
    DOCC [    31 ]

  Energy converged.

  @DF-RHF Final Energy:  -397.28907916887709

   => Energetics <=

    Nuclear Repulsion Energy =            379.3316909613418488
    One-Electron Energy =               -1290.4891149567267803
    Two-Electron Energy =                 513.8683448265080642
    DFT Exchange-Correlation Energy =       0.0000000000000000
    Empirical Dispersion Energy =           0.0000000000000000
    PCM Polarization Energy =               0.0000000000000000
    EFP Energy =                            0.0000000000000000
    Total Energy =                       -397.2890791688769241

    Alert: EFP and PCM quantities not currently incorporated into SCF psivars.

Properties will be evaluated at   0.000000,   0.000000,   0.000000 Bohr
  ==> Properties <==


Properties computed using the SCF density matrix

  Nuclear Dipole Moment: (a.u.)
     X:     2.1887      Y:    -5.6002      Z:     0.0000

  Electronic Dipole Moment: (a.u.)
     X:    -1.4798      Y:     3.3857      Z:    -0.0000

  Dipole Moment: (a.u.)
     X:     0.7089      Y:    -2.2145      Z:    -0.0000     Total:     2.3252

  Dipole Moment: (Debye)
     X:     1.8018      Y:    -5.6287      Z:    -0.0000     Total:     5.9100


  Saving occupied orbitals to File 180.

*** tstop() called on cx1-3-4-4.cx1.hpc.ic.ac.uk at Tue Jul  5 16:40:35 2016
Module time:
	user time   =      17.02 seconds =       0.28 minutes
	system time =       0.10 seconds =       0.00 minutes
	total time  =         17 seconds =       0.28 minutes
Total time:
	user time   =      17.02 seconds =       0.28 minutes
	system time =       0.10 seconds =       0.00 minutes
	total time  =         17 seconds =       0.28 minutes


Properties will be evaluated at   0.000000,   0.000000,   0.000000 Bohr

Properties computed using the  density matrix

  Nuclear Dipole Moment: (a.u.)
     X:     2.1887      Y:    -5.6002      Z:     0.0000

  Electronic Dipole Moment: (a.u.)
     X:    -1.4798      Y:     3.3857      Z:    -0.0000

  Dipole Moment: (a.u.)
     X:     0.7089      Y:    -2.2145      Z:    -0.0000     Total:     2.3252

  Dipole Moment: (Debye)
     X:     1.8018      Y:    -5.6287      Z:    -0.0000     Total:     5.9100

  Quadrupole Moment: (Debye Ang)
    XX:   -48.7128     YY:   -57.1609     ZZ:   -54.1148
    XY:    -0.2184     XZ:     0.0000     YZ:     0.0000

  Traceless Quadrupole Moment: (Debye Ang)
    XX:     4.6167     YY:    -3.8315     ZZ:    -0.7853
    XY:    -0.2184     XZ:     0.0000     YZ:     0.0000

  Mulliken Charges: (a.u.)
   Center  Symbol    Alpha    Beta     Spin     Total
       1     H     0.26681  0.26681  0.00000  0.46637
       2     O     4.37896  4.37896  0.00000 -0.75792
       3     C     2.78206  2.78206  0.00000  0.43587
       4     C     3.13975  3.13975  0.00000 -0.27949
       5     C     3.11607  3.11607  0.00000 -0.23215
       6     H     0.39690  0.39690  0.00000  0.20619
       7     C     3.09466  3.09466  0.00000 -0.18932
       8     H     0.37401  0.37401  0.00000  0.25199
       9     C     2.99069  2.99069  0.00000  0.01862
      10     H     0.38936  0.38936  0.00000  0.22129
      11     C     3.09983  3.09983  0.00000 -0.19966
      12     C     2.86527  2.86527  0.00000  0.26946
      13     H     0.38126  0.38126  0.00000  0.23747
      14     N     3.72437  3.72437  0.00000 -0.44873

   Total alpha = 31.00000, Total beta = 31.00000, Total charge = -0.00000


*** PSI4 exiting successfully. Buy a developer a beer!
