    -----------------------------------------------------------------------
          Psi4: An Open-Source Ab Initio Electronic Structure Package
                              Psi4 (no tag) Driver

                          Git: Rev {detached?}  

    J. M. Turney, A. C. Simmonett, R. M. Parrish, E. G. Hohenstein,
    F. A. Evangelista, J. T. Fermann, B. J. Mintz, L. A. Burns, J. J. Wilke,
    M. L. Abrams, N. J. Russ, M. L. Leininger, C. L. Janssen, E. T. Seidl,
    W. D. Allen, H. F. Schaefer, R. A. King, E. F. Valeev, C. D. Sherrill,
    and T. D. Crawford, WIREs Comput. Mol. Sci. 2, 556-565 (2012)
    (doi: 10.1002/wcms.93)

                         Additional Contributions by
    A. E. DePrince, M. Saitow, U. Bozkaya, A. Yu. Sokolov
    -----------------------------------------------------------------------


    Psi4 started on: Tue Jul  5 16:43:03 2016

    Process ID:  29853
    PSI4DATADIR: /export131/home/mjharvey/miniconda3/share
    Memory level set to 256.000 MB

  ==> Input File <==

--------------------------------------------------------------------------
set {
	reference rhf
	basis 6-31G*
}


set_num_threads( 1 )
memory 2 gb

molecule MOL {
0 1

H	 0.075655	 1.724700	 0.560390
N	 -0.456516	 0.876527	 0.541107
C	 0.411825	 -0.271767	 0.350028
H	 -1.096509	 0.942907	 -0.226429
C	 0.971803	 -0.268062	 -1.056935
H	 1.245876	 -0.313000	 1.051925
H	 -0.173567	 -1.175924	 0.486406
O	 -0.088814	 -0.446451	 -1.951562
H	 1.476952	 0.676258	 -1.258733
H	 1.695616	 -1.072886	 -1.164576
C	 -1.068576	 0.540042	 -1.884706
H	 -0.572938	 1.499352	 -1.946074
H	 -1.774739	 0.456140	 -2.708888
H	 -1.622043	 0.487944	 -0.949415

	symmetry c1
}
set optking {
	frozen_dihedral = ("
		8 5 3 6,
		6 3 2 4,
		5 8 11 13
	")
}

ee = energy('scf')
oeprop('DIPOLE', 'QUADRUPOLE', 'MULLIKEN_CHARGES')
f=open( 'psi4out.xyz', 'w' )
f.write( "14  " )
f.write( str(ee) + "\n" )
f.write( MOL.save_string_xyz() )
f.close()
--------------------------------------------------------------------------

  Memory set to   2.000 GiB by Python script.

*** tstart() called on cx1-3-6-4.cx1.hpc.ic.ac.uk
*** at Tue Jul  5 16:43:03 2016


         ---------------------------------------------------------
                                   SCF
            by Justin Turney, Rob Parrish, and Andy Simmonett
                              RHF Reference
                        1 Threads,   2000 MiB Core
         ---------------------------------------------------------

  ==> Geometry <==

    Molecular point group: c1
    Full point group: C1

    Geometry (in Angstrom), charge = 0, multiplicity = 1:

       Center              X                  Y                   Z               Mass       
    ------------   -----------------  -----------------  -----------------  -----------------
           H          0.139384970209     1.612983061347     1.372193782419     1.007825032070
           N         -0.392786029791     0.764810061347     1.352910782419    14.003074004780
           C          0.475554970209    -0.383483938653     1.161831782419    12.000000000000
           H         -1.032779029791     0.831190061347     0.585374782419     1.007825032070
           C          1.035532970209    -0.379778938653    -0.245131217581    12.000000000000
           H          1.309605970209    -0.424716938653     1.863728782419     1.007825032070
           H         -0.109837029791    -1.287640938653     1.298209782419     1.007825032070
           O         -0.025084029791    -0.558167938653    -1.139758217581    15.994914619560
           H          1.540681970209     0.564541061347    -0.446929217581     1.007825032070
           H          1.759345970209    -1.184602938653    -0.352772217581     1.007825032070
           C         -1.004846029791     0.428325061347    -1.072902217581    12.000000000000
           H         -0.509208029791     1.387635061347    -1.134270217581     1.007825032070
           H         -1.711009029791     0.344423061347    -1.897084217581     1.007825032070
           H         -1.558313029791     0.376227061347    -0.137611217581     1.007825032070

  Running in c1 symmetry.

  Rotational constants: A =      0.25172  B =      0.16129  C =      0.11095 [cm^-1]
  Rotational constants: A =   7546.42236  B =   4835.48728  C =   3326.30645 [MHz]
  Nuclear repulsion =  205.455514266747912

  Charge       = 0
  Multiplicity = 1
  Electrons    = 42
  Nalpha       = 21
  Nbeta        = 21

  ==> Algorithm <==

  SCF Algorithm Type is DF.
  DIIS enabled.
  MOM disabled.
  Fractional occupation disabled.
  Guess Type is CORE.
  Energy threshold   = 1.00e-06
  Density threshold  = 1.00e-06
  Integral threshold = 0.00e+00

  ==> Primary Basis <==

  Basis Set: 6-31G*
    Number of shells: 48
    Number of basis function: 93
    Number of Cartesian functions: 93
    Spherical Harmonics?: false
    Max angular momentum: 2

  ==> Pre-Iterations <==

   -------------------------------------------------------
    Irrep   Nso     Nmo     Nalpha   Nbeta   Ndocc  Nsocc
   -------------------------------------------------------
     A         93      93       0       0       0       0
   -------------------------------------------------------
    Total      93      93      21      21      21       0
   -------------------------------------------------------

 OEINTS: Overlap, kinetic, potential, dipole, and quadrupole integrals
         stored in file 35.

  ==> Integral Setup <==

  ==> DFJK: Density-Fitted J/K Matrices <==

    J tasked:                  Yes
    K tasked:                  Yes
    wK tasked:                  No
    OpenMP threads:              1
    Integrals threads:           1
    Memory (MB):              1430
    Algorithm:                Core
    Integral Cache:           NONE
    Schwarz Cutoff:          1E-12
    Fitting Condition:       1E-12

   => Auxiliary Basis Set <=

  Basis Set: 
    Number of shells: 201
    Number of basis function: 630
    Number of Cartesian functions: 630
    Spherical Harmonics?: false
    Max angular momentum: 3

  Minimum eigenvalue in the overlap matrix is 4.8830686479E-03.
  Using Symmetric Orthogonalization.
  SCF Guess: Core (One-Electron) Hamiltonian.

  ==> Iterations <==

                           Total Energy        Delta E     RMS |[F,P]|

   @DF-RHF iter   1:  -203.68667022294142   -2.03687e+02   7.93493e-02 
   @DF-RHF iter   2:  -185.57137312699047    1.81153e+01   7.18728e-02 DIIS
   @DF-RHF iter   3:  -232.53468768240498   -4.69633e+01   3.62668e-02 DIIS
   @DF-RHF iter   4:  -232.73262077746438   -1.97933e-01   4.54364e-02 DIIS
   @DF-RHF iter   5:  -247.88327445487158   -1.51507e+01   6.28383e-03 DIIS
   @DF-RHF iter   6:  -248.00301068242237   -1.19736e-01   2.96392e-03 DIIS
   @DF-RHF iter   7:  -248.02946970419970   -2.64590e-02   1.46735e-03 DIIS
   @DF-RHF iter   8:  -248.03871442605418   -9.24472e-03   5.78699e-04 DIIS
   @DF-RHF iter   9:  -248.04051516242839   -1.80074e-03   1.70666e-04 DIIS
   @DF-RHF iter  10:  -248.04069953027067   -1.84368e-04   4.33455e-05 DIIS
   @DF-RHF iter  11:  -248.04070907517337   -9.54490e-06   1.69845e-05 DIIS
   @DF-RHF iter  12:  -248.04071111339664   -2.03822e-06   3.87093e-06 DIIS
   @DF-RHF iter  13:  -248.04071122757199   -1.14175e-07   8.48424e-07 DIIS

  ==> Post-Iterations <==

    Orbital Energies (a.u.)
    -----------------------

    Doubly Occupied:                                                      

       1A    -20.564693     2A    -15.516859     3A    -11.278359  
       4A    -11.270199     5A    -11.242615     6A     -1.393936  
       7A     -1.188146     8A     -1.023634     9A     -0.913230  
      10A     -0.840820    11A     -0.744654    12A     -0.676744  
      13A     -0.644231    14A     -0.612371    15A     -0.595528  
      16A     -0.568344    17A     -0.526567    18A     -0.518749  
      19A     -0.468389    20A     -0.427784    21A     -0.361952  

    Virtual:                                                              

      22A      0.224122    23A      0.273511    24A      0.279304  
      25A      0.293434    26A      0.299729    27A      0.315220  
      28A      0.328326    29A      0.338273    30A      0.344146  
      31A      0.399663    32A      0.421657    33A      0.452768  
      34A      0.494990    35A      0.746093    36A      0.764438  
      37A      0.778025    38A      0.793439    39A      0.806584  
      40A      0.849478    41A      0.868395    42A      0.910892  
      43A      0.943642    44A      1.038843    45A      1.068854  
      46A      1.084713    47A      1.113984    48A      1.129282  
      49A      1.148641    50A      1.177352    51A      1.189348  
      52A      1.216423    53A      1.222497    54A      1.233074  
      55A      1.258578    56A      1.344403    57A      1.363801  
      58A      1.404440    59A      1.550186    60A      1.626633  
      61A      1.629086    62A      1.692090    63A      1.774580  
      64A      1.808533    65A      1.872658    66A      1.944123  
      67A      2.003840    68A      2.034594    69A      2.218852  
      70A      2.232365    71A      2.341661    72A      2.367901  
      73A      2.381341    74A      2.440679    75A      2.461953  
      76A      2.494944    77A      2.512310    78A      2.606865  
      79A      2.689227    80A      2.711433    81A      2.767196  
      82A      2.800582    83A      2.900725    84A      2.933240  
      85A      3.019743    86A      3.110796    87A      3.136755  
      88A      3.298961    89A      4.262550    90A      4.468731  
      91A      4.657698    92A      4.756927    93A      4.889450  

    Final Occupation by Irrep:
              A 
    DOCC [    21 ]

  Energy converged.

  @DF-RHF Final Energy:  -248.04071122757199

   => Energetics <=

    Nuclear Repulsion Energy =            205.4555142667479117
    One-Electron Energy =                -744.2366357360928077
    Two-Electron Energy =                 290.7404102417728495
    DFT Exchange-Correlation Energy =       0.0000000000000000
    Empirical Dispersion Energy =           0.0000000000000000
    PCM Polarization Energy =               0.0000000000000000
    EFP Energy =                            0.0000000000000000
    Total Energy =                       -248.0407112275721033

    Alert: EFP and PCM quantities not currently incorporated into SCF psivars.

Properties will be evaluated at   0.000000,   0.000000,   0.000000 Bohr
  ==> Properties <==


Properties computed using the SCF density matrix

  Nuclear Dipole Moment: (a.u.)
     X:    -0.1603      Y:     2.0763      Z:     1.0695

  Electronic Dipole Moment: (a.u.)
     X:     0.4388      Y:    -1.5927      Z:    -1.2968

  Dipole Moment: (a.u.)
     X:     0.2785      Y:     0.4836      Z:    -0.2273     Total:     0.6026

  Dipole Moment: (Debye)
     X:     0.7079      Y:     1.2293      Z:    -0.5777     Total:     1.5317


  Saving occupied orbitals to File 180.

*** tstop() called on cx1-3-6-4.cx1.hpc.ic.ac.uk at Tue Jul  5 16:43:09 2016
Module time:
	user time   =       4.96 seconds =       0.08 minutes
	system time =       0.05 seconds =       0.00 minutes
	total time  =          6 seconds =       0.10 minutes
Total time:
	user time   =       4.96 seconds =       0.08 minutes
	system time =       0.05 seconds =       0.00 minutes
	total time  =          6 seconds =       0.10 minutes


Properties will be evaluated at   0.000000,   0.000000,   0.000000 Bohr

Properties computed using the  density matrix

  Nuclear Dipole Moment: (a.u.)
     X:    -0.1603      Y:     2.0763      Z:     1.0695

  Electronic Dipole Moment: (a.u.)
     X:     0.4388      Y:    -1.5927      Z:    -1.2968

  Dipole Moment: (a.u.)
     X:     0.2785      Y:     0.4836      Z:    -0.2273     Total:     0.6026

  Dipole Moment: (Debye)
     X:     0.7079      Y:     1.2293      Z:    -0.5777     Total:     1.5317

  Quadrupole Moment: (Debye Ang)
    XX:   -29.7303     YY:   -31.2379     ZZ:   -38.8619
    XY:    -0.5046     XZ:     3.7733     YZ:    -3.1846

  Traceless Quadrupole Moment: (Debye Ang)
    XX:     3.5464     YY:     2.0388     ZZ:    -5.5852
    XY:    -0.5046     XZ:     3.7733     YZ:    -3.1846

  Mulliken Charges: (a.u.)
   Center  Symbol    Alpha    Beta     Spin     Total
       1     H     0.33850  0.33850  0.00000  0.32301
       2     N     3.92775  3.92775  0.00000 -0.85549
       3     C     3.08236  3.08236  0.00000 -0.16472
       4     H     0.32597  0.32597  0.00000  0.34805
       5     C     3.00255  3.00255  0.00000 -0.00510
       6     H     0.41851  0.41851  0.00000  0.16298
       7     H     0.40965  0.40965  0.00000  0.18070
       8     O     4.30109  4.30109  0.00000 -0.60218
       9     H     0.43280  0.43280  0.00000  0.13441
      10     H     0.41388  0.41388  0.00000  0.17224
      11     C     3.09923  3.09923  0.00000 -0.19847
      12     H     0.42432  0.42432  0.00000  0.15136
      13     H     0.40849  0.40849  0.00000  0.18301
      14     H     0.41490  0.41490  0.00000  0.17020

   Total alpha = 21.00000, Total beta = 21.00000, Total charge =  0.00000


*** PSI4 exiting successfully. Buy a developer a beer!
