    -----------------------------------------------------------------------
          Psi4: An Open-Source Ab Initio Electronic Structure Package
                              Psi4 (no tag) Driver

                          Git: Rev {detached?}  

    J. M. Turney, A. C. Simmonett, R. M. Parrish, E. G. Hohenstein,
    F. A. Evangelista, J. T. Fermann, B. J. Mintz, L. A. Burns, J. J. Wilke,
    M. L. Abrams, N. J. Russ, M. L. Leininger, C. L. Janssen, E. T. Seidl,
    W. D. Allen, H. F. Schaefer, R. A. King, E. F. Valeev, C. D. Sherrill,
    and T. D. Crawford, WIREs Comput. Mol. Sci. 2, 556-565 (2012)
    (doi: 10.1002/wcms.93)

                         Additional Contributions by
    A. E. DePrince, M. Saitow, U. Bozkaya, A. Yu. Sokolov
    -----------------------------------------------------------------------


    Psi4 started on: Tue Jul  5 17:35:13 2016

    Process ID:  18125
    PSI4DATADIR: /export131/home/mjharvey/miniconda3/share
    Memory level set to 256.000 MB

  ==> Input File <==

--------------------------------------------------------------------------
set {
	reference rhf
	basis 6-31G*
}


set_num_threads( 1 )
memory 2 gb

molecule MOL {
0 1

H	 0.033122	 -2.361266	 1.219669
O	 0.141052	 -2.643897	 0.316770
C	 0.102382	 -1.563045	 -0.462125
C	 0.624473	 -0.343591	 0.253101
O	 -0.302492	 -1.603202	 -1.578136
C	 -0.265902	 0.883932	 0.072916
H	 0.740303	 -0.614115	 1.297502
H	 1.628992	 -0.158063	 -0.118751
C	 -1.728698	 0.646073	 0.462102
H	 -0.209144	 1.219470	 -0.958188
H	 0.135059	 1.692851	 0.673903
C	 -1.933463	 -0.055758	 1.807637
H	 -2.191054	 0.043809	 -0.316529
H	 -2.262759	 1.595242	 0.465784
C	 -1.105121	 0.571202	 2.928908
H	 -2.987870	 -0.018849	 2.073919
H	 -1.675047	 -1.108293	 1.725337
H	 -1.265435	 0.056496	 3.871082
H	 -1.367390	 1.615363	 3.073030
H	 -0.043259	 0.525961	 2.703877

	symmetry c1
}
set optking {
	frozen_dihedral = ("
		16 12 9 6,
		7 4 6 10,
		12 9 6 10,
		5 3 4 7
	")
}

ee = energy('scf')
oeprop('DIPOLE', 'QUADRUPOLE', 'MULLIKEN_CHARGES')
f=open( 'psi4out.xyz', 'w' )
f.write( "20  " )
f.write( str(ee) + "\n" )
f.write( MOL.save_string_xyz() )
f.close()
--------------------------------------------------------------------------

  Memory set to   2.000 GiB by Python script.

*** tstart() called on cx1-1-1-2.cx1.hpc.ic.ac.uk
*** at Tue Jul  5 17:35:13 2016


         ---------------------------------------------------------
                                   SCF
            by Justin Turney, Rob Parrish, and Andy Simmonett
                              RHF Reference
                        1 Threads,   2000 MiB Core
         ---------------------------------------------------------

  ==> Geometry <==

    Molecular point group: c1
    Full point group: C1

    Geometry (in Angstrom), charge = 0, multiplicity = 1:

       Center              X                  Y                   Z               Mass       
    ------------   -----------------  -----------------  -----------------  -----------------
           H          0.582696941277    -1.812023219202     0.733738732843     1.007825032070
           O          0.690626941277    -2.094654219202    -0.169160267157    15.994914619560
           C          0.651956941277    -1.013802219202    -0.948055267157    12.000000000000
           C          1.174047941277     0.205651780798    -0.232829267157    12.000000000000
           O          0.247082941277    -1.053959219202    -2.064066267157    15.994914619560
           C          0.283672941277     1.433174780798    -0.413014267157    12.000000000000
           H          1.289877941277    -0.064872219202     0.811571732843     1.007825032070
           H          2.178566941277     0.391179780798    -0.604681267157     1.007825032070
           C         -1.179123058723     1.195315780798    -0.023828267157    12.000000000000
           H          0.340430941277     1.768712780798    -1.444118267157     1.007825032070
           H          0.684633941277     2.242093780798     0.187972732843     1.007825032070
           C         -1.383888058723     0.493484780798     1.321706732843    12.000000000000
           H         -1.641479058723     0.593051780798    -0.802459267157     1.007825032070
           H         -1.713184058723     2.144484780798    -0.020146267157     1.007825032070
           C         -0.555546058723     1.120444780798     2.442977732843    12.000000000000
           H         -2.438295058723     0.530393780798     1.587988732843     1.007825032070
           H         -1.125472058723    -0.559050219202     1.239406732843     1.007825032070
           H         -0.715860058723     0.605738780798     3.385151732843     1.007825032070
           H         -0.817815058723     2.164605780798     2.587099732843     1.007825032070
           H          0.506315941277     1.075203780798     2.217946732843     1.007825032070

  Running in c1 symmetry.

  Rotational constants: A =      0.10420  B =      0.04406  C =      0.03927 [cm^-1]
  Rotational constants: A =   3123.80727  B =   1320.88435  C =   1177.24583 [MHz]
  Nuclear repulsion =  402.567345967404435

  Charge       = 0
  Multiplicity = 1
  Electrons    = 64
  Nalpha       = 32
  Nbeta        = 32

  ==> Algorithm <==

  SCF Algorithm Type is DF.
  DIIS enabled.
  MOM disabled.
  Fractional occupation disabled.
  Guess Type is CORE.
  Energy threshold   = 1.00e-06
  Density threshold  = 1.00e-06
  Integral threshold = 0.00e+00

  ==> Primary Basis <==

  Basis Set: 6-31G*
    Number of shells: 72
    Number of basis function: 144
    Number of Cartesian functions: 144
    Spherical Harmonics?: false
    Max angular momentum: 2

  ==> Pre-Iterations <==

   -------------------------------------------------------
    Irrep   Nso     Nmo     Nalpha   Nbeta   Ndocc  Nsocc
   -------------------------------------------------------
     A        144     144       0       0       0       0
   -------------------------------------------------------
    Total     144     144      32      32      32       0
   -------------------------------------------------------

 OEINTS: Overlap, kinetic, potential, dipole, and quadrupole integrals
         stored in file 35.

  ==> Integral Setup <==

  ==> DFJK: Density-Fitted J/K Matrices <==

    J tasked:                  Yes
    K tasked:                  Yes
    wK tasked:                  No
    OpenMP threads:              1
    Integrals threads:           1
    Memory (MB):              1430
    Algorithm:                Core
    Integral Cache:           NONE
    Schwarz Cutoff:          1E-12
    Fitting Condition:       1E-12

   => Auxiliary Basis Set <=

  Basis Set: 
    Number of shells: 300
    Number of basis function: 948
    Number of Cartesian functions: 948
    Spherical Harmonics?: false
    Max angular momentum: 3

  Minimum eigenvalue in the overlap matrix is 2.9550666276E-03.
  Using Symmetric Orthogonalization.
  SCF Guess: Core (One-Electron) Hamiltonian.

  ==> Iterations <==

                           Total Energy        Delta E     RMS |[F,P]|

   @DF-RHF iter   1:  -300.55459390018154   -3.00555e+02   6.38851e-02 
   @DF-RHF iter   2:  -152.35121000977347    1.48203e+02   8.44081e-02 DIIS
   @DF-RHF iter   3:  -352.65288397759764   -2.00302e+02   3.06588e-02 DIIS
   @DF-RHF iter   4:  -257.10469385047656    9.55482e+01   7.67970e-02 DIIS
   @DF-RHF iter   5:  -310.83965627500152   -5.37350e+01   6.33561e-02 DIIS
   @DF-RHF iter   6:  -339.20549285196671   -2.83658e+01   5.29711e-02 DIIS
   @DF-RHF iter   7:  -351.01862453654746   -1.18131e+01   4.21281e-02 DIIS
   @DF-RHF iter   8:  -365.33116846003850   -1.43125e+01   3.19386e-02 DIIS
   @DF-RHF iter   9:  -379.66589049123218   -1.43347e+01   1.55595e-02 DIIS
   @DF-RHF iter  10:  -383.44329795796853   -3.77741e+00   6.66597e-03 DIIS
   @DF-RHF iter  11:  -383.87534740706087   -4.32049e-01   1.93007e-03 DIIS
   @DF-RHF iter  12:  -383.91421513881323   -3.88677e-02   6.98977e-04 DIIS
   @DF-RHF iter  13:  -383.92097533606193   -6.76020e-03   3.39806e-04 DIIS
   @DF-RHF iter  14:  -383.92253425874674   -1.55892e-03   7.42886e-05 DIIS
   @DF-RHF iter  15:  -383.92263779722180   -1.03538e-04   2.48703e-05 DIIS
   @DF-RHF iter  16:  -383.92265140646032   -1.36092e-05   8.84083e-06 DIIS
   @DF-RHF iter  17:  -383.92265315244458   -1.74598e-06   3.29855e-06 DIIS
   @DF-RHF iter  18:  -383.92265342737687   -2.74932e-07   1.14754e-06 DIIS
   @DF-RHF iter  19:  -383.92265347826640   -5.08895e-08   5.16886e-07 DIIS

  ==> Post-Iterations <==

    Orbital Energies (a.u.)
    -----------------------

    Doubly Occupied:                                                      

       1A    -20.610972     2A    -20.549238     3A    -11.379884  
       4A    -11.249276     5A    -11.235232     6A    -11.234232  
       7A    -11.226085     8A    -11.224479     9A     -1.469631  
      10A     -1.369604    11A     -1.111456    12A     -1.044165  
      13A     -0.964721    14A     -0.885725    15A     -0.830600  
      16A     -0.785835    17A     -0.714200    18A     -0.685302  
      19A     -0.657202    20A     -0.643925    21A     -0.627016  
      22A     -0.605010    23A     -0.574950    24A     -0.559121  
      25A     -0.540123    26A     -0.534752    27A     -0.516604  
      28A     -0.483608    29A     -0.475037    30A     -0.469052  
      31A     -0.465396    32A     -0.436059  

    Virtual:                                                              

      33A      0.178593    34A      0.184968    35A      0.238644  
      36A      0.252572    37A      0.276792    38A      0.282591  
      39A      0.302597    40A      0.314008    41A      0.324457  
      42A      0.331916    43A      0.343831    44A      0.351286  
      45A      0.373400    46A      0.386298    47A      0.406744  
      48A      0.417106    49A      0.442512    50A      0.492168  
      51A      0.525844    52A      0.593181    53A      0.690482  
      54A      0.699998    55A      0.715781    56A      0.734337  
      57A      0.761004    58A      0.774275    59A      0.827708  
      60A      0.851988    61A      0.887433    62A      0.908383  
      63A      0.916655    64A      0.940146    65A      0.955703  
      66A      0.977157    67A      0.997846    68A      1.016844  
      69A      1.051191    70A      1.066388    71A      1.095025  
      72A      1.114314    73A      1.119971    74A      1.152361  
      75A      1.156361    76A      1.171684    77A      1.184591  
      78A      1.206463    79A      1.215469    80A      1.219971  
      81A      1.232585    82A      1.254253    83A      1.273228  
      84A      1.294629    85A      1.311263    86A      1.332369  
      87A      1.367779    88A      1.380696    89A      1.418982  
      90A      1.482221    91A      1.532130    92A      1.632595  
      93A      1.652970    94A      1.695500    95A      1.725476  
      96A      1.759351    97A      1.857123    98A      1.863808  
      99A      1.898664   100A      1.935314   101A      1.985426  
     102A      2.017965   103A      2.075641   104A      2.097879  
     105A      2.109265   106A      2.137057   107A      2.141442  
     108A      2.213894   109A      2.235604   110A      2.265681  
     111A      2.295964   112A      2.307947   113A      2.339197  
     114A      2.360882   115A      2.404522   116A      2.420552  
     117A      2.495431   118A      2.557416   119A      2.623792  
     120A      2.659784   121A      2.674151   122A      2.688881  
     123A      2.721799   124A      2.743320   125A      2.791266  
     126A      2.829279   127A      2.856478   128A      2.885531  
     129A      2.961563   130A      2.999142   131A      3.053669  
     132A      3.111404   133A      3.129464   134A      3.246199  
     135A      3.391793   136A      3.482735   137A      4.299003  
     138A      4.529124   139A      4.602609   140A      4.688277  
     141A      4.764025   142A      4.836006   143A      4.917112  
     144A      5.033752  

    Final Occupation by Irrep:
              A 
    DOCC [    32 ]

  Energy converged.

  @DF-RHF Final Energy:  -383.92265347826640

   => Energetics <=

    Nuclear Repulsion Energy =            402.5673459674044352
    One-Electron Energy =               -1320.6628126830350993
    Two-Electron Energy =                 534.1728132373643803
    DFT Exchange-Correlation Energy =       0.0000000000000000
    Empirical Dispersion Energy =           0.0000000000000000
    PCM Polarization Energy =               0.0000000000000000
    EFP Energy =                            0.0000000000000000
    Total Energy =                       -383.9226534782662839

    Alert: EFP and PCM quantities not currently incorporated into SCF psivars.

Properties will be evaluated at   0.000000,   0.000000,   0.000000 Bohr
  ==> Properties <==


Properties computed using the SCF density matrix

  Nuclear Dipole Moment: (a.u.)
     X:    -2.6856      Y:     8.4966      Z:     9.2510

  Electronic Dipole Moment: (a.u.)
     X:     2.9337      Y:    -7.6005      Z:    -7.7499

  Dipole Moment: (a.u.)
     X:     0.2481      Y:     0.8961      Z:     1.5011     Total:     1.7658

  Dipole Moment: (Debye)
     X:     0.6306      Y:     2.2778      Z:     3.8155     Total:     4.4882


  Saving occupied orbitals to File 180.

*** tstop() called on cx1-1-1-2.cx1.hpc.ic.ac.uk at Tue Jul  5 17:35:32 2016
Module time:
	user time   =      18.58 seconds =       0.31 minutes
	system time =       0.24 seconds =       0.00 minutes
	total time  =         19 seconds =       0.32 minutes
Total time:
	user time   =      18.58 seconds =       0.31 minutes
	system time =       0.24 seconds =       0.00 minutes
	total time  =         19 seconds =       0.32 minutes


Properties will be evaluated at   0.000000,   0.000000,   0.000000 Bohr

Properties computed using the  density matrix

  Nuclear Dipole Moment: (a.u.)
     X:    -2.6856      Y:     8.4966      Z:     9.2510

  Electronic Dipole Moment: (a.u.)
     X:     2.9337      Y:    -7.6005      Z:    -7.7499

  Dipole Moment: (a.u.)
     X:     0.2481      Y:     0.8961      Z:     1.5011     Total:     1.7658

  Dipole Moment: (Debye)
     X:     0.6306      Y:     2.2778      Z:     3.8155     Total:     4.4882

  Quadrupole Moment: (Debye Ang)
    XX:   -47.9409     YY:   -54.6899     ZZ:   -56.5350
    XY:     0.1090     XZ:    -0.3069     YZ:    -6.0272

  Traceless Quadrupole Moment: (Debye Ang)
    XX:     5.1144     YY:    -1.6346     ZZ:    -3.4797
    XY:     0.1090     XZ:    -0.3069     YZ:    -6.0272

  Mulliken Charges: (a.u.)
   Center  Symbol    Alpha    Beta     Spin     Total
       1     H     0.26390  0.26390  0.00000  0.47219
       2     O     4.35219  4.35219  0.00000 -0.70438
       3     C     2.61077  2.61077  0.00000  0.77846
       4     C     3.22896  3.22896  0.00000 -0.45792
       5     O     4.26700  4.26700  0.00000 -0.53400
       6     C     3.15854  3.15854  0.00000 -0.31709
       7     H     0.42136  0.42136  0.00000  0.15728
       8     H     0.38940  0.38940  0.00000  0.22120
       9     C     3.16749  3.16749  0.00000 -0.33497
      10     H     0.40069  0.40069  0.00000  0.19861
      11     H     0.41396  0.41396  0.00000  0.17208
      12     C     3.16001  3.16001  0.00000 -0.32001
      13     H     0.40331  0.40331  0.00000  0.19338
      14     H     0.41542  0.41542  0.00000  0.16916
      15     C     3.24573  3.24573  0.00000 -0.49147
      16     H     0.41068  0.41068  0.00000  0.17864
      17     H     0.43623  0.43623  0.00000  0.12754
      18     H     0.41639  0.41639  0.00000  0.16723
      19     H     0.41617  0.41617  0.00000  0.16767
      20     H     0.42180  0.42180  0.00000  0.15639

   Total alpha = 32.00000, Total beta = 32.00000, Total charge =  0.00000


*** PSI4 exiting successfully. Buy a developer a beer!
