    -----------------------------------------------------------------------
          Psi4: An Open-Source Ab Initio Electronic Structure Package
                              Psi4 (no tag) Driver

                          Git: Rev {detached?}  

    J. M. Turney, A. C. Simmonett, R. M. Parrish, E. G. Hohenstein,
    F. A. Evangelista, J. T. Fermann, B. J. Mintz, L. A. Burns, J. J. Wilke,
    M. L. Abrams, N. J. Russ, M. L. Leininger, C. L. Janssen, E. T. Seidl,
    W. D. Allen, H. F. Schaefer, R. A. King, E. F. Valeev, C. D. Sherrill,
    and T. D. Crawford, WIREs Comput. Mol. Sci. 2, 556-565 (2012)
    (doi: 10.1002/wcms.93)

                         Additional Contributions by
    A. E. DePrince, M. Saitow, U. Bozkaya, A. Yu. Sokolov
    -----------------------------------------------------------------------


    Psi4 started on: Tue Jul  5 17:50:14 2016

    Process ID:   6265
    PSI4DATADIR: /export131/home/mjharvey/miniconda3/share
    Memory level set to 256.000 MB

  ==> Input File <==

--------------------------------------------------------------------------
set {
	reference rhf
	basis 6-31G*
}


set_num_threads( 1 )
memory 2 gb

molecule MOL {
0 1

H	 -4.170028	 6.242948	 2.001499
C	 -4.390546	 5.227910	 1.648381
C	 -5.320878	 4.434472	 2.530169
O	 -3.906806	 4.828336	 0.639378
C	 -4.817648	 3.006396	 2.782385
H	 -5.459538	 4.977845	 3.457654
H	 -6.283358	 4.390452	 2.021889
C	 -4.836882	 2.122807	 1.532506
H	 -3.804467	 3.062107	 3.169224
H	 -5.416090	 2.545759	 3.566884
C	 -6.253274	 1.803461	 1.050150
H	 -4.307491	 1.195989	 1.743693
H	 -4.285443	 2.607727	 0.729196
C	 -7.144331	 3.045428	 0.963640
H	 -6.193595	 1.319733	 0.078461
H	 -6.709517	 1.080440	 1.725033
C	 -8.476090	 2.930578	 1.714174
H	 -7.340708	 3.275648	 -0.082366
H	 -6.595566	 3.895780	 1.362978
C	 -9.441535	 1.892099	 1.140506
H	 -8.962502	 3.902772	 1.700334
H	 -8.281521	 2.704290	 2.760528
H	 -9.641833	 2.084110	 0.089658
H	 -9.050397	 0.883621	 1.223924
H	 -10.390864	 1.916855	 1.666962

	symmetry c1
}
set optking {
	frozen_dihedral = ("
		6 3 5 8,
		6 3 2 4,
		3 5 8 12,
		12 8 11 14,
		20 17 14 18
	")
}

ee = energy('scf')
oeprop('DIPOLE', 'QUADRUPOLE', 'MULLIKEN_CHARGES')
f=open( 'psi4out.xyz', 'w' )
f.write( "25  " )
f.write( str(ee) + "\n" )
f.write( MOL.save_string_xyz() )
f.close()
--------------------------------------------------------------------------

  Memory set to   2.000 GiB by Python script.

*** tstart() called on cx1-3-1-3.cx1.hpc.ic.ac.uk
*** at Tue Jul  5 17:50:14 2016


         ---------------------------------------------------------
                                   SCF
            by Justin Turney, Rob Parrish, and Andy Simmonett
                              RHF Reference
                        1 Threads,   2000 MiB Core
         ---------------------------------------------------------

  ==> Geometry <==

    Molecular point group: c1
    Full point group: C1

    Geometry (in Angstrom), charge = 0, multiplicity = 1:

       Center              X                  Y                   Z               Mass       
    ------------   -----------------  -----------------  -----------------  -----------------
           H          1.905462910311     2.986368542004     0.456087946677     1.007825032070
           C          1.684944910311     1.971330542004     0.102969946677    12.000000000000
           C          0.754612910311     1.177892542004     0.984757946677    12.000000000000
           O          2.168684910311     1.571756542004    -0.906033053323    15.994914619560
           C          1.257842910311    -0.250183457996     1.236973946677    12.000000000000
           H          0.615952910311     1.721265542004     1.912242946677     1.007825032070
           H         -0.207867089689     1.133872542004     0.476477946677     1.007825032070
           C          1.238608910311    -1.133772457996    -0.012905053323    12.000000000000
           H          2.271023910311    -0.194472457996     1.623812946677     1.007825032070
           H          0.659400910311    -0.710820457996     2.021472946677     1.007825032070
           C         -0.177783089689    -1.453118457996    -0.495261053323    12.000000000000
           H          1.767999910311    -2.060590457996     0.198281946677     1.007825032070
           H          1.790047910311    -0.648852457996    -0.816215053323     1.007825032070
           C         -1.068840089689    -0.211151457996    -0.581771053323    12.000000000000
           H         -0.118104089689    -1.936846457996    -1.466950053323     1.007825032070
           H         -0.634026089689    -2.176139457996     0.179621946677     1.007825032070
           C         -2.400599089689    -0.326001457996     0.168762946677    12.000000000000
           H         -1.265217089689     0.019068542004    -1.627777053323     1.007825032070
           H         -0.520075089689     0.639200542004    -0.182433053323     1.007825032070
           C         -3.366044089689    -1.364480457996    -0.404905053323    12.000000000000
           H         -2.887011089689     0.646192542004     0.154922946677     1.007825032070
           H         -2.206030089689    -0.552289457996     1.215116946677     1.007825032070
           H         -3.566342089689    -1.172469457996    -1.455753053323     1.007825032070
           H         -2.974906089689    -2.372958457996    -0.321487053323     1.007825032070
           H         -4.315373089689    -1.339724457996     0.121550946677     1.007825032070

  Running in c1 symmetry.

  Rotational constants: A =      0.09097  B =      0.02769  C =      0.02583 [cm^-1]
  Rotational constants: A =   2727.33762  B =    830.26500  C =    774.28769 [MHz]
  Nuclear repulsion =  478.030366074303402

  Charge       = 0
  Multiplicity = 1
  Electrons    = 72
  Nalpha       = 36
  Nbeta        = 36

  ==> Algorithm <==

  SCF Algorithm Type is DF.
  DIIS enabled.
  MOM disabled.
  Fractional occupation disabled.
  Guess Type is CORE.
  Energy threshold   = 1.00e-06
  Density threshold  = 1.00e-06
  Integral threshold = 0.00e+00

  ==> Primary Basis <==

  Basis Set: 6-31G*
    Number of shells: 86
    Number of basis function: 167
    Number of Cartesian functions: 167
    Spherical Harmonics?: false
    Max angular momentum: 2

  ==> Pre-Iterations <==

   -------------------------------------------------------
    Irrep   Nso     Nmo     Nalpha   Nbeta   Ndocc  Nsocc
   -------------------------------------------------------
     A        167     167       0       0       0       0
   -------------------------------------------------------
    Total     167     167      36      36      36       0
   -------------------------------------------------------

 OEINTS: Overlap, kinetic, potential, dipole, and quadrupole integrals
         stored in file 35.

  ==> Integral Setup <==

  ==> DFJK: Density-Fitted J/K Matrices <==

    J tasked:                  Yes
    K tasked:                  Yes
    wK tasked:                  No
    OpenMP threads:              1
    Integrals threads:           1
    Memory (MB):              1430
    Algorithm:                Core
    Integral Cache:           NONE
    Schwarz Cutoff:          1E-12
    Fitting Condition:       1E-12

   => Auxiliary Basis Set <=

  Basis Set: 
    Number of shells: 360
    Number of basis function: 1129
    Number of Cartesian functions: 1129
    Spherical Harmonics?: false
    Max angular momentum: 3

  Minimum eigenvalue in the overlap matrix is 2.7549274296E-03.
  Using Symmetric Orthogonalization.
  SCF Guess: Core (One-Electron) Hamiltonian.

  ==> Iterations <==

                           Total Energy        Delta E     RMS |[F,P]|

   @DF-RHF iter   1:  -284.78007350816642   -2.84780e+02   6.31156e-02 
   @DF-RHF iter   2:   -26.95025070126349    2.57830e+02   6.82476e-02 DIIS
   @DF-RHF iter   3:  -270.22525599969003   -2.43275e+02   5.24306e-02 DIIS
   @DF-RHF iter   4:  -283.47653996207976   -1.32513e+01   6.13671e-02 DIIS
   @DF-RHF iter   5:  -384.90676355415587   -1.01430e+02   1.16932e-02 DIIS
   @DF-RHF iter   6:  -386.53981051849360   -1.63305e+00   6.60832e-03 DIIS
   @DF-RHF iter   7:  -386.99437149266089   -4.54561e-01   1.32077e-03 DIIS
   @DF-RHF iter   8:  -387.01638298973819   -2.20115e-02   4.02901e-04 DIIS
   @DF-RHF iter   9:  -387.01866743324263   -2.28444e-03   7.90217e-05 DIIS
   @DF-RHF iter  10:  -387.01884538017930   -1.77947e-04   2.18118e-05 DIIS
   @DF-RHF iter  11:  -387.01886240169301   -1.70215e-05   7.42377e-06 DIIS
   @DF-RHF iter  12:  -387.01886417932042   -1.77763e-06   3.31367e-06 DIIS
   @DF-RHF iter  13:  -387.01886461786489   -4.38544e-07   1.08438e-06 DIIS
   @DF-RHF iter  14:  -387.01886465543419   -3.75693e-08   3.73396e-07 DIIS

  ==> Post-Iterations <==

    Orbital Energies (a.u.)
    -----------------------

    Doubly Occupied:                                                      

       1A    -20.564059     2A    -11.328447     3A    -11.227817  
       4A    -11.223240     5A    -11.218584     6A    -11.209734  
       7A    -11.209193     8A    -11.206212     9A    -11.199917  
      10A     -1.406653    11A     -1.114180    12A     -1.056692  
      13A     -1.009166    14A     -0.957479    15A     -0.881812  
      16A     -0.821197    17A     -0.797346    18A     -0.766868  
      19A     -0.698589    20A     -0.677391    21A     -0.627055  
      22A     -0.613824    23A     -0.601099    24A     -0.588489  
      25A     -0.566440    26A     -0.559637    27A     -0.530857  
      28A     -0.528780    29A     -0.508108    30A     -0.494498  
      31A     -0.483882    32A     -0.482713    33A     -0.452167  
      34A     -0.440380    35A     -0.411703    36A     -0.381088  

    Virtual:                                                              

      37A      0.155821    38A      0.226384    39A      0.245991  
      40A      0.252122    41A      0.265401    42A      0.272842  
      43A      0.300749    44A      0.305072    45A      0.319475  
      46A      0.323315    47A      0.328052    48A      0.340583  
      49A      0.348281    50A      0.350697    51A      0.364111  
      52A      0.376096    53A      0.380736    54A      0.398089  
      55A      0.421454    56A      0.443202    57A      0.456926  
      58A      0.464604    59A      0.489339    60A      0.500052  
      61A      0.549435    62A      0.694644    63A      0.718242  
      64A      0.728786    65A      0.750683    66A      0.754087  
      67A      0.765748    68A      0.769723    69A      0.819707  
      70A      0.829633    71A      0.852557    72A      0.885587  
      73A      0.900825    74A      0.918280    75A      0.936157  
      76A      0.946570    77A      0.974883    78A      0.992824  
      79A      0.997140    80A      1.003204    81A      1.029535  
      82A      1.069285    83A      1.081465    84A      1.103620  
      85A      1.115797    86A      1.136841    87A      1.148851  
      88A      1.163230    89A      1.170879    90A      1.175843  
      91A      1.185723    92A      1.193448    93A      1.198060  
      94A      1.219328    95A      1.232015    96A      1.239605  
      97A      1.260878    98A      1.275540    99A      1.276028  
     100A      1.296737   101A      1.328192   102A      1.338466  
     103A      1.396203   104A      1.422962   105A      1.438274  
     106A      1.496729   107A      1.512523   108A      1.604813  
     109A      1.663305   110A      1.675388   111A      1.765451  
     112A      1.775104   113A      1.797259   114A      1.813112  
     115A      1.857008   116A      1.920841   117A      1.937523  
     118A      1.979211   119A      2.014430   120A      2.043448  
     121A      2.083409   122A      2.087154   123A      2.163439  
     124A      2.174482   125A      2.187484   126A      2.209420  
     127A      2.235293   128A      2.257821   129A      2.281433  
     130A      2.299802   131A      2.316590   132A      2.376014  
     133A      2.382608   134A      2.426732   135A      2.436234  
     136A      2.471182   137A      2.549168   138A      2.564501  
     139A      2.579531   140A      2.615027   141A      2.669303  
     142A      2.688780   143A      2.693283   144A      2.732288  
     145A      2.759567   146A      2.761797   147A      2.801843  
     148A      2.865470   149A      2.883499   150A      2.953970  
     151A      2.968042   152A      2.992385   153A      3.014038  
     154A      3.074613   155A      3.104706   156A      3.149113  
     157A      3.261261   158A      3.379107   159A      4.340957  
     160A      4.540634   161A      4.574398   162A      4.643864  
     163A      4.784583   164A      4.816903   165A      4.939111  
     166A      4.973856   167A      5.075351  

    Final Occupation by Irrep:
              A 
    DOCC [    36 ]

  Energy converged.

  @DF-RHF Final Energy:  -387.01886465543419

   => Energetics <=

    Nuclear Repulsion Energy =            478.0303660743034015
    One-Electron Energy =               -1472.4078470292238308
    Two-Electron Energy =                 607.3586162994848792
    DFT Exchange-Correlation Energy =       0.0000000000000000
    Empirical Dispersion Energy =           0.0000000000000000
    PCM Polarization Energy =               0.0000000000000000
    EFP Energy =                            0.0000000000000000
    Total Energy =                       -387.0188646554355500

    Alert: EFP and PCM quantities not currently incorporated into SCF psivars.

Properties will be evaluated at   0.000000,   0.000000,   0.000000 Bohr
  ==> Properties <==


Properties computed using the SCF density matrix

  Nuclear Dipole Moment: (a.u.)
     X:    -9.0690      Y:    -5.6353      Z:     2.3290

  Electronic Dipole Moment: (a.u.)
     X:     8.5685      Y:     5.8199      Z:    -1.4705

  Dipole Moment: (a.u.)
     X:    -0.5005      Y:     0.1846      Z:     0.8585     Total:     1.0108

  Dipole Moment: (Debye)
     X:    -1.2722      Y:     0.4693      Z:     2.1821     Total:     2.5691


  Saving occupied orbitals to File 180.

*** tstop() called on cx1-3-1-3.cx1.hpc.ic.ac.uk at Tue Jul  5 17:50:38 2016
Module time:
	user time   =      23.32 seconds =       0.39 minutes
	system time =       0.22 seconds =       0.00 minutes
	total time  =         24 seconds =       0.40 minutes
Total time:
	user time   =      23.32 seconds =       0.39 minutes
	system time =       0.22 seconds =       0.00 minutes
	total time  =         24 seconds =       0.40 minutes


Properties will be evaluated at   0.000000,   0.000000,   0.000000 Bohr

Properties computed using the  density matrix

  Nuclear Dipole Moment: (a.u.)
     X:    -9.0690      Y:    -5.6353      Z:     2.3290

  Electronic Dipole Moment: (a.u.)
     X:     8.5685      Y:     5.8199      Z:    -1.4705

  Dipole Moment: (a.u.)
     X:    -0.5005      Y:     0.1846      Z:     0.8585     Total:     1.0108

  Dipole Moment: (Debye)
     X:    -1.2722      Y:     0.4693      Z:     2.1821     Total:     2.5691

  Quadrupole Moment: (Debye Ang)
    XX:   -63.4595     YY:   -56.5024     ZZ:   -60.1126
    XY:    -1.7012     XZ:     4.7631     YZ:     3.4181

  Traceless Quadrupole Moment: (Debye Ang)
    XX:    -3.4347     YY:     3.5224     ZZ:    -0.0878
    XY:    -1.7012     XZ:     4.7631     YZ:     3.4181

  Mulliken Charges: (a.u.)
   Center  Symbol    Alpha    Beta     Spin     Total
       1     H     0.42639  0.42639  0.00000  0.14723
       2     C     2.83802  2.83802  0.00000  0.32396
       3     C     3.23009  3.23009  0.00000 -0.46017
       4     O     4.23766  4.23766  0.00000 -0.47531
       5     C     3.15776  3.15776  0.00000 -0.31552
       6     H     0.41007  0.41007  0.00000  0.17985
       7     H     0.38092  0.38092  0.00000  0.23815
       8     C     3.16996  3.16996  0.00000 -0.33993
       9     H     0.41364  0.41364  0.00000  0.17273
      10     H     0.41656  0.41656  0.00000  0.16688
      11     C     3.15493  3.15493  0.00000 -0.30985
      12     H     0.42129  0.42129  0.00000  0.15743
      13     H     0.39157  0.39157  0.00000  0.21686
      14     C     3.14909  3.14909  0.00000 -0.29819
      15     H     0.41644  0.41644  0.00000  0.16712
      16     H     0.42375  0.42375  0.00000  0.15249
      17     C     3.15406  3.15406  0.00000 -0.30813
      18     H     0.41763  0.41763  0.00000  0.16474
      19     H     0.44267  0.44267  0.00000  0.11466
      20     C     3.23842  3.23842  0.00000 -0.47685
      21     H     0.42430  0.42430  0.00000  0.15140
      22     H     0.42548  0.42548  0.00000  0.14904
      23     H     0.42063  0.42063  0.00000  0.15874
      24     H     0.41877  0.41877  0.00000  0.16246
      25     H     0.41990  0.41990  0.00000  0.16020

   Total alpha = 36.00000, Total beta = 36.00000, Total charge =  0.00000


*** PSI4 exiting successfully. Buy a developer a beer!
