    -----------------------------------------------------------------------
          Psi4: An Open-Source Ab Initio Electronic Structure Package
                              Psi4 (no tag) Driver

                          Git: Rev {detached?}  

    J. M. Turney, A. C. Simmonett, R. M. Parrish, E. G. Hohenstein,
    F. A. Evangelista, J. T. Fermann, B. J. Mintz, L. A. Burns, J. J. Wilke,
    M. L. Abrams, N. J. Russ, M. L. Leininger, C. L. Janssen, E. T. Seidl,
    W. D. Allen, H. F. Schaefer, R. A. King, E. F. Valeev, C. D. Sherrill,
    and T. D. Crawford, WIREs Comput. Mol. Sci. 2, 556-565 (2012)
    (doi: 10.1002/wcms.93)

                         Additional Contributions by
    A. E. DePrince, M. Saitow, U. Bozkaya, A. Yu. Sokolov
    -----------------------------------------------------------------------


    Psi4 started on: Tue Jul  5 16:57:57 2016

    Process ID:  15439
    PSI4DATADIR: /export131/home/mjharvey/miniconda3/share
    Memory level set to 256.000 MB

  ==> Input File <==

--------------------------------------------------------------------------
set {
	reference rhf
	basis 6-31G*
}


set_num_threads( 1 )
memory 2 gb

molecule MOL {
0 1

H	 -2.153054	 -2.250733	 0.000000
O	 -2.462445	 -1.355403	 0.000000
C	 -1.434260	 -0.483044	 0.000000
C	 -0.160282	 -0.998433	 0.214627
C	 -1.606806	 0.873172	 -0.202032
H	 -0.050522	 -2.055314	 0.369249
C	 0.931284	 -0.154718	 0.225708
H	 -2.586306	 1.284548	 -0.369080
C	 -0.495009	 1.711703	 -0.187945
H	 1.912113	 -0.560710	 0.392185
C	 0.777868	 1.209965	 0.024721
C	 -0.683838	 3.129388	 -0.400099
H	 1.624995	 1.868669	 0.032793
N	 -0.832066	 4.243832	 -0.564252

	symmetry c1
}
set optking {
	frozen_dihedral = ("
		5 3 2 1
	")
}

ee = energy('scf')
oeprop('DIPOLE', 'QUADRUPOLE', 'MULLIKEN_CHARGES')
f=open( 'psi4out.xyz', 'w' )
f.write( "14  " )
f.write( str(ee) + "\n" )
f.write( MOL.save_string_xyz() )
f.close()
--------------------------------------------------------------------------

  Memory set to   2.000 GiB by Python script.

*** tstart() called on cx1-3-4-4.cx1.hpc.ic.ac.uk
*** at Tue Jul  5 16:57:57 2016


         ---------------------------------------------------------
                                   SCF
            by Justin Turney, Rob Parrish, and Andy Simmonett
                              RHF Reference
                        1 Threads,   2000 MiB Core
         ---------------------------------------------------------

  ==> Geometry <==

    Molecular point group: c1
    Full point group: C1

    Geometry (in Angstrom), charge = 0, multiplicity = 1:

       Center              X                  Y                   Z               Mass       
    ------------   -----------------  -----------------  -----------------  -----------------
           H         -1.444424820242    -3.086410064333     0.095541872302     1.007825032070
           O         -1.753815820242    -2.191080064333     0.095541872302    15.994914619560
           C         -0.725630820242    -1.318721064333     0.095541872302    12.000000000000
           C          0.548347179758    -1.834110064333     0.310168872302    12.000000000000
           C         -0.898176820242     0.037494935667    -0.106490127698    12.000000000000
           H          0.658107179758    -2.890991064333     0.464790872302     1.007825032070
           C          1.639913179758    -0.990395064333     0.321249872302    12.000000000000
           H         -1.877676820242     0.448870935667    -0.273538127698     1.007825032070
           C          0.213620179758     0.876025935667    -0.092403127698    12.000000000000
           H          2.620742179758    -1.396387064333     0.487726872302     1.007825032070
           C          1.486497179758     0.374287935667     0.120262872302    12.000000000000
           C          0.024791179758     2.293710935667    -0.304557127698    12.000000000000
           H          2.333624179758     1.032991935667     0.128334872302     1.007825032070
           N         -0.123436820242     3.408154935667    -0.468710127698    14.003074004780

  Running in c1 symmetry.

  Rotational constants: A =      0.11888  B =      0.04008  C =      0.02997 [cm^-1]
  Rotational constants: A =   3563.91149  B =   1201.43170  C =    898.60069 [MHz]
  Nuclear repulsion =  379.327279630980001

  Charge       = 0
  Multiplicity = 1
  Electrons    = 62
  Nalpha       = 31
  Nbeta        = 31

  ==> Algorithm <==

  SCF Algorithm Type is DF.
  DIIS enabled.
  MOM disabled.
  Fractional occupation disabled.
  Guess Type is CORE.
  Energy threshold   = 1.00e-06
  Density threshold  = 1.00e-06
  Integral threshold = 0.00e+00

  ==> Primary Basis <==

  Basis Set: 6-31G*
    Number of shells: 64
    Number of basis function: 145
    Number of Cartesian functions: 145
    Spherical Harmonics?: false
    Max angular momentum: 2

  ==> Pre-Iterations <==

   -------------------------------------------------------
    Irrep   Nso     Nmo     Nalpha   Nbeta   Ndocc  Nsocc
   -------------------------------------------------------
     A        145     145       0       0       0       0
   -------------------------------------------------------
    Total     145     145      31      31      31       0
   -------------------------------------------------------

 OEINTS: Overlap, kinetic, potential, dipole, and quadrupole integrals
         stored in file 35.

  ==> Integral Setup <==

  ==> DFJK: Density-Fitted J/K Matrices <==

    J tasked:                  Yes
    K tasked:                  Yes
    wK tasked:                  No
    OpenMP threads:              1
    Integrals threads:           1
    Memory (MB):              1430
    Algorithm:                Core
    Integral Cache:           NONE
    Schwarz Cutoff:          1E-12
    Fitting Condition:       1E-12

   => Auxiliary Basis Set <=

  Basis Set: 
    Number of shells: 261
    Number of basis function: 854
    Number of Cartesian functions: 854
    Spherical Harmonics?: false
    Max angular momentum: 3

  Minimum eigenvalue in the overlap matrix is 4.1966545830E-04.
  Using Symmetric Orthogonalization.
  SCF Guess: Core (One-Electron) Hamiltonian.

  ==> Iterations <==

                           Total Energy        Delta E     RMS |[F,P]|

   @DF-RHF iter   1:  -309.44019490719631   -3.09440e+02   6.50338e-02 
   @DF-RHF iter   2:  -146.50485343417006    1.62935e+02   7.88079e-02 DIIS
   @DF-RHF iter   3:  -317.80755580844868   -1.71303e+02   5.28262e-02 DIIS
   @DF-RHF iter   4:  -342.09280813794589   -2.42853e+01   5.26496e-02 DIIS
   @DF-RHF iter   5:  -395.87271551112121   -5.37799e+01   1.08311e-02 DIIS
   @DF-RHF iter   6:  -397.09141676216279   -1.21870e+00   4.28341e-03 DIIS
   @DF-RHF iter   7:  -397.27037788460950   -1.78961e-01   1.18990e-03 DIIS
   @DF-RHF iter   8:  -397.28590920263412   -1.55313e-02   4.34261e-04 DIIS
   @DF-RHF iter   9:  -397.28843708036959   -2.52788e-03   1.40333e-04 DIIS
   @DF-RHF iter  10:  -397.28882104495540   -3.83965e-04   6.02774e-05 DIIS
   @DF-RHF iter  11:  -397.28892376398881   -1.02719e-04   3.04287e-05 DIIS
   @DF-RHF iter  12:  -397.28897318836243   -4.94244e-05   1.36365e-05 DIIS
   @DF-RHF iter  13:  -397.28898274015910   -9.55180e-06   7.14503e-06 DIIS
   @DF-RHF iter  14:  -397.28898606751636   -3.32736e-06   2.39601e-06 DIIS
   @DF-RHF iter  15:  -397.28898631755942   -2.50043e-07   5.75696e-07 DIIS

  ==> Post-Iterations <==

    Orbital Energies (a.u.)
    -----------------------

    Doubly Occupied:                                                      

       1A    -20.611047     2A    -15.574811     3A    -11.327056  
       4A    -11.294964     5A    -11.275905     6A    -11.264871  
       7A    -11.261203     8A    -11.259548     9A    -11.258562  
      10A     -1.433015    11A     -1.232412    12A     -1.182514  
      13A     -1.063421    14A     -1.039939    15A     -0.898839  
      16A     -0.859235    17A     -0.793922    18A     -0.718018  
      19A     -0.691181    20A     -0.675861    21A     -0.629003  
      22A     -0.614659    23A     -0.592230    24A     -0.566872  
      25A     -0.547166    26A     -0.538130    27A     -0.522304  
      28A     -0.473587    29A     -0.472042    30A     -0.363661  
      31A     -0.337544  

    Virtual:                                                              

      32A      0.085758    33A      0.132539    34A      0.200303  
      35A      0.220350    36A      0.225862    37A      0.274135  
      38A      0.280401    39A      0.290818    40A      0.330320  
      41A      0.369279    42A      0.378557    43A      0.437627  
      44A      0.455213    45A      0.468646    46A      0.485857  
      47A      0.570716    48A      0.598731    49A      0.633652  
      50A      0.700294    51A      0.713993    52A      0.717187  
      53A      0.757324    54A      0.782770    55A      0.793272  
      56A      0.803104    57A      0.804023    58A      0.827383  
      59A      0.852282    60A      0.856732    61A      0.871010  
      62A      0.884249    63A      0.887601    64A      0.937567  
      65A      0.955031    66A      0.993272    67A      0.996671  
      68A      1.064724    69A      1.090035    70A      1.103503  
      71A      1.104229    72A      1.122945    73A      1.126898  
      74A      1.138772    75A      1.169643    76A      1.188537  
      77A      1.220827    78A      1.232455    79A      1.262302  
      80A      1.331408    81A      1.376263    82A      1.392010  
      83A      1.437553    84A      1.450243    85A      1.465297  
      86A      1.518281    87A      1.558874    88A      1.587479  
      89A      1.610109    90A      1.634387    91A      1.688009  
      92A      1.701487    93A      1.730380    94A      1.733405  
      95A      1.799781    96A      1.807046    97A      1.844875  
      98A      1.983357    99A      2.024201   100A      2.062182  
     101A      2.079568   102A      2.102886   103A      2.110501  
     104A      2.154370   105A      2.227472   106A      2.241678  
     107A      2.261960   108A      2.285183   109A      2.292194  
     110A      2.295492   111A      2.329983   112A      2.388407  
     113A      2.422990   114A      2.440327   115A      2.454454  
     116A      2.537128   117A      2.585663   118A      2.614070  
     119A      2.623405   120A      2.754246   121A      2.824842  
     122A      2.843163   123A      2.868032   124A      2.928897  
     125A      2.994042   126A      3.004546   127A      3.023835  
     128A      3.097846   129A      3.138816   130A      3.168870  
     131A      3.209109   132A      3.280575   133A      3.382114  
     134A      3.562799   135A      3.674704   136A      3.870789  
     137A      4.348292   138A      4.465610   139A      4.506290  
     140A      4.559645   141A      4.613450   142A      4.720949  
     143A      4.828583   144A      4.970599   145A      5.257845  

    Final Occupation by Irrep:
              A 
    DOCC [    31 ]

  Energy converged.

  @DF-RHF Final Energy:  -397.28898631755942

   => Energetics <=

    Nuclear Repulsion Energy =            379.3272796309800015
    One-Electron Energy =               -1290.4852701507682013
    Two-Electron Energy =                 513.8690042022299167
    DFT Exchange-Correlation Energy =       0.0000000000000000
    Empirical Dispersion Energy =           0.0000000000000000
    PCM Polarization Energy =               0.0000000000000000
    EFP Energy =                            0.0000000000000000
    Total Energy =                       -397.2889863175582832

    Alert: EFP and PCM quantities not currently incorporated into SCF psivars.

Properties will be evaluated at   0.000000,   0.000000,   0.000000 Bohr
  ==> Properties <==


Properties computed using the SCF density matrix

  Nuclear Dipole Moment: (a.u.)
     X:     2.1391      Y:    -5.5439      Z:     0.8482

  Electronic Dipole Moment: (a.u.)
     X:    -1.4440      Y:     3.3462      Z:    -0.5870

  Dipole Moment: (a.u.)
     X:     0.6951      Y:    -2.1978      Z:     0.2612     Total:     2.3198

  Dipole Moment: (Debye)
     X:     1.7666      Y:    -5.5861      Z:     0.6638     Total:     5.8963


  Saving occupied orbitals to File 180.

*** tstop() called on cx1-3-4-4.cx1.hpc.ic.ac.uk at Tue Jul  5 16:58:13 2016
Module time:
	user time   =      15.62 seconds =       0.26 minutes
	system time =       0.09 seconds =       0.00 minutes
	total time  =         16 seconds =       0.27 minutes
Total time:
	user time   =      15.62 seconds =       0.26 minutes
	system time =       0.09 seconds =       0.00 minutes
	total time  =         16 seconds =       0.27 minutes


Properties will be evaluated at   0.000000,   0.000000,   0.000000 Bohr

Properties computed using the  density matrix

  Nuclear Dipole Moment: (a.u.)
     X:     2.1391      Y:    -5.5439      Z:     0.8482

  Electronic Dipole Moment: (a.u.)
     X:    -1.4440      Y:     3.3462      Z:    -0.5870

  Dipole Moment: (a.u.)
     X:     0.6951      Y:    -2.1978      Z:     0.2612     Total:     2.3198

  Dipole Moment: (Debye)
     X:     1.7666      Y:    -5.5861      Z:     0.6638     Total:     5.8963

  Quadrupole Moment: (Debye Ang)
    XX:   -48.8403     YY:   -56.9851     ZZ:   -54.1945
    XY:    -0.2548     XZ:     1.0689     YZ:     1.3566

  Traceless Quadrupole Moment: (Debye Ang)
    XX:     4.4997     YY:    -3.6452     ZZ:    -0.8545
    XY:    -0.2548     XZ:     1.0689     YZ:     1.3566

  Mulliken Charges: (a.u.)
   Center  Symbol    Alpha    Beta     Spin     Total
       1     H     0.26692  0.26692  0.00000  0.46615
       2     O     4.37907  4.37907  0.00000 -0.75815
       3     C     2.78297  2.78297  0.00000  0.43406
       4     C     3.13897  3.13897  0.00000 -0.27794
       5     C     3.11592  3.11592  0.00000 -0.23185
       6     H     0.39660  0.39660  0.00000  0.20680
       7     C     3.09484  3.09484  0.00000 -0.18969
       8     H     0.37403  0.37403  0.00000  0.25193
       9     C     2.99088  2.99088  0.00000  0.01824
      10     H     0.38937  0.38937  0.00000  0.22125
      11     C     3.09953  3.09953  0.00000 -0.19906
      12     C     2.86528  2.86528  0.00000  0.26945
      13     H     0.38121  0.38121  0.00000  0.23758
      14     N     3.72439  3.72439  0.00000 -0.44878

   Total alpha = 31.00000, Total beta = 31.00000, Total charge =  0.00000


*** PSI4 exiting successfully. Buy a developer a beer!
