    -----------------------------------------------------------------------
          Psi4: An Open-Source Ab Initio Electronic Structure Package
                              Psi4 (no tag) Driver

                          Git: Rev {detached?}  

    J. M. Turney, A. C. Simmonett, R. M. Parrish, E. G. Hohenstein,
    F. A. Evangelista, J. T. Fermann, B. J. Mintz, L. A. Burns, J. J. Wilke,
    M. L. Abrams, N. J. Russ, M. L. Leininger, C. L. Janssen, E. T. Seidl,
    W. D. Allen, H. F. Schaefer, R. A. King, E. F. Valeev, C. D. Sherrill,
    and T. D. Crawford, WIREs Comput. Mol. Sci. 2, 556-565 (2012)
    (doi: 10.1002/wcms.93)

                         Additional Contributions by
    A. E. DePrince, M. Saitow, U. Bozkaya, A. Yu. Sokolov
    -----------------------------------------------------------------------


    Psi4 started on: Tue Jul  5 16:33:37 2016

    Process ID:  20382
    PSI4DATADIR: /export131/home/mjharvey/miniconda3/share
    Memory level set to 256.000 MB

  ==> Input File <==

--------------------------------------------------------------------------
set {
	reference rhf
	basis 6-31G*
}


set_num_threads( 1 )
memory 2 gb

molecule MOL {
0 1

O	 1.066834	 -2.032293	 1.712165
C	 0.275803	 -1.645901	 0.914452
C	 -1.147444	 -2.120194	 0.804999
O	 0.550821	 -0.724572	 0.000672
H	 -1.823175	 -1.281819	 0.928282
H	 -1.339790	 -2.865528	 1.562212
H	 -1.318951	 -2.538157	 -0.180127
C	 -0.355137	 0.358436	 -0.111636
H	 0.050626	 1.127730	 -0.752651
H	 -0.487544	 0.737053	 0.889796
H	 -1.300119	 0.022424	 -0.513443

	symmetry c1
}
set optking {
	frozen_dihedral = ("
		2 4 8 9
	")
}

ee = energy('scf')
oeprop('DIPOLE', 'QUADRUPOLE', 'MULLIKEN_CHARGES')
f=open( 'psi4out.xyz', 'w' )
f.write( "11  " )
f.write( str(ee) + "\n" )
f.write( MOL.save_string_xyz() )
f.close()
--------------------------------------------------------------------------

  Memory set to   2.000 GiB by Python script.

*** tstart() called on cx1-1-4-3.cx1.hpc.ic.ac.uk
*** at Tue Jul  5 16:33:37 2016


         ---------------------------------------------------------
                                   SCF
            by Justin Turney, Rob Parrish, and Andy Simmonett
                              RHF Reference
                        1 Threads,   2000 MiB Core
         ---------------------------------------------------------

  ==> Geometry <==

    Molecular point group: c1
    Full point group: C1

    Geometry (in Angstrom), charge = 0, multiplicity = 1:

       Center              X                  Y                   Z               Mass       
    ------------   -----------------  -----------------  -----------------  -----------------
           O          1.000849213253    -0.819063942628     1.055198758388    15.994914619560
           C          0.209818213253    -0.432671942628     0.257485758388    12.000000000000
           C         -1.213428786747    -0.906964942628     0.148032758388    12.000000000000
           O          0.484836213253     0.488657057372    -0.656294241612    15.994914619560
           H         -1.889159786747    -0.068589942628     0.271315758388     1.007825032070
           H         -1.405774786747    -1.652298942628     0.905245758388     1.007825032070
           H         -1.384935786747    -1.324927942628    -0.837093241612     1.007825032070
           C         -0.421121786747     1.571665057372    -0.768602241612    12.000000000000
           H         -0.015358786747     2.340959057372    -1.409617241612     1.007825032070
           H         -0.553528786747     1.950282057372     0.232829758388     1.007825032070
           H         -1.366103786747     1.235653057372    -1.170409241612     1.007825032070

  Running in c1 symmetry.

  Rotational constants: A =      0.29271  B =      0.15396  C =      0.11106 [cm^-1]
  Rotational constants: A =   8775.32214  B =   4615.71327  C =   3329.35132 [MHz]
  Nuclear repulsion =  184.352330566916578

  Charge       = 0
  Multiplicity = 1
  Electrons    = 40
  Nalpha       = 20
  Nbeta        = 20

  ==> Algorithm <==

  SCF Algorithm Type is DF.
  DIIS enabled.
  MOM disabled.
  Fractional occupation disabled.
  Guess Type is CORE.
  Energy threshold   = 1.00e-06
  Density threshold  = 1.00e-06
  Integral threshold = 0.00e+00

  ==> Primary Basis <==

  Basis Set: 6-31G*
    Number of shells: 42
    Number of basis function: 87
    Number of Cartesian functions: 87
    Spherical Harmonics?: false
    Max angular momentum: 2

  ==> Pre-Iterations <==

   -------------------------------------------------------
    Irrep   Nso     Nmo     Nalpha   Nbeta   Ndocc  Nsocc
   -------------------------------------------------------
     A         87      87       0       0       0       0
   -------------------------------------------------------
    Total      87      87      20      20      20       0
   -------------------------------------------------------

 OEINTS: Overlap, kinetic, potential, dipole, and quadrupole integrals
         stored in file 35.

  ==> Integral Setup <==

  ==> DFJK: Density-Fitted J/K Matrices <==

    J tasked:                  Yes
    K tasked:                  Yes
    wK tasked:                  No
    OpenMP threads:              1
    Integrals threads:           1
    Memory (MB):              1430
    Algorithm:                Core
    Integral Cache:           NONE
    Schwarz Cutoff:          1E-12
    Fitting Condition:       1E-12

   => Auxiliary Basis Set <=

  Basis Set: 
    Number of shells: 174
    Number of basis function: 555
    Number of Cartesian functions: 555
    Spherical Harmonics?: false
    Max angular momentum: 3

  Minimum eigenvalue in the overlap matrix is 4.0143915135E-03.
  Using Symmetric Orthogonalization.
  SCF Guess: Core (One-Electron) Hamiltonian.

  ==> Iterations <==

                           Total Energy        Delta E     RMS |[F,P]|

   @DF-RHF iter   1:  -213.01788563543215   -2.13018e+02   8.96037e-02 
   @DF-RHF iter   2:  -204.60645568695668    8.41143e+00   6.27230e-02 DIIS
   @DF-RHF iter   3:  -227.06690858395393   -2.24605e+01   7.44479e-02 DIIS
   @DF-RHF iter   4:  -256.75586785757793   -2.96890e+01   4.23319e-02 DIIS
   @DF-RHF iter   5:  -264.14070098838363   -7.38483e+00   2.31553e-02 DIIS
   @DF-RHF iter   6:  -266.32317805041464   -2.18248e+00   1.01132e-02 DIIS
   @DF-RHF iter   7:  -266.72578371044204   -4.02606e-01   4.06251e-03 DIIS
   @DF-RHF iter   8:  -266.80140345774555   -7.56197e-02   1.26001e-03 DIIS
   @DF-RHF iter   9:  -266.80917439281694   -7.77094e-03   5.57065e-04 DIIS
   @DF-RHF iter  10:  -266.81053433200157   -1.35994e-03   1.77992e-04 DIIS
   @DF-RHF iter  11:  -266.81075036856561   -2.16037e-04   4.55399e-05 DIIS
   @DF-RHF iter  12:  -266.81077340671794   -2.30382e-05   1.35052e-05 DIIS
   @DF-RHF iter  13:  -266.81077555335207   -2.14663e-06   4.88258e-06 DIIS
   @DF-RHF iter  14:  -266.81077578516067   -2.31809e-07   1.38885e-06 DIIS
   @DF-RHF iter  15:  -266.81077580918253   -2.40219e-08   3.32179e-07 DIIS

  ==> Post-Iterations <==

    Orbital Energies (a.u.)
    -----------------------

    Doubly Occupied:                                                      

       1A    -20.596806     2A    -20.552928     3A    -11.379055  
       4A    -11.300670     5A    -11.238471     6A     -1.467400  
       7A     -1.371371     8A     -1.023797     9A     -0.984200  
      10A     -0.783515    11A     -0.695395    12A     -0.690479  
      13A     -0.684501    14A     -0.619828    15A     -0.590719  
      16A     -0.572505    17A     -0.550007    18A     -0.499017  
      19A     -0.459517    20A     -0.439704  

    Virtual:                                                              

      21A      0.179145    22A      0.220879    23A      0.277534  
      24A      0.290594    25A      0.292169    26A      0.304549  
      27A      0.327880    28A      0.356464    29A      0.403482  
      30A      0.500205    31A      0.556068    32A      0.714906  
      33A      0.728188    34A      0.759692    35A      0.779401  
      36A      0.813249    37A      0.825963    38A      0.850585  
      39A      0.941548    40A      0.969744    41A      1.033350  
      42A      1.103525    43A      1.112600    44A      1.125987  
      45A      1.141932    46A      1.163488    47A      1.195647  
      48A      1.243125    49A      1.260499    50A      1.291341  
      51A      1.353355    52A      1.355125    53A      1.383745  
      54A      1.469633    55A      1.570943    56A      1.669575  
      57A      1.731671    58A      1.828992    59A      1.839817  
      60A      1.918618    61A      2.008531    62A      2.070036  
      63A      2.124936    64A      2.132081    65A      2.184554  
      66A      2.233541    67A      2.321257    68A      2.373584  
      69A      2.421459    70A      2.492118    71A      2.539752  
      72A      2.577772    73A      2.651669    74A      2.676346  
      75A      2.754222    76A      2.769322    77A      3.032593  
      78A      3.089126    79A      3.201208    80A      3.258527  
      81A      3.375695    82A      3.521361    83A      4.361588  
      84A      4.527091    85A      4.645087    86A      4.656632  
      87A      4.898302  

    Final Occupation by Irrep:
              A 
    DOCC [    20 ]

  Energy converged.

  @DF-RHF Final Energy:  -266.81077580918253

   => Energetics <=

    Nuclear Repulsion Energy =            184.3523305669165779
    One-Electron Energy =                -729.3264234892792501
    Two-Electron Energy =                 278.1633171131800282
    DFT Exchange-Correlation Energy =       0.0000000000000000
    Empirical Dispersion Energy =           0.0000000000000000
    PCM Polarization Energy =               0.0000000000000000
    EFP Energy =                            0.0000000000000000
    Total Energy =                       -266.8107758091825872

    Alert: EFP and PCM quantities not currently incorporated into SCF psivars.

Properties will be evaluated at   0.000000,   0.000000,   0.000000 Bohr
  ==> Properties <==


Properties computed using the SCF density matrix

  Nuclear Dipole Moment: (a.u.)
     X:    -6.1941      Y:     2.3243      Z:    -1.8803

  Electronic Dipole Moment: (a.u.)
     X:     4.7256      Y:    -1.6290      Z:     1.2503

  Dipole Moment: (a.u.)
     X:    -1.4685      Y:     0.6953      Z:    -0.6300     Total:     1.7427

  Dipole Moment: (Debye)
     X:    -3.7326      Y:     1.7674      Z:    -1.6013     Total:     4.4294


  Saving occupied orbitals to File 180.

*** tstop() called on cx1-1-4-3.cx1.hpc.ic.ac.uk at Tue Jul  5 16:33:41 2016
Module time:
	user time   =       3.49 seconds =       0.06 minutes
	system time =       0.05 seconds =       0.00 minutes
	total time  =          4 seconds =       0.07 minutes
Total time:
	user time   =       3.49 seconds =       0.06 minutes
	system time =       0.05 seconds =       0.00 minutes
	total time  =          4 seconds =       0.07 minutes


Properties will be evaluated at   0.000000,   0.000000,   0.000000 Bohr

Properties computed using the  density matrix

  Nuclear Dipole Moment: (a.u.)
     X:    -6.1941      Y:     2.3243      Z:    -1.8803

  Electronic Dipole Moment: (a.u.)
     X:     4.7256      Y:    -1.6290      Z:     1.2503

  Dipole Moment: (a.u.)
     X:    -1.4685      Y:     0.6953      Z:    -0.6300     Total:     1.7427

  Dipole Moment: (Debye)
     X:    -3.7326      Y:     1.7674      Z:    -1.6013     Total:     4.4294

  Quadrupole Moment: (Debye Ang)
    XX:   -32.1912     YY:   -27.0019     ZZ:   -31.8550
    XY:     0.8073     XZ:    -1.3453     YZ:     0.7352

  Traceless Quadrupole Moment: (Debye Ang)
    XX:    -1.8419     YY:     3.3475     ZZ:    -1.5057
    XY:     0.8073     XZ:    -1.3453     YZ:     0.7352

  Mulliken Charges: (a.u.)
   Center  Symbol    Alpha    Beta     Spin     Total
       1     O     4.25827  4.25827  0.00000 -0.51653
       2     C     2.62178  2.62178  0.00000  0.75645
       3     C     3.30353  3.30353  0.00000 -0.60706
       4     O     4.29660  4.29660  0.00000 -0.59320
       5     H     0.40502  0.40502  0.00000  0.18996
       6     H     0.39312  0.39312  0.00000  0.21376
       7     H     0.39807  0.39807  0.00000  0.20387
       8     C     3.10031  3.10031  0.00000 -0.20062
       9     H     0.39636  0.39636  0.00000  0.20728
      10     H     0.41216  0.41216  0.00000  0.17568
      11     H     0.41479  0.41479  0.00000  0.17041

   Total alpha = 20.00000, Total beta = 20.00000, Total charge =  0.00000


*** PSI4 exiting successfully. Buy a developer a beer!
