    -----------------------------------------------------------------------
          Psi4: An Open-Source Ab Initio Electronic Structure Package
                              Psi4 (no tag) Driver

                          Git: Rev {detached?}  

    J. M. Turney, A. C. Simmonett, R. M. Parrish, E. G. Hohenstein,
    F. A. Evangelista, J. T. Fermann, B. J. Mintz, L. A. Burns, J. J. Wilke,
    M. L. Abrams, N. J. Russ, M. L. Leininger, C. L. Janssen, E. T. Seidl,
    W. D. Allen, H. F. Schaefer, R. A. King, E. F. Valeev, C. D. Sherrill,
    and T. D. Crawford, WIREs Comput. Mol. Sci. 2, 556-565 (2012)
    (doi: 10.1002/wcms.93)

                         Additional Contributions by
    A. E. DePrince, M. Saitow, U. Bozkaya, A. Yu. Sokolov
    -----------------------------------------------------------------------


    Psi4 started on: Tue Jul  5 16:22:28 2016

    Process ID:  25787
    PSI4DATADIR: /export131/home/mjharvey/miniconda3/share
    Memory level set to 256.000 MB

  ==> Input File <==

--------------------------------------------------------------------------
set {
	reference rhf
	basis 6-31G*
}


set_num_threads( 1 )
memory 2 gb

molecule MOL {
0 1

H	 -0.216825	 0.021369	 -3.357402
C	 0.374198	 0.036393	 -2.447010
C	 -0.521757	 -0.028637	 -1.217342
H	 0.969602	 0.942322	 -2.434777
H	 1.053364	 -0.811668	 -2.481329
N	 0.263400	 0.031178	 0.000000
H	 -1.199035	 0.820290	 -1.219355
H	 -1.147901	 -0.924895	 -1.265384
C	 -0.521757	 -0.028637	 1.217342
H	 0.935769	 -0.712709	 0.000000
C	 0.373595	 0.044258	 2.447008
H	 -1.202982	 0.817128	 1.216654
H	 -1.143732	 -0.927654	 1.267938
H	 0.964776	 0.952910	 2.432185
H	 -0.217566	 0.029216	 3.357310
H	 1.056695	 -0.800523	 2.484025

	symmetry c1
}
ee = energy('scf')
oeprop('DIPOLE', 'QUADRUPOLE', 'MULLIKEN_CHARGES')
f=open( 'psi4out.xyz', 'w' )
f.write( "16  " )
f.write( str(ee) + "\n" )
f.write( MOL.save_string_xyz() )
f.close()
--------------------------------------------------------------------------

  Memory set to   2.000 GiB by Python script.

*** tstart() called on cx1-3-1-3.cx1.hpc.ic.ac.uk
*** at Tue Jul  5 16:22:29 2016


         ---------------------------------------------------------
                                   SCF
            by Justin Turney, Rob Parrish, and Andy Simmonett
                              RHF Reference
                        1 Threads,   2000 MiB Core
         ---------------------------------------------------------

  ==> Geometry <==

    Molecular point group: c1
    Full point group: C1

    Geometry (in Angstrom), charge = 0, multiplicity = 1:

       Center              X                  Y                   Z               Mass       
    ------------   -----------------  -----------------  -----------------  -----------------
           H         -0.216698659485     0.019751138816    -3.357399810121     1.007825032070
           C          0.374324340515     0.034775138816    -2.447007810121    12.000000000000
           C         -0.521630659485    -0.030254861184    -1.217339810121    12.000000000000
           H          0.969728340515     0.940704138816    -2.434774810121     1.007825032070
           H          1.053490340515    -0.813285861184    -2.481326810121     1.007825032070
           N          0.263526340515     0.029560138816     0.000002189879    14.003074004780
           H         -1.198908659485     0.818672138816    -1.219352810121     1.007825032070
           H         -1.147774659485    -0.926512861184    -1.265381810121     1.007825032070
           C         -0.521630659485    -0.030254861184     1.217344189879    12.000000000000
           H          0.935895340515    -0.714326861184     0.000002189879     1.007825032070
           C          0.373721340515     0.042640138816     2.447010189879    12.000000000000
           H         -1.202855659485     0.815510138816     1.216656189879     1.007825032070
           H         -1.143605659485    -0.929271861184     1.267940189879     1.007825032070
           H          0.964902340515     0.951292138816     2.432187189879     1.007825032070
           H         -0.217439659485     0.027598138816     3.357312189879     1.007825032070
           H          1.056821340515    -0.802140861184     2.484027189879     1.007825032070

  Running in c1 symmetry.

  Rotational constants: A =      0.59554  B =      0.07043  C =      0.06634 [cm^-1]
  Rotational constants: A =  17853.84069  B =   2111.44754  C =   1988.79206 [MHz]
  Nuclear repulsion =  189.183720630335671

  Charge       = 0
  Multiplicity = 1
  Electrons    = 42
  Nalpha       = 21
  Nbeta        = 21

  ==> Algorithm <==

  SCF Algorithm Type is DF.
  DIIS enabled.
  MOM disabled.
  Fractional occupation disabled.
  Guess Type is CORE.
  Energy threshold   = 1.00e-06
  Density threshold  = 1.00e-06
  Integral threshold = 0.00e+00

  ==> Primary Basis <==

  Basis Set: 6-31G*
    Number of shells: 52
    Number of basis function: 97
    Number of Cartesian functions: 97
    Spherical Harmonics?: false
    Max angular momentum: 2

  ==> Pre-Iterations <==

   -------------------------------------------------------
    Irrep   Nso     Nmo     Nalpha   Nbeta   Ndocc  Nsocc
   -------------------------------------------------------
     A         97      97       0       0       0       0
   -------------------------------------------------------
    Total      97      97      21      21      21       0
   -------------------------------------------------------

 OEINTS: Overlap, kinetic, potential, dipole, and quadrupole integrals
         stored in file 35.

  ==> Integral Setup <==

  ==> DFJK: Density-Fitted J/K Matrices <==

    J tasked:                  Yes
    K tasked:                  Yes
    wK tasked:                  No
    OpenMP threads:              1
    Integrals threads:           1
    Memory (MB):              1430
    Algorithm:                Core
    Integral Cache:           NONE
    Schwarz Cutoff:          1E-12
    Fitting Condition:       1E-12

   => Auxiliary Basis Set <=

  Basis Set: 
    Number of shells: 219
    Number of basis function: 680
    Number of Cartesian functions: 680
    Spherical Harmonics?: false
    Max angular momentum: 3

  Minimum eigenvalue in the overlap matrix is 4.2090776674E-03.
  Using Symmetric Orthogonalization.
  SCF Guess: Core (One-Electron) Hamiltonian.

  ==> Iterations <==

                           Total Energy        Delta E     RMS |[F,P]|

   @DF-RHF iter   1:  -147.80887489165482   -1.47809e+02   8.29550e-02 
   @DF-RHF iter   2:  -155.51255595569174   -7.70368e+00   5.71910e-02 DIIS
   @DF-RHF iter   3:  -179.45889121304529   -2.39463e+01   5.74430e-02 DIIS
   @DF-RHF iter   4:  -211.83221188639399   -3.23733e+01   9.01324e-03 DIIS
   @DF-RHF iter   5:  -212.28223020553199   -4.50018e-01   2.43238e-03 DIIS
   @DF-RHF iter   6:  -212.31149636842721   -2.92662e-02   6.59451e-04 DIIS
   @DF-RHF iter   7:  -212.31372021322764   -2.22384e-03   2.24052e-04 DIIS
   @DF-RHF iter   8:  -212.31393733290727   -2.17120e-04   7.14291e-05 DIIS
   @DF-RHF iter   9:  -212.31396957313356   -3.22402e-05   2.07753e-05 DIIS
   @DF-RHF iter  10:  -212.31397235557685   -2.78244e-06   5.07090e-06 DIIS
   @DF-RHF iter  11:  -212.31397253155879   -1.75982e-07   1.69254e-06 DIIS
   @DF-RHF iter  12:  -212.31397255354167   -2.19829e-08   3.87441e-07 DIIS

  ==> Post-Iterations <==

    Orbital Energies (a.u.)
    -----------------------

    Doubly Occupied:                                                      

       1A    -15.534239     2A    -11.240571     3A    -11.240553  
       4A    -11.208254     5A    -11.208189     6A     -1.205627  
       7A     -1.028128     8A     -0.962760     9A     -0.831957  
      10A     -0.821532    11A     -0.661922    12A     -0.628202  
      13A     -0.598803    14A     -0.588080    15A     -0.553725  
      16A     -0.521078    17A     -0.508329    18A     -0.488790  
      19A     -0.482009    20A     -0.473975    21A     -0.359841  

    Virtual:                                                              

      22A      0.230983    23A      0.256232    24A      0.269534  
      25A      0.291112    26A      0.317635    27A      0.321060  
      28A      0.325291    29A      0.331123    30A      0.349686  
      31A      0.356487    32A      0.356675    33A      0.394813  
      34A      0.431972    35A      0.453444    36A      0.458129  
      37A      0.699359    38A      0.737825    39A      0.738054  
      40A      0.751973    41A      0.770019    42A      0.803913  
      43A      0.874318    44A      0.891174    45A      0.925585  
      46A      0.959810    47A      0.962665    48A      1.066271  
      49A      1.076076    50A      1.117263    51A      1.165776  
      52A      1.166836    53A      1.173306    54A      1.176105  
      55A      1.203070    56A      1.206423    57A      1.220828  
      58A      1.237418    59A      1.244563    60A      1.258125  
      61A      1.275481    62A      1.287206    63A      1.353032  
      64A      1.548550    65A      1.627105    66A      1.688433  
      67A      1.725306    68A      1.757235    69A      1.908712  
      70A      1.946004    71A      2.033678    72A      2.107670  
      73A      2.226641    74A      2.261515    75A      2.267331  
      76A      2.317201    77A      2.334203    78A      2.405128  
      79A      2.408958    80A      2.444677    81A      2.566113  
      82A      2.593161    83A      2.624834    84A      2.658668  
      85A      2.674844    86A      2.780307    87A      2.806808  
      88A      2.819248    89A      2.936561    90A      3.012745  
      91A      3.169757    92A      3.236887    93A      4.349049  
      94A      4.625372    95A      4.630004    96A      4.819330  
      97A      4.898706  

    Final Occupation by Irrep:
              A 
    DOCC [    21 ]

  Energy converged.

  @DF-RHF Final Energy:  -212.31397255354167

   => Energetics <=

    Nuclear Repulsion Energy =            189.1837206303356709
    One-Electron Energy =                -660.7020474580737073
    Two-Electron Energy =                 259.2043542741966462
    DFT Exchange-Correlation Energy =       0.0000000000000000
    Empirical Dispersion Energy =           0.0000000000000000
    PCM Polarization Energy =               0.0000000000000000
    EFP Energy =                            0.0000000000000000
    Total Energy =                       -212.3139725535414186

    Alert: EFP and PCM quantities not currently incorporated into SCF psivars.

Properties will be evaluated at   0.000000,   0.000000,   0.000000 Bohr
  ==> Properties <==


Properties computed using the SCF density matrix

  Nuclear Dipole Moment: (a.u.)
     X:    -0.1381      Y:    -0.5738      Z:    -0.0001

  Electronic Dipole Moment: (a.u.)
     X:    -0.0222      Y:     0.2142      Z:    -0.0004

  Dipole Moment: (a.u.)
     X:    -0.1603      Y:    -0.3596      Z:    -0.0005     Total:     0.3937

  Dipole Moment: (Debye)
     X:    -0.4074      Y:    -0.9141      Z:    -0.0012     Total:     1.0008


  Saving occupied orbitals to File 180.

*** tstop() called on cx1-3-1-3.cx1.hpc.ic.ac.uk at Tue Jul  5 16:22:34 2016
Module time:
	user time   =       4.89 seconds =       0.08 minutes
	system time =       0.03 seconds =       0.00 minutes
	total time  =          5 seconds =       0.08 minutes
Total time:
	user time   =       4.89 seconds =       0.08 minutes
	system time =       0.03 seconds =       0.00 minutes
	total time  =          5 seconds =       0.08 minutes


Properties will be evaluated at   0.000000,   0.000000,   0.000000 Bohr

Properties computed using the  density matrix

  Nuclear Dipole Moment: (a.u.)
     X:    -0.1381      Y:    -0.5738      Z:    -0.0001

  Electronic Dipole Moment: (a.u.)
     X:    -0.0222      Y:     0.2142      Z:    -0.0004

  Dipole Moment: (a.u.)
     X:    -0.1603      Y:    -0.3596      Z:    -0.0005     Total:     0.3937

  Dipole Moment: (Debye)
     X:    -0.4074      Y:    -0.9141      Z:    -0.0012     Total:     1.0008

  Quadrupole Moment: (Debye Ang)
    XX:   -34.2463     YY:   -34.0848     ZZ:   -33.4576
    XY:    -1.6619     XZ:    -0.0003     YZ:    -0.0014

  Traceless Quadrupole Moment: (Debye Ang)
    XX:    -0.3168     YY:    -0.1552     ZZ:     0.4720
    XY:    -1.6619     XZ:    -0.0003     YZ:    -0.0014

  Mulliken Charges: (a.u.)
   Center  Symbol    Alpha    Beta     Spin     Total
       1     H     0.42021  0.42021  0.00000  0.15958
       2     C     3.24211  3.24211  0.00000 -0.48421
       3     C     3.05260  3.05260  0.00000 -0.10520
       4     H     0.41197  0.41197  0.00000  0.17606
       5     H     0.42487  0.42487  0.00000  0.15026
       6     N     3.84925  3.84925  0.00000 -0.69850
       7     H     0.42043  0.42043  0.00000  0.15914
       8     H     0.43529  0.43529  0.00000  0.12943
       9     C     3.05270  3.05270  0.00000 -0.10539
      10     H     0.33578  0.33578  0.00000  0.32844
      11     C     3.24197  3.24197  0.00000 -0.48395
      12     H     0.42045  0.42045  0.00000  0.15911
      13     H     0.43526  0.43526  0.00000  0.12947
      14     H     0.41198  0.41198  0.00000  0.17604
      15     H     0.42027  0.42027  0.00000  0.15947
      16     H     0.42487  0.42487  0.00000  0.15025

   Total alpha = 21.00000, Total beta = 21.00000, Total charge = -0.00000


*** PSI4 exiting successfully. Buy a developer a beer!
