    -----------------------------------------------------------------------
          Psi4: An Open-Source Ab Initio Electronic Structure Package
                              Psi4 (no tag) Driver

                          Git: Rev {detached?}  

    J. M. Turney, A. C. Simmonett, R. M. Parrish, E. G. Hohenstein,
    F. A. Evangelista, J. T. Fermann, B. J. Mintz, L. A. Burns, J. J. Wilke,
    M. L. Abrams, N. J. Russ, M. L. Leininger, C. L. Janssen, E. T. Seidl,
    W. D. Allen, H. F. Schaefer, R. A. King, E. F. Valeev, C. D. Sherrill,
    and T. D. Crawford, WIREs Comput. Mol. Sci. 2, 556-565 (2012)
    (doi: 10.1002/wcms.93)

                         Additional Contributions by
    A. E. DePrince, M. Saitow, U. Bozkaya, A. Yu. Sokolov
    -----------------------------------------------------------------------


    Psi4 started on: Tue Jul  5 16:33:03 2016

    Process ID:   9710
    PSI4DATADIR: /export131/home/mjharvey/miniconda3/share
    Memory level set to 256.000 MB

  ==> Input File <==

--------------------------------------------------------------------------
set {
	reference rhf
	basis 6-31G*
}


set_num_threads( 1 )
memory 2 gb

molecule MOL {
0 1

O	 0.365866	 0.817481	 -0.865064
C	 0.028650	 0.075053	 -0.000277
C	 -1.233602	 -0.752807	 0.000328
O	 0.736417	 -0.125482	 1.103694
C	 -2.501530	 0.091881	 0.000126
H	 -1.193807	 -1.406641	 -0.865785
H	 -1.193516	 -1.405779	 0.867015
H	 -2.545121	 0.729328	 -0.874513
H	 -3.377167	 -0.548497	 0.000561
H	 -2.544818	 0.730135	 0.874258
C	 1.949045	 0.595162	 1.229371
H	 2.624740	 0.344804	 0.424281
H	 2.370906	 0.299704	 2.177317
H	 1.761564	 1.659208	 1.218058

	symmetry c1
}
set optking {
	frozen_dihedral = ("
		11 4 2 3
	")
}

ee = energy('scf')
oeprop('DIPOLE', 'QUADRUPOLE', 'MULLIKEN_CHARGES')
f=open( 'psi4out.xyz', 'w' )
f.write( "14  " )
f.write( str(ee) + "\n" )
f.write( MOL.save_string_xyz() )
f.close()
--------------------------------------------------------------------------

  Memory set to   2.000 GiB by Python script.

*** tstart() called on cx1-1-4-4.cx1.hpc.ic.ac.uk
*** at Tue Jul  5 16:33:04 2016


         ---------------------------------------------------------
                                   SCF
            by Justin Turney, Rob Parrish, and Andy Simmonett
                              RHF Reference
                        1 Threads,   2000 MiB Core
         ---------------------------------------------------------

  ==> Geometry <==

    Molecular point group: c1
    Full point group: C1

    Geometry (in Angstrom), charge = 0, multiplicity = 1:

       Center              X                  Y                   Z               Mass       
    ------------   -----------------  -----------------  -----------------  -----------------
           O          0.452037403128     0.685907769128    -1.119713821181    15.994914619560
           C          0.114821403128    -0.056520230872    -0.254926821181    12.000000000000
           C         -1.147430596872    -0.884380230872    -0.254321821181    12.000000000000
           O          0.822588403128    -0.257055230872     0.849044178819    15.994914619560
           C         -2.415358596872    -0.039692230872    -0.254523821181    12.000000000000
           H         -1.107635596872    -1.538214230872    -1.120434821181     1.007825032070
           H         -1.107344596872    -1.537352230872     0.612365178819     1.007825032070
           H         -2.458949596872     0.597754769128    -1.129162821181     1.007825032070
           H         -3.290995596872    -0.680070230872    -0.254088821181     1.007825032070
           H         -2.458646596872     0.598561769128     0.619608178819     1.007825032070
           C          2.035216403128     0.463588769128     0.974721178819    12.000000000000
           H          2.710911403128     0.213230769128     0.169631178819     1.007825032070
           H          2.457077403128     0.168130769128     1.922667178819     1.007825032070
           H          1.847735403128     1.527634769128     0.963408178819     1.007825032070

  Running in c1 symmetry.

  Rotational constants: A =      0.26760  B =      0.07418  C =      0.06508 [cm^-1]
  Rotational constants: A =   8022.30429  B =   2223.85298  C =   1951.05641 [MHz]
  Nuclear repulsion =  247.236791304548007

  Charge       = 0
  Multiplicity = 1
  Electrons    = 48
  Nalpha       = 24
  Nbeta        = 24

  ==> Algorithm <==

  SCF Algorithm Type is DF.
  DIIS enabled.
  MOM disabled.
  Fractional occupation disabled.
  Guess Type is CORE.
  Energy threshold   = 1.00e-06
  Density threshold  = 1.00e-06
  Integral threshold = 0.00e+00

  ==> Primary Basis <==

  Basis Set: 6-31G*
    Number of shells: 52
    Number of basis function: 106
    Number of Cartesian functions: 106
    Spherical Harmonics?: false
    Max angular momentum: 2

  ==> Pre-Iterations <==

   -------------------------------------------------------
    Irrep   Nso     Nmo     Nalpha   Nbeta   Ndocc  Nsocc
   -------------------------------------------------------
     A        106     106       0       0       0       0
   -------------------------------------------------------
    Total     106     106      24      24      24       0
   -------------------------------------------------------

 OEINTS: Overlap, kinetic, potential, dipole, and quadrupole integrals
         stored in file 35.

  ==> Integral Setup <==

  ==> DFJK: Density-Fitted J/K Matrices <==

    J tasked:                  Yes
    K tasked:                  Yes
    wK tasked:                  No
    OpenMP threads:              1
    Integrals threads:           1
    Memory (MB):              1430
    Algorithm:                Core
    Integral Cache:           NONE
    Schwarz Cutoff:          1E-12
    Fitting Condition:       1E-12

   => Auxiliary Basis Set <=

  Basis Set: 
    Number of shells: 216
    Number of basis function: 686
    Number of Cartesian functions: 686
    Spherical Harmonics?: false
    Max angular momentum: 3

  Minimum eigenvalue in the overlap matrix is 3.1063331526E-03.
  Using Symmetric Orthogonalization.
  SCF Guess: Core (One-Electron) Hamiltonian.

  ==> Iterations <==

                           Total Energy        Delta E     RMS |[F,P]|

   @DF-RHF iter   1:  -225.45728054261949   -2.25457e+02   8.23171e-02 
   @DF-RHF iter   2:  -203.44119474482355    2.20161e+01   6.85547e-02 DIIS
   @DF-RHF iter   3:  -279.65928205065029   -7.62181e+01   4.31481e-02 DIIS
   @DF-RHF iter   4:  -277.78700161695599    1.87228e+00   5.45546e-02 DIIS
   @DF-RHF iter   5:  -305.46337445728409   -2.76764e+01   8.64903e-03 DIIS
   @DF-RHF iter   6:  -305.77146166157797   -3.08087e-01   4.52849e-03 DIIS
   @DF-RHF iter   7:  -305.86076992023459   -8.93083e-02   1.09614e-03 DIIS
   @DF-RHF iter   8:  -305.86873820732717   -7.96829e-03   3.50693e-04 DIIS
   @DF-RHF iter   9:  -305.86945316505512   -7.14958e-04   1.68699e-04 DIIS
   @DF-RHF iter  10:  -305.86965008564516   -1.96921e-04   7.41051e-05 DIIS
   @DF-RHF iter  11:  -305.86968931947536   -3.92338e-05   2.95468e-05 DIIS
   @DF-RHF iter  12:  -305.86969568255199   -6.36308e-06   6.57120e-06 DIIS
   @DF-RHF iter  13:  -305.86969610577091   -4.23219e-07   1.70935e-06 DIIS
   @DF-RHF iter  14:  -305.86969612789289   -2.21220e-08   4.39422e-07 DIIS

  ==> Post-Iterations <==

    Orbital Energies (a.u.)
    -----------------------

    Doubly Occupied:                                                      

       1A    -20.606111     2A    -20.544186     3A    -11.372373  
       4A    -11.281040     5A    -11.236885     6A    -11.224915  
       7A     -1.470174     8A     -1.362822     9A     -1.066749  
      10A     -0.979848    11A     -0.882299    12A     -0.772287  
      13A     -0.697910    14A     -0.680162    15A     -0.672537  
      16A     -0.614686    17A     -0.602201    18A     -0.562757  
      19A     -0.541930    20A     -0.519840    21A     -0.512833  
      22A     -0.498840    23A     -0.455688    24A     -0.435470  

    Virtual:                                                              

      25A      0.190599    26A      0.251125    27A      0.266397  
      28A      0.292004    29A      0.298823    30A      0.309484  
      31A      0.316725    32A      0.328830    33A      0.335547  
      34A      0.346958    35A      0.404957    36A      0.440783  
      37A      0.510180    38A      0.570280    39A      0.718231  
      40A      0.725433    41A      0.738414    42A      0.751557  
      43A      0.765509    44A      0.791958    45A      0.825083  
      46A      0.889746    47A      0.930987    48A      0.969891  
      49A      0.985447    50A      1.018565    51A      1.076848  
      52A      1.093879    53A      1.128466    54A      1.135027  
      55A      1.144866    56A      1.162177    57A      1.192844  
      58A      1.210481    59A      1.227377    60A      1.242974  
      61A      1.252670    62A      1.282686    63A      1.356325  
      64A      1.372616    65A      1.388676    66A      1.505358  
      67A      1.541053    68A      1.647113    69A      1.681287  
      70A      1.801595    71A      1.809921    72A      1.825301  
      73A      1.923598    74A      1.986028    75A      2.031051  
      76A      2.083866    77A      2.142098    78A      2.156645  
      79A      2.164518    80A      2.260807    81A      2.282223  
      82A      2.354691    83A      2.384928    84A      2.400325  
      85A      2.450551    86A      2.495220    87A      2.605699  
      88A      2.619896    89A      2.650664    90A      2.677632  
      91A      2.698424    92A      2.733790    93A      2.850922  
      94A      2.891503    95A      3.000788    96A      3.110807  
      97A      3.134454    98A      3.348015    99A      3.409615  
     100A      3.551723   101A      4.434221   102A      4.545638  
     103A      4.641245   104A      4.664601   105A      4.770959  
     106A      4.985702  

    Final Occupation by Irrep:
              A 
    DOCC [    24 ]

  Energy converged.

  @DF-RHF Final Energy:  -305.86969612789289

   => Energetics <=

    Nuclear Repulsion Energy =            247.2367913045480066
    One-Electron Energy =                -907.0239082400648840
    Two-Electron Energy =                 353.9174208076240120
    DFT Exchange-Correlation Energy =       0.0000000000000000
    Empirical Dispersion Energy =           0.0000000000000000
    PCM Polarization Energy =               0.0000000000000000
    EFP Energy =                            0.0000000000000000
    Total Energy =                       -305.8696961278928939

    Alert: EFP and PCM quantities not currently incorporated into SCF psivars.

Properties will be evaluated at   0.000000,   0.000000,   0.000000 Bohr
  ==> Properties <==


Properties computed using the SCF density matrix

  Nuclear Dipole Moment: (a.u.)
     X:    -3.1886      Y:    -0.6076      Z:     1.6711

  Electronic Dipole Moment: (a.u.)
     X:     3.1326      Y:     0.2319      Z:    -1.0344

  Dipole Moment: (a.u.)
     X:    -0.0561      Y:    -0.3757      Z:     0.6368     Total:     0.7415

  Dipole Moment: (Debye)
     X:    -0.1425      Y:    -0.9551      Z:     1.6185     Total:     1.8846


  Saving occupied orbitals to File 180.

*** tstop() called on cx1-1-4-4.cx1.hpc.ic.ac.uk at Tue Jul  5 16:33:11 2016
Module time:
	user time   =       6.02 seconds =       0.10 minutes
	system time =       0.04 seconds =       0.00 minutes
	total time  =          7 seconds =       0.12 minutes
Total time:
	user time   =       6.02 seconds =       0.10 minutes
	system time =       0.04 seconds =       0.00 minutes
	total time  =          7 seconds =       0.12 minutes


Properties will be evaluated at   0.000000,   0.000000,   0.000000 Bohr

Properties computed using the  density matrix

  Nuclear Dipole Moment: (a.u.)
     X:    -3.1886      Y:    -0.6076      Z:     1.6711

  Electronic Dipole Moment: (a.u.)
     X:     3.1326      Y:     0.2319      Z:    -1.0344

  Dipole Moment: (a.u.)
     X:    -0.0561      Y:    -0.3757      Z:     0.6368     Total:     0.7415

  Dipole Moment: (Debye)
     X:    -0.1425      Y:    -0.9551      Z:     1.6185     Total:     1.8846

  Quadrupole Moment: (Debye Ang)
    XX:   -31.2359     YY:   -36.7700     ZZ:   -39.3795
    XY:     1.1381     XZ:     2.7915     YZ:     3.6100

  Traceless Quadrupole Moment: (Debye Ang)
    XX:     4.5592     YY:    -0.9748     ZZ:    -3.5844
    XY:     1.1381     XZ:     2.7915     YZ:     3.6100

  Mulliken Charges: (a.u.)
   Center  Symbol    Alpha    Beta     Spin     Total
       1     O     4.28498  4.28498  0.00000 -0.56997
       2     C     2.61122  2.61122  0.00000  0.77757
       3     C     3.20319  3.20319  0.00000 -0.40638
       4     O     4.30270  4.30270  0.00000 -0.60539
       5     C     3.24679  3.24679  0.00000 -0.49358
       6     H     0.40068  0.40068  0.00000  0.19864
       7     H     0.40030  0.40030  0.00000  0.19940
       8     H     0.40424  0.40424  0.00000  0.19151
       9     H     0.41293  0.41293  0.00000  0.17415
      10     H     0.41378  0.41378  0.00000  0.17245
      11     C     3.09343  3.09343  0.00000 -0.18686
      12     H     0.40855  0.40855  0.00000  0.18289
      13     H     0.40845  0.40845  0.00000  0.18310
      14     H     0.40876  0.40876  0.00000  0.18248

   Total alpha = 24.00000, Total beta = 24.00000, Total charge =  0.00000


*** PSI4 exiting successfully. Buy a developer a beer!
