    -----------------------------------------------------------------------
          Psi4: An Open-Source Ab Initio Electronic Structure Package
                              Psi4 (no tag) Driver

                          Git: Rev {detached?}  

    J. M. Turney, A. C. Simmonett, R. M. Parrish, E. G. Hohenstein,
    F. A. Evangelista, J. T. Fermann, B. J. Mintz, L. A. Burns, J. J. Wilke,
    M. L. Abrams, N. J. Russ, M. L. Leininger, C. L. Janssen, E. T. Seidl,
    W. D. Allen, H. F. Schaefer, R. A. King, E. F. Valeev, C. D. Sherrill,
    and T. D. Crawford, WIREs Comput. Mol. Sci. 2, 556-565 (2012)
    (doi: 10.1002/wcms.93)

                         Additional Contributions by
    A. E. DePrince, M. Saitow, U. Bozkaya, A. Yu. Sokolov
    -----------------------------------------------------------------------


    Psi4 started on: Tue Jul  5 16:25:35 2016

    Process ID:  29958
    PSI4DATADIR: /export131/home/mjharvey/miniconda3/share
    Memory level set to 256.000 MB

  ==> Input File <==

--------------------------------------------------------------------------
set {
	reference rhf
	basis 6-31G*
}


set_num_threads( 1 )
memory 2 gb

molecule MOL {
0 1

H	 3.628138	 0.648374	 1.037006
N	 2.797414	 0.088583	 1.045756
C	 1.865559	 0.531981	 0.018834
H	 2.390320	 0.189073	 1.956254
C	 0.645745	 -0.382037	 -0.029944
H	 2.382498	 0.491192	 -0.935089
H	 1.538519	 1.566034	 0.153664
C	 -0.679275	 0.379305	 0.025956
H	 0.698998	 -0.976915	 -0.937203
H	 0.693479	 -1.083846	 0.802235
C	 -1.903357	 -0.536963	 -0.023547
H	 -0.726309	 1.082987	 -0.803784
H	 -0.717680	 0.977832	 0.934877
C	 -3.225172	 0.228290	 0.028445
H	 -1.867824	 -1.134999	 -0.931459
H	 -1.860449	 -1.239604	 0.805977
H	 -3.313397	 0.915643	 -0.808262
H	 -4.073500	 -0.448134	 -0.008893
H	 -3.306061	 0.809945	 0.942516

	symmetry c1
}
set optking {
	frozen_dihedral = ("
		12 8 5 9,
		12 8 11 15,
		1 2 3 6
	")
}

ee = energy('scf')
oeprop('DIPOLE', 'QUADRUPOLE', 'MULLIKEN_CHARGES')
f=open( 'psi4out.xyz', 'w' )
f.write( "19  " )
f.write( str(ee) + "\n" )
f.write( MOL.save_string_xyz() )
f.close()
--------------------------------------------------------------------------

  Memory set to   2.000 GiB by Python script.

*** tstart() called on cx1-3-3-2.cx1.hpc.ic.ac.uk
*** at Tue Jul  5 16:25:36 2016


         ---------------------------------------------------------
                                   SCF
            by Justin Turney, Rob Parrish, and Andy Simmonett
                              RHF Reference
                        1 Threads,   2000 MiB Core
         ---------------------------------------------------------

  ==> Geometry <==

    Molecular point group: c1
    Full point group: C1

    Geometry (in Angstrom), charge = 0, multiplicity = 1:

       Center              X                  Y                   Z               Mass       
    ------------   -----------------  -----------------  -----------------  -----------------
           H          3.685015987624     0.582947129389     0.840623686012     1.007825032070
           N          2.854291987624     0.023156129389     0.849373686012    14.003074004780
           C          1.922436987624     0.466554129389    -0.177548313988    12.000000000000
           H          2.447197987624     0.123646129389     1.759871686012     1.007825032070
           C          0.702622987624    -0.447463870611    -0.226326313988    12.000000000000
           H          2.439375987624     0.425765129389    -1.131471313988     1.007825032070
           H          1.595396987624     1.500607129389    -0.042718313988     1.007825032070
           C         -0.622397012376     0.313878129389    -0.170426313988    12.000000000000
           H          0.755875987624    -1.042341870611    -1.133585313988     1.007825032070
           H          0.750356987624    -1.149272870611     0.605852686012     1.007825032070
           C         -1.846479012376    -0.602389870611    -0.219929313988    12.000000000000
           H         -0.669431012376     1.017560129389    -1.000166313988     1.007825032070
           H         -0.660802012376     0.912405129389     0.738494686012     1.007825032070
           C         -3.168294012376     0.162863129389    -0.167937313988    12.000000000000
           H         -1.810946012376    -1.200425870611    -1.127841313988     1.007825032070
           H         -1.803571012376    -1.305030870611     0.609594686012     1.007825032070
           H         -3.256519012376     0.850216129389    -1.004644313988     1.007825032070
           H         -4.016622012376    -0.513560870611    -0.205275313988     1.007825032070
           H         -3.249183012376     0.744518129389     0.746133686012     1.007825032070

  Running in c1 symmetry.

  Rotational constants: A =      0.42028  B =      0.03924  C =      0.03889 [cm^-1]
  Rotational constants: A =  12599.74929  B =   1176.42326  C =   1165.96688 [MHz]
  Nuclear repulsion =  246.612672426050977

  Charge       = 0
  Multiplicity = 1
  Electrons    = 50
  Nalpha       = 25
  Nbeta        = 25

  ==> Algorithm <==

  SCF Algorithm Type is DF.
  DIIS enabled.
  MOM disabled.
  Fractional occupation disabled.
  Guess Type is CORE.
  Energy threshold   = 1.00e-06
  Density threshold  = 1.00e-06
  Integral threshold = 0.00e+00

  ==> Primary Basis <==

  Basis Set: 6-31G*
    Number of shells: 62
    Number of basis function: 116
    Number of Cartesian functions: 116
    Spherical Harmonics?: false
    Max angular momentum: 2

  ==> Pre-Iterations <==

   -------------------------------------------------------
    Irrep   Nso     Nmo     Nalpha   Nbeta   Ndocc  Nsocc
   -------------------------------------------------------
     A        116     116       0       0       0       0
   -------------------------------------------------------
    Total     116     116      25      25      25       0
   -------------------------------------------------------

 OEINTS: Overlap, kinetic, potential, dipole, and quadrupole integrals
         stored in file 35.

  ==> Integral Setup <==

  ==> DFJK: Density-Fitted J/K Matrices <==

    J tasked:                  Yes
    K tasked:                  Yes
    wK tasked:                  No
    OpenMP threads:              1
    Integrals threads:           1
    Memory (MB):              1430
    Algorithm:                Core
    Integral Cache:           NONE
    Schwarz Cutoff:          1E-12
    Fitting Condition:       1E-12

   => Auxiliary Basis Set <=

  Basis Set: 
    Number of shells: 261
    Number of basis function: 811
    Number of Cartesian functions: 811
    Spherical Harmonics?: false
    Max angular momentum: 3

  Minimum eigenvalue in the overlap matrix is 3.4168483987E-03.
  Using Symmetric Orthogonalization.
  SCF Guess: Core (One-Electron) Hamiltonian.

  ==> Iterations <==

                           Total Energy        Delta E     RMS |[F,P]|

   @DF-RHF iter   1:  -190.61889100174071   -1.90619e+02   7.10578e-02 
   @DF-RHF iter   2:   -93.24402609106662    9.73749e+01   8.53784e-02 DIIS
   @DF-RHF iter   3:  -181.46497346815252   -8.82209e+01   6.18843e-02 DIIS
   @DF-RHF iter   4:  -194.71391855286774   -1.32489e+01   5.31028e-02 DIIS
   @DF-RHF iter   5:  -216.31631287094220   -2.16024e+01   4.97028e-02 DIIS
   @DF-RHF iter   6:  -250.97463785762486   -3.46583e+01   7.16409e-03 DIIS
   @DF-RHF iter   7:  -251.28405408313179   -3.09416e-01   2.59238e-03 DIIS
   @DF-RHF iter   8:  -251.33557716305617   -5.15231e-02   1.00163e-03 DIIS
   @DF-RHF iter   9:  -251.34452957625527   -8.95241e-03   2.63584e-04 DIIS
   @DF-RHF iter  10:  -251.34537550358201   -8.45927e-04   8.90768e-05 DIIS
   @DF-RHF iter  11:  -251.34547016894507   -9.46654e-05   2.85045e-05 DIIS
   @DF-RHF iter  12:  -251.34548045382465   -1.02849e-05   6.79167e-06 DIIS
   @DF-RHF iter  13:  -251.34548090561381   -4.51789e-07   2.48946e-06 DIIS
   @DF-RHF iter  14:  -251.34548096932312   -6.37093e-08   4.44701e-07 DIIS

  ==> Post-Iterations <==

    Orbital Energies (a.u.)
    -----------------------

    Doubly Occupied:                                                      

       1A    -15.532311     2A    -11.238344     3A    -11.213737  
       4A    -11.212954     5A    -11.207748     6A    -11.207729  
       7A     -1.176685     8A     -1.072784     9A     -0.998179  
      10A     -0.901340    11A     -0.813051    12A     -0.788588  
      13A     -0.668261    14A     -0.636428    15A     -0.620009  
      16A     -0.584328    17A     -0.567612    18A     -0.547487  
      19A     -0.529121    20A     -0.503086    21A     -0.482752  
      22A     -0.465791    23A     -0.460365    24A     -0.444045  
      25A     -0.379581  

    Virtual:                                                              

      26A      0.225676    27A      0.238396    28A      0.268173  
      29A      0.276175    30A      0.282893    31A      0.302947  
      32A      0.321451    33A      0.323421    34A      0.334065  
      35A      0.339766    36A      0.345984    37A      0.357589  
      38A      0.380706    39A      0.399300    40A      0.435797  
      41A      0.459821    42A      0.470372    43A      0.494110  
      44A      0.709617    45A      0.726089    46A      0.753874  
      47A      0.758072    48A      0.771383    49A      0.830939  
      50A      0.836781    51A      0.850059    52A      0.924304  
      53A      0.951878    54A      0.981524    55A      0.990205  
      56A      1.004132    57A      1.017069    58A      1.040550  
      59A      1.078255    60A      1.125298    61A      1.135259  
      62A      1.148546    63A      1.171728    64A      1.180500  
      65A      1.194567    66A      1.211045    67A      1.219357  
      68A      1.225445    69A      1.227859    70A      1.236490  
      71A      1.254708    72A      1.260598    73A      1.270665  
      74A      1.300190    75A      1.397233    76A      1.461373  
      77A      1.624966    78A      1.672785    79A      1.699834  
      80A      1.742139    81A      1.820448    82A      1.841033  
      83A      1.948558    84A      2.014874    85A      2.097449  
      86A      2.134902    87A      2.197899    88A      2.229942  
      89A      2.255628    90A      2.274529    91A      2.299911  
      92A      2.323145    93A      2.342477    94A      2.379153  
      95A      2.416203    96A      2.467969    97A      2.581158  
      98A      2.618697    99A      2.632112   100A      2.689295  
     101A      2.696444   102A      2.756710   103A      2.797635  
     104A      2.803893   105A      2.884476   106A      2.934599  
     107A      2.937655   108A      3.046981   109A      3.142245  
     110A      3.171624   111A      4.210112   112A      4.568160  
     113A      4.667015   114A      4.768543   115A      4.881006  
     116A      4.999521  

    Final Occupation by Irrep:
              A 
    DOCC [    25 ]

  Energy converged.

  @DF-RHF Final Energy:  -251.34548096932312

   => Energetics <=

    Nuclear Repulsion Energy =            246.6126724260509775
    One-Electron Energy =                -827.4114975735159305
    Two-Electron Energy =                 329.4533441781414353
    DFT Exchange-Correlation Energy =       0.0000000000000000
    Empirical Dispersion Energy =           0.0000000000000000
    PCM Polarization Energy =               0.0000000000000000
    EFP Energy =                            0.0000000000000000
    Total Energy =                       -251.3454809693235461

    Alert: EFP and PCM quantities not currently incorporated into SCF psivars.

Properties will be evaluated at   0.000000,   0.000000,   0.000000 Bohr
  ==> Properties <==


Properties computed using the SCF density matrix

  Nuclear Dipole Moment: (a.u.)
     X:    -3.5649      Y:     0.8877      Z:    -0.3260

  Electronic Dipole Moment: (a.u.)
     X:     3.4639      Y:    -0.3736      Z:     0.4322

  Dipole Moment: (a.u.)
     X:    -0.1010      Y:     0.5141      Z:     0.1062     Total:     0.5346

  Dipole Moment: (Debye)
     X:    -0.2566      Y:     1.3067      Z:     0.2699     Total:     1.3588


  Saving occupied orbitals to File 180.

*** tstop() called on cx1-3-3-2.cx1.hpc.ic.ac.uk at Tue Jul  5 16:25:44 2016
Module time:
	user time   =       8.08 seconds =       0.13 minutes
	system time =       0.04 seconds =       0.00 minutes
	total time  =          8 seconds =       0.13 minutes
Total time:
	user time   =       8.08 seconds =       0.13 minutes
	system time =       0.04 seconds =       0.00 minutes
	total time  =          8 seconds =       0.13 minutes


Properties will be evaluated at   0.000000,   0.000000,   0.000000 Bohr

Properties computed using the  density matrix

  Nuclear Dipole Moment: (a.u.)
     X:    -3.5649      Y:     0.8877      Z:    -0.3260

  Electronic Dipole Moment: (a.u.)
     X:     3.4639      Y:    -0.3736      Z:     0.4322

  Dipole Moment: (a.u.)
     X:    -0.1010      Y:     0.5141      Z:     0.1062     Total:     0.5346

  Dipole Moment: (Debye)
     X:    -0.2566      Y:     1.3067      Z:     0.2699     Total:     1.3588

  Quadrupole Moment: (Debye Ang)
    XX:   -42.5364     YY:   -42.0453     ZZ:   -38.4269
    XY:     5.0925     XZ:     0.4411     YZ:     1.2017

  Traceless Quadrupole Moment: (Debye Ang)
    XX:    -1.5335     YY:    -1.0424     ZZ:     2.5759
    XY:     5.0925     XZ:     0.4411     YZ:     1.2017

  Mulliken Charges: (a.u.)
   Center  Symbol    Alpha    Beta     Spin     Total
       1     H     0.33367  0.33367  0.00000  0.33265
       2     N     3.92092  3.92092  0.00000 -0.84183
       3     C     3.06397  3.06397  0.00000 -0.12795
       4     H     0.33579  0.33579  0.00000  0.32841
       5     C     3.15695  3.15695  0.00000 -0.31390
       6     H     0.41886  0.41886  0.00000  0.16227
       7     H     0.43144  0.43144  0.00000  0.13712
       8     C     3.15577  3.15577  0.00000 -0.31154
       9     H     0.41834  0.41834  0.00000  0.16332
      10     H     0.41456  0.41456  0.00000  0.17088
      11     C     3.15148  3.15148  0.00000 -0.30297
      12     H     0.42426  0.42426  0.00000  0.15149
      13     H     0.42569  0.42569  0.00000  0.14862
      14     C     3.23911  3.23911  0.00000 -0.47821
      15     H     0.42246  0.42246  0.00000  0.15507
      16     H     0.42282  0.42282  0.00000  0.15435
      17     H     0.42207  0.42207  0.00000  0.15587
      18     H     0.41937  0.41937  0.00000  0.16127
      19     H     0.42246  0.42246  0.00000  0.15508

   Total alpha = 25.00000, Total beta = 25.00000, Total charge =  0.00000


*** PSI4 exiting successfully. Buy a developer a beer!
