    -----------------------------------------------------------------------
          Psi4: An Open-Source Ab Initio Electronic Structure Package
                              Psi4 (no tag) Driver

                          Git: Rev {detached?}  

    J. M. Turney, A. C. Simmonett, R. M. Parrish, E. G. Hohenstein,
    F. A. Evangelista, J. T. Fermann, B. J. Mintz, L. A. Burns, J. J. Wilke,
    M. L. Abrams, N. J. Russ, M. L. Leininger, C. L. Janssen, E. T. Seidl,
    W. D. Allen, H. F. Schaefer, R. A. King, E. F. Valeev, C. D. Sherrill,
    and T. D. Crawford, WIREs Comput. Mol. Sci. 2, 556-565 (2012)
    (doi: 10.1002/wcms.93)

                         Additional Contributions by
    A. E. DePrince, M. Saitow, U. Bozkaya, A. Yu. Sokolov
    -----------------------------------------------------------------------


    Psi4 started on: Tue Jul  5 16:21:46 2016

    Process ID:  19324
    PSI4DATADIR: /export131/home/mjharvey/miniconda3/share
    Memory level set to 256.000 MB

  ==> Input File <==

--------------------------------------------------------------------------
set {
	reference rhf
	basis 6-31G*
}


set_num_threads( 1 )
memory 2 gb

molecule MOL {
0 1

H	 -0.891815	 -1.275557	 -0.063677
N	 -1.172117	 -0.314371	 -0.100254
C	 -0.024542	 0.565565	 0.069209
H	 -1.595540	 -0.169681	 -0.997391
C	 1.271298	 -0.229563	 -0.014192
H	 -0.049409	 1.297310	 -0.731596
H	 -0.046881	 1.125219	 1.006750
H	 1.332152	 -0.753033	 -0.961461
H	 2.134169	 0.422483	 0.080702
H	 1.326077	 -0.968298	 0.781395

	symmetry c1
}
ee = energy('scf')
oeprop('DIPOLE', 'QUADRUPOLE', 'MULLIKEN_CHARGES')
f=open( 'psi4out.xyz', 'w' )
f.write( "10  " )
f.write( str(ee) + "\n" )
f.write( MOL.save_string_xyz() )
f.close()
--------------------------------------------------------------------------

  Memory set to   2.000 GiB by Python script.

*** tstart() called on cx1-3-15-2.cx1.hpc.ic.ac.uk
*** at Tue Jul  5 16:21:46 2016


         ---------------------------------------------------------
                                   SCF
            by Justin Turney, Rob Parrish, and Andy Simmonett
                              RHF Reference
                        1 Threads,   2000 MiB Core
         ---------------------------------------------------------

  ==> Geometry <==

    Molecular point group: c1
    Full point group: C1

    Geometry (in Angstrom), charge = 0, multiplicity = 1:

       Center              X                  Y                   Z               Mass       
    ------------   -----------------  -----------------  -----------------  -----------------
           H         -0.908989975793    -1.260149927011    -0.027371105733     1.007825032070
           N         -1.189291975793    -0.298963927011    -0.063948105733    14.003074004780
           C         -0.041716975793     0.580972072989     0.105514894267    12.000000000000
           H         -1.612714975793    -0.154273927011    -0.961085105733     1.007825032070
           C          1.254123024207    -0.214155927011     0.022113894267    12.000000000000
           H         -0.066583975793     1.312717072989    -0.695290105733     1.007825032070
           H         -0.064055975793     1.140626072989     1.043055894267     1.007825032070
           H          1.314977024207    -0.737625927011    -0.925155105733     1.007825032070
           H          2.116994024207     0.437890072989     0.117007894267     1.007825032070
           H          1.308902024207    -0.952890927011     0.817700894267     1.007825032070

  Running in c1 symmetry.

  Rotational constants: A =      1.04136  B =      0.31059  C =      0.26876 [cm^-1]
  Rotational constants: A =  31219.13959  B =   9311.37944  C =   8057.33403 [MHz]
  Nuclear repulsion =   83.670262783733335

  Charge       = 0
  Multiplicity = 1
  Electrons    = 26
  Nalpha       = 13
  Nbeta        = 13

  ==> Algorithm <==

  SCF Algorithm Type is DF.
  DIIS enabled.
  MOM disabled.
  Fractional occupation disabled.
  Guess Type is CORE.
  Energy threshold   = 1.00e-06
  Density threshold  = 1.00e-06
  Integral threshold = 0.00e+00

  ==> Primary Basis <==

  Basis Set: 6-31G*
    Number of shells: 32
    Number of basis function: 59
    Number of Cartesian functions: 59
    Spherical Harmonics?: false
    Max angular momentum: 2

  ==> Pre-Iterations <==

   -------------------------------------------------------
    Irrep   Nso     Nmo     Nalpha   Nbeta   Ndocc  Nsocc
   -------------------------------------------------------
     A         59      59       0       0       0       0
   -------------------------------------------------------
    Total      59      59      13      13      13       0
   -------------------------------------------------------

 OEINTS: Overlap, kinetic, potential, dipole, and quadrupole integrals
         stored in file 35.

  ==> Integral Setup <==

  ==> DFJK: Density-Fitted J/K Matrices <==

    J tasked:                  Yes
    K tasked:                  Yes
    wK tasked:                  No
    OpenMP threads:              1
    Integrals threads:           1
    Memory (MB):              1430
    Algorithm:                Core
    Integral Cache:           NONE
    Schwarz Cutoff:          1E-12
    Fitting Condition:       1E-12

   => Auxiliary Basis Set <=

  Basis Set: 
    Number of shells: 135
    Number of basis function: 418
    Number of Cartesian functions: 418
    Spherical Harmonics?: false
    Max angular momentum: 3

  Minimum eigenvalue in the overlap matrix is 5.6219607658E-03.
  Using Symmetric Orthogonalization.
  SCF Guess: Core (One-Electron) Hamiltonian.

  ==> Iterations <==

                           Total Energy        Delta E     RMS |[F,P]|

   @DF-RHF iter   1:  -108.77882895508327   -1.08779e+02   9.46934e-02 
   @DF-RHF iter   2:  -108.78964535009527   -1.08164e-02   6.45868e-02 DIIS
   @DF-RHF iter   3:  -117.64603118765922   -8.85639e+00   6.87670e-02 DIIS
   @DF-RHF iter   4:  -133.64388054082636   -1.59978e+01   1.75145e-02 DIIS
   @DF-RHF iter   5:  -134.14511394698917   -5.01233e-01   6.96697e-03 DIIS
   @DF-RHF iter   6:  -134.22868757377083   -8.35736e-02   2.18939e-03 DIIS
   @DF-RHF iter   7:  -134.24135792062515   -1.26703e-02   4.62645e-04 DIIS
   @DF-RHF iter   8:  -134.24208904523528   -7.31125e-04   1.03029e-04 DIIS
   @DF-RHF iter   9:  -134.24212923115601   -4.01859e-05   3.72400e-05 DIIS
   @DF-RHF iter  10:  -134.24213287311167   -3.64196e-06   9.68319e-06 DIIS
   @DF-RHF iter  11:  -134.24213313419477   -2.61083e-07   2.34494e-06 DIIS
   @DF-RHF iter  12:  -134.24213315076318   -1.65684e-08   3.93141e-07 DIIS

  ==> Post-Iterations <==

    Orbital Energies (a.u.)
    -----------------------

    Doubly Occupied:                                                      

       1A    -15.530408     2A    -11.243067     3A    -11.212420  
       4A     -1.177578     5A     -0.988216     6A     -0.831532  
       7A     -0.667355     8A     -0.609927     9A     -0.591826  
      10A     -0.535044    11A     -0.510991    12A     -0.488750  
      13A     -0.376694  

    Virtual:                                                              

      14A      0.224858    15A      0.274254    16A      0.282352  
      17A      0.309299    18A      0.322112    19A      0.334365  
      20A      0.360666    21A      0.429650    22A      0.448194  
      23A      0.728782    24A      0.748675    25A      0.795536  
      26A      0.823072    27A      0.891977    28A      0.931788  
      29A      1.011823    30A      1.077940    31A      1.100012  
      32A      1.149367    33A      1.174192    34A      1.196539  
      35A      1.213819    36A      1.235556    37A      1.241421  
      38A      1.257787    39A      1.277641    40A      1.578357  
      41A      1.680896    42A      1.729571    43A      1.831512  
      44A      2.090300    45A      2.222147    46A      2.244273  
      47A      2.325489    48A      2.403689    49A      2.466523  
      50A      2.529104    51A      2.678068    52A      2.685518  
      53A      2.777428    54A      2.824190    55A      2.994157  
      56A      3.087971    57A      4.212451    58A      4.623326  
      59A      4.849661  

    Final Occupation by Irrep:
              A 
    DOCC [    13 ]

  Energy converged.

  @DF-RHF Final Energy:  -134.24213315076318

   => Energetics <=

    Nuclear Repulsion Energy =             83.6702627837333353
    One-Electron Energy =                -346.2971701408020522
    Two-Electron Energy =                 128.3847742063054227
    DFT Exchange-Correlation Energy =       0.0000000000000000
    Empirical Dispersion Energy =           0.0000000000000000
    PCM Polarization Energy =               0.0000000000000000
    EFP Energy =                            0.0000000000000000
    Total Energy =                       -134.2421331507632942

    Alert: EFP and PCM quantities not currently incorporated into SCF psivars.

Properties will be evaluated at   0.000000,   0.000000,   0.000000 Bohr
  ==> Properties <==


Properties computed using the SCF density matrix

  Nuclear Dipole Moment: (a.u.)
     X:     1.9614      Y:    -0.1995      Z:    -0.5915

  Electronic Dipole Moment: (a.u.)
     X:    -1.5622      Y:     0.0775      Z:     0.1104

  Dipole Moment: (a.u.)
     X:     0.3992      Y:    -0.1220      Z:    -0.4811     Total:     0.6369

  Dipole Moment: (Debye)
     X:     1.0146      Y:    -0.3101      Z:    -1.2228     Total:     1.6189


  Saving occupied orbitals to File 180.

*** tstop() called on cx1-3-15-2.cx1.hpc.ic.ac.uk at Tue Jul  5 16:21:49 2016
Module time:
	user time   =       1.87 seconds =       0.03 minutes
	system time =       0.03 seconds =       0.00 minutes
	total time  =          3 seconds =       0.05 minutes
Total time:
	user time   =       1.87 seconds =       0.03 minutes
	system time =       0.03 seconds =       0.00 minutes
	total time  =          3 seconds =       0.05 minutes


Properties will be evaluated at   0.000000,   0.000000,   0.000000 Bohr

Properties computed using the  density matrix

  Nuclear Dipole Moment: (a.u.)
     X:     1.9614      Y:    -0.1995      Z:    -0.5915

  Electronic Dipole Moment: (a.u.)
     X:    -1.5622      Y:     0.0775      Z:     0.1104

  Dipole Moment: (a.u.)
     X:     0.3992      Y:    -0.1220      Z:    -0.4811     Total:     0.6369

  Dipole Moment: (Debye)
     X:     1.0146      Y:    -0.3101      Z:    -1.2228     Total:     1.6189

  Quadrupole Moment: (Debye Ang)
    XX:   -23.6332     YY:   -19.2822     ZZ:   -20.0712
    XY:     0.4338     XZ:     2.6913     YZ:     0.1243

  Traceless Quadrupole Moment: (Debye Ang)
    XX:    -2.6377     YY:     1.7133     ZZ:     0.9244
    XY:     0.4338     XZ:     2.6913     YZ:     0.1243

  Mulliken Charges: (a.u.)
   Center  Symbol    Alpha    Beta     Spin     Total
       1     H     0.33191  0.33191  0.00000  0.33618
       2     N     3.92495  3.92495  0.00000 -0.84990
       3     C     3.05186  3.05186  0.00000 -0.10372
       4     H     0.33227  0.33227  0.00000  0.33547
       5     C     3.25273  3.25273  0.00000 -0.50546
       6     H     0.42556  0.42556  0.00000  0.14889
       7     H     0.41966  0.41966  0.00000  0.16068
       8     H     0.42267  0.42267  0.00000  0.15467
       9     H     0.41937  0.41937  0.00000  0.16127
      10     H     0.41904  0.41904  0.00000  0.16192

   Total alpha = 13.00000, Total beta = 13.00000, Total charge = -0.00000


*** PSI4 exiting successfully. Buy a developer a beer!
