    -----------------------------------------------------------------------
          Psi4: An Open-Source Ab Initio Electronic Structure Package
                              Psi4 (no tag) Driver

                          Git: Rev {detached?}  

    J. M. Turney, A. C. Simmonett, R. M. Parrish, E. G. Hohenstein,
    F. A. Evangelista, J. T. Fermann, B. J. Mintz, L. A. Burns, J. J. Wilke,
    M. L. Abrams, N. J. Russ, M. L. Leininger, C. L. Janssen, E. T. Seidl,
    W. D. Allen, H. F. Schaefer, R. A. King, E. F. Valeev, C. D. Sherrill,
    and T. D. Crawford, WIREs Comput. Mol. Sci. 2, 556-565 (2012)
    (doi: 10.1002/wcms.93)

                         Additional Contributions by
    A. E. DePrince, M. Saitow, U. Bozkaya, A. Yu. Sokolov
    -----------------------------------------------------------------------


    Psi4 started on: Tue Jul  5 16:24:54 2016

    Process ID:  18742
    PSI4DATADIR: /export131/home/mjharvey/miniconda3/share
    Memory level set to 256.000 MB

  ==> Input File <==

--------------------------------------------------------------------------
set {
	reference rhf
	basis 6-31G*
}


set_num_threads( 1 )
memory 2 gb

molecule MOL {
0 1

H	 0.202921	 1.257068	 -1.099176
O	 0.055946	 1.300438	 -0.164479
C	 0.004957	 -0.004114	 0.366649
C	 1.201664	 -0.828089	 -0.095740
C	 -1.317755	 -0.601827	 -0.081511
H	 0.013527	 0.048298	 1.454924
H	 1.216388	 -0.895289	 -1.178704
H	 2.135132	 -0.372895	 0.226467
H	 1.166770	 -1.832878	 0.313827
H	 -1.355732	 -0.658248	 -1.164429
H	 -2.141614	 0.017037	 0.254547
H	 -1.447303	 -1.600817	 0.322594

	symmetry c1
}
ee = energy('scf')
oeprop('DIPOLE', 'QUADRUPOLE', 'MULLIKEN_CHARGES')
f=open( 'psi4out.xyz', 'w' )
f.write( "12  " )
f.write( str(ee) + "\n" )
f.write( MOL.save_string_xyz() )
f.close()
--------------------------------------------------------------------------

  Memory set to   2.000 GiB by Python script.

*** tstart() called on cx1-3-15-4.cx1.hpc.ic.ac.uk
*** at Tue Jul  5 16:24:55 2016


         ---------------------------------------------------------
                                   SCF
            by Justin Turney, Rob Parrish, and Andy Simmonett
                              RHF Reference
                        1 Threads,   2000 MiB Core
         ---------------------------------------------------------

  ==> Geometry <==

    Molecular point group: c1
    Full point group: C1

    Geometry (in Angstrom), charge = 0, multiplicity = 1:

       Center              X                  Y                   Z               Mass       
    ------------   -----------------  -----------------  -----------------  -----------------
           H          0.213749121482     1.265015124398    -1.078615559714     1.007825032070
           O          0.066774121482     1.308385124398    -0.143918559714    15.994914619560
           C          0.015785121482     0.003833124398     0.387209440286    12.000000000000
           C          1.212492121482    -0.820141875602    -0.075179559714    12.000000000000
           C         -1.306926878518    -0.593879875602    -0.060950559714    12.000000000000
           H          0.024355121482     0.056245124398     1.475484440286     1.007825032070
           H          1.227216121482    -0.887341875602    -1.158143559714     1.007825032070
           H          2.145960121482    -0.364947875602     0.247027440286     1.007825032070
           H          1.177598121482    -1.824930875602     0.334387440286     1.007825032070
           H         -1.344903878518    -0.650300875602    -1.143868559714     1.007825032070
           H         -2.130785878518     0.024984124398     0.275107440286     1.007825032070
           H         -1.436474878518    -1.592869875602     0.343154440286     1.007825032070

  Running in c1 symmetry.

  Rotational constants: A =      0.29751  B =      0.26620  C =      0.16361 [cm^-1]
  Rotational constants: A =   8919.17597  B =   7980.45649  C =   4904.86489 [MHz]
  Nuclear repulsion =  135.875516873599679

  Charge       = 0
  Multiplicity = 1
  Electrons    = 34
  Nalpha       = 17
  Nbeta        = 17

  ==> Algorithm <==

  SCF Algorithm Type is DF.
  DIIS enabled.
  MOM disabled.
  Fractional occupation disabled.
  Guess Type is CORE.
  Energy threshold   = 1.00e-06
  Density threshold  = 1.00e-06
  Integral threshold = 0.00e+00

  ==> Primary Basis <==

  Basis Set: 6-31G*
    Number of shells: 40
    Number of basis function: 76
    Number of Cartesian functions: 76
    Spherical Harmonics?: false
    Max angular momentum: 2

  ==> Pre-Iterations <==

   -------------------------------------------------------
    Irrep   Nso     Nmo     Nalpha   Nbeta   Ndocc  Nsocc
   -------------------------------------------------------
     A         76      76       0       0       0       0
   -------------------------------------------------------
    Total      76      76      17      17      17       0
   -------------------------------------------------------

 OEINTS: Overlap, kinetic, potential, dipole, and quadrupole integrals
         stored in file 35.

  ==> Integral Setup <==

  ==> DFJK: Density-Fitted J/K Matrices <==

    J tasked:                  Yes
    K tasked:                  Yes
    wK tasked:                  No
    OpenMP threads:              1
    Integrals threads:           1
    Memory (MB):              1430
    Algorithm:                Core
    Integral Cache:           NONE
    Schwarz Cutoff:          1E-12
    Fitting Condition:       1E-12

   => Auxiliary Basis Set <=

  Basis Set: 
    Number of shells: 168
    Number of basis function: 524
    Number of Cartesian functions: 524
    Spherical Harmonics?: false
    Max angular momentum: 3

  Minimum eigenvalue in the overlap matrix is 4.2279219233E-03.
  Using Symmetric Orthogonalization.
  SCF Guess: Core (One-Electron) Hamiltonian.

  ==> Iterations <==

                           Total Energy        Delta E     RMS |[F,P]|

   @DF-RHF iter   1:  -158.68063177607462   -1.58681e+02   8.53912e-02 
   @DF-RHF iter   2:  -156.79696258994881    1.88367e+00   5.73591e-02 DIIS
   @DF-RHF iter   3:  -174.36544247661948   -1.75685e+01   6.26213e-02 DIIS
   @DF-RHF iter   4:  -191.49285535435934   -1.71274e+01   2.36766e-02 DIIS
   @DF-RHF iter   5:  -192.57714487928814   -1.08429e+00   1.30221e-02 DIIS
   @DF-RHF iter   6:  -193.01797836080965   -4.40833e-01   5.38422e-03 DIIS
   @DF-RHF iter   7:  -193.10792413896922   -8.99458e-02   1.12622e-03 DIIS
   @DF-RHF iter   8:  -193.11189100100228   -3.96686e-03   4.22809e-04 DIIS
   @DF-RHF iter   9:  -193.11269667096548   -8.05670e-04   1.03556e-04 DIIS
   @DF-RHF iter  10:  -193.11274868999811   -5.20190e-05   2.25264e-05 DIIS
   @DF-RHF iter  11:  -193.11275115900349   -2.46901e-06   4.48660e-06 DIIS
   @DF-RHF iter  12:  -193.11275125614378   -9.71403e-08   1.30067e-06 DIIS
   @DF-RHF iter  13:  -193.11275126564766   -9.50388e-09   3.66913e-07 DIIS

  ==> Post-Iterations <==

    Orbital Energies (a.u.)
    -----------------------

    Doubly Occupied:                                                      

       1A    -20.549427     2A    -11.276584     3A    -11.215730  
       4A    -11.208376     5A     -1.360829     6A     -1.042043  
       7A     -0.942013     8A     -0.817012     9A     -0.661126  
      10A     -0.649231    11A     -0.600499    12A     -0.573776  
      13A     -0.548351    14A     -0.516804    15A     -0.509298  
      16A     -0.464902    17A     -0.428178  

    Virtual:                                                              

      18A      0.217732    19A      0.263948    20A      0.291487  
      21A      0.299215    22A      0.308137    23A      0.322342  
      24A      0.348745    25A      0.352055    26A      0.399110  
      27A      0.430119    28A      0.446545    29A      0.703062  
      30A      0.726514    31A      0.789152    32A      0.808839  
      33A      0.810911    34A      0.901162    35A      0.943259  
      36A      0.967506    37A      0.989722    38A      1.117220  
      39A      1.142973    40A      1.165501    41A      1.172943  
      42A      1.186196    43A      1.193430    44A      1.211635  
      45A      1.232894    46A      1.251033    47A      1.283483  
      48A      1.336431    49A      1.437864    50A      1.601446  
      51A      1.676521    52A      1.690343    53A      1.839944  
      54A      1.893309    55A      2.040765    56A      2.063793  
      57A      2.122336    58A      2.184494    59A      2.280259  
      60A      2.302742    61A      2.391695    62A      2.463019  
      63A      2.536519    64A      2.582838    65A      2.602216  
      66A      2.635772    67A      2.709604    68A      2.885100  
      69A      2.889979    70A      2.970897    71A      3.084461  
      72A      3.230893    73A      4.195774    74A      4.611090  
      75A      4.720163    76A      4.933819  

    Final Occupation by Irrep:
              A 
    DOCC [    17 ]

  Energy converged.

  @DF-RHF Final Energy:  -193.11275126564766

   => Energetics <=

    Nuclear Repulsion Energy =            135.8755168735996790
    One-Electron Energy =                -531.2482216055100253
    Two-Electron Energy =                 202.2599534662628287
    DFT Exchange-Correlation Energy =       0.0000000000000000
    Empirical Dispersion Energy =           0.0000000000000000
    PCM Polarization Energy =               0.0000000000000000
    EFP Energy =                            0.0000000000000000
    Total Energy =                       -193.1127512656475176

    Alert: EFP and PCM quantities not currently incorporated into SCF psivars.

Properties will be evaluated at   0.000000,   0.000000,   0.000000 Bohr
  ==> Properties <==


Properties computed using the SCF density matrix

  Nuclear Dipole Moment: (a.u.)
     X:    -0.1153      Y:    -3.7194      Z:    -0.6620

  Electronic Dipole Moment: (a.u.)
     X:     0.2085      Y:     3.1262      Z:     0.3289

  Dipole Moment: (a.u.)
     X:     0.0932      Y:    -0.5931      Z:    -0.3331     Total:     0.6866

  Dipole Moment: (Debye)
     X:     0.2370      Y:    -1.5076      Z:    -0.8467     Total:     1.7453


  Saving occupied orbitals to File 180.

*** tstop() called on cx1-3-15-4.cx1.hpc.ic.ac.uk at Tue Jul  5 16:24:59 2016
Module time:
	user time   =       2.97 seconds =       0.05 minutes
	system time =       0.03 seconds =       0.00 minutes
	total time  =          4 seconds =       0.07 minutes
Total time:
	user time   =       2.97 seconds =       0.05 minutes
	system time =       0.03 seconds =       0.00 minutes
	total time  =          4 seconds =       0.07 minutes


Properties will be evaluated at   0.000000,   0.000000,   0.000000 Bohr

Properties computed using the  density matrix

  Nuclear Dipole Moment: (a.u.)
     X:    -0.1153      Y:    -3.7194      Z:    -0.6620

  Electronic Dipole Moment: (a.u.)
     X:     0.2085      Y:     3.1262      Z:     0.3289

  Dipole Moment: (a.u.)
     X:     0.0932      Y:    -0.5931      Z:    -0.3331     Total:     0.6866

  Dipole Moment: (Debye)
     X:     0.2370      Y:    -1.5076      Z:    -0.8467     Total:     1.7453

  Quadrupole Moment: (Debye Ang)
    XX:   -26.9648     YY:   -29.8085     ZZ:   -23.7789
    XY:     0.0333     XZ:    -0.4589     YZ:    -2.0708

  Traceless Quadrupole Moment: (Debye Ang)
    XX:    -0.1140     YY:    -2.9578     ZZ:     3.0718
    XY:     0.0333     XZ:    -0.4589     YZ:    -2.0708

  Mulliken Charges: (a.u.)
   Center  Symbol    Alpha    Beta     Spin     Total
       1     H     0.28358  0.28358  0.00000  0.43284
       2     O     4.37133  4.37133  0.00000 -0.74267
       3     C     2.92084  2.92084  0.00000  0.15831
       4     C     3.24941  3.24941  0.00000 -0.49883
       5     C     3.23911  3.23911  0.00000 -0.47822
       6     H     0.41512  0.41512  0.00000  0.16977
       7     H     0.42726  0.42726  0.00000  0.14548
       8     H     0.41096  0.41096  0.00000  0.17809
       9     H     0.41882  0.41882  0.00000  0.16237
      10     H     0.42832  0.42832  0.00000  0.14336
      11     H     0.41024  0.41024  0.00000  0.17952
      12     H     0.42501  0.42501  0.00000  0.14999

   Total alpha = 17.00000, Total beta = 17.00000, Total charge =  0.00000


*** PSI4 exiting successfully. Buy a developer a beer!
