    -----------------------------------------------------------------------
          Psi4: An Open-Source Ab Initio Electronic Structure Package
                              Psi4 (no tag) Driver

                          Git: Rev {detached?}  

    J. M. Turney, A. C. Simmonett, R. M. Parrish, E. G. Hohenstein,
    F. A. Evangelista, J. T. Fermann, B. J. Mintz, L. A. Burns, J. J. Wilke,
    M. L. Abrams, N. J. Russ, M. L. Leininger, C. L. Janssen, E. T. Seidl,
    W. D. Allen, H. F. Schaefer, R. A. King, E. F. Valeev, C. D. Sherrill,
    and T. D. Crawford, WIREs Comput. Mol. Sci. 2, 556-565 (2012)
    (doi: 10.1002/wcms.93)

                         Additional Contributions by
    A. E. DePrince, M. Saitow, U. Bozkaya, A. Yu. Sokolov
    -----------------------------------------------------------------------


    Psi4 started on: Tue Jul  5 17:20:46 2016

    Process ID:  20713
    PSI4DATADIR: /export131/home/mjharvey/miniconda3/share
    Memory level set to 256.000 MB

  ==> Input File <==

--------------------------------------------------------------------------
set {
	reference rhf
	basis 6-31G*
}


set_num_threads( 1 )
memory 2 gb

molecule MOL {
0 1

H	 -2.646374	 -0.642757	 1.268656
C	 -2.083525	 -0.384536	 0.393091
O	 -0.807605	 -0.127164	 0.768327
F	 -2.118945	 -1.383102	 -0.486752
F	 -2.621877	 0.670592	 -0.209486
C	 -0.025451	 0.631654	 -0.083212
C	 -0.818573	 1.889572	 -0.412999
Cl	 0.357653	 -0.269192	 -1.559329
H	 0.904837	 0.927250	 0.369514
F	 -1.862756	 1.592597	 -1.157061
F	 -0.047492	 2.709801	 -1.098635
F	 -1.231106	 2.511096	 0.664729

	symmetry c1
}
set optking {
	frozen_dihedral = ("
		10 7 6 9,
		9 6 3 2
	")
}

ee = energy('scf')
oeprop('DIPOLE', 'QUADRUPOLE', 'MULLIKEN_CHARGES')
f=open( 'psi4out.xyz', 'w' )
f.write( "12  " )
f.write( str(ee) + "\n" )
f.write( MOL.save_string_xyz() )
f.close()
--------------------------------------------------------------------------

  Memory set to   2.000 GiB by Python script.

*** tstart() called on cx1-3-4-4.cx1.hpc.ic.ac.uk
*** at Tue Jul  5 17:20:46 2016


         ---------------------------------------------------------
                                   SCF
            by Justin Turney, Rob Parrish, and Andy Simmonett
                              RHF Reference
                        1 Threads,   2000 MiB Core
         ---------------------------------------------------------

  ==> Geometry <==

    Molecular point group: c1
    Full point group: C1

    Geometry (in Angstrom), charge = 0, multiplicity = 1:

       Center              X                  Y                   Z               Mass       
    ------------   -----------------  -----------------  -----------------  -----------------
           H         -1.629665237544    -1.351500950502     1.732197071656     1.007825032070
           C         -1.066816237544    -1.093279950502     0.856632071656    12.000000000000
           O          0.209103762456    -0.835907950502     1.231868071656    15.994914619560
           F         -1.102236237544    -2.091845950502    -0.023210928344    18.998403224000
           F         -1.605168237544    -0.038151950502     0.254055071656    18.998403224000
           C          0.991257762456    -0.077089950502     0.380329071656    12.000000000000
           C          0.198135762456     1.180828049498     0.050542071656    12.000000000000
          CL          1.374361762456    -0.977935950502    -1.095787928344    34.968852682000
           H          1.921545762456     0.218506049498     0.833055071656     1.007825032070
           F         -0.846047237544     0.883853049498    -0.693519928344    18.998403224000
           F          0.969216762456     2.001057049498    -0.635093928344    18.998403224000
           F         -0.214397237544     1.802352049498     1.128270071656    18.998403224000

  Running in c1 symmetry.

  Rotational constants: A =      0.05287  B =      0.04195  C =      0.03018 [cm^-1]
  Rotational constants: A =   1585.01118  B =   1257.72748  C =    904.68754 [MHz]
  Nuclear repulsion =  794.435354051892432

  Charge       = 0
  Multiplicity = 1
  Electrons    = 90
  Nalpha       = 45
  Nbeta        = 45

  ==> Algorithm <==

  SCF Algorithm Type is DF.
  DIIS enabled.
  MOM disabled.
  Fractional occupation disabled.
  Guess Type is CORE.
  Energy threshold   = 1.00e-06
  Density threshold  = 1.00e-06
  Integral threshold = 0.00e+00

  ==> Primary Basis <==

  Basis Set: 6-31G*
    Number of shells: 66
    Number of basis function: 158
    Number of Cartesian functions: 158
    Spherical Harmonics?: false
    Max angular momentum: 2

  ==> Pre-Iterations <==

   -------------------------------------------------------
    Irrep   Nso     Nmo     Nalpha   Nbeta   Ndocc  Nsocc
   -------------------------------------------------------
     A        158     158       0       0       0       0
   -------------------------------------------------------
    Total     158     158      45      45      45       0
   -------------------------------------------------------

 OEINTS: Overlap, kinetic, potential, dipole, and quadrupole integrals
         stored in file 35.

  ==> Integral Setup <==

  ==> DFJK: Density-Fitted J/K Matrices <==

    J tasked:                  Yes
    K tasked:                  Yes
    wK tasked:                  No
    OpenMP threads:              1
    Integrals threads:           1
    Memory (MB):              1430
    Algorithm:                Core
    Integral Cache:           NONE
    Schwarz Cutoff:          1E-12
    Fitting Condition:       1E-12

   => Auxiliary Basis Set <=

  Basis Set: 
    Number of shells: 270
    Number of basis function: 909
    Number of Cartesian functions: 909
    Spherical Harmonics?: false
    Max angular momentum: 3

  Minimum eigenvalue in the overlap matrix is 1.3685550997E-03.
  Using Symmetric Orthogonalization.
  SCF Guess: Core (One-Electron) Hamiltonian.

  ==> Iterations <==

                           Total Energy        Delta E     RMS |[F,P]|

   @DF-RHF iter   1: -1050.10211885718354   -1.05010e+03   6.96214e-02 
   @DF-RHF iter   2:  -945.66100109392653    1.04441e+02   8.03472e-02 DIIS
   @DF-RHF iter   3: -1111.09557796842182   -1.65435e+02   2.95051e-02 DIIS
   @DF-RHF iter   4:  -985.32604346076721    1.25770e+02   8.61180e-02 DIIS
   @DF-RHF iter   5: -1134.26024925526190   -1.48934e+02   3.11938e-02 DIIS
   @DF-RHF iter   6: -1141.63168472661255   -7.37144e+00   1.85527e-02 DIIS
   @DF-RHF iter   7: -1144.71908517626525   -3.08740e+00   1.13451e-02 DIIS
   @DF-RHF iter   8: -1145.88770429444412   -1.16862e+00   4.21930e-03 DIIS
   @DF-RHF iter   9: -1146.05399259296973   -1.66288e-01   2.10627e-03 DIIS
   @DF-RHF iter  10: -1146.09675010381761   -4.27575e-02   7.08818e-04 DIIS
   @DF-RHF iter  11: -1146.10323798339323   -6.48788e-03   1.74067e-04 DIIS
   @DF-RHF iter  12: -1146.10358132839247   -3.43345e-04   7.08845e-05 DIIS
   @DF-RHF iter  13: -1146.10365421400138   -7.28856e-05   1.94669e-05 DIIS
   @DF-RHF iter  14: -1146.10365896748181   -4.75348e-06   6.06545e-06 DIIS
   @DF-RHF iter  15: -1146.10365971542205   -7.47940e-07   1.53340e-06 DIIS
   @DF-RHF iter  16: -1146.10365975817604   -4.27540e-08   3.90514e-07 DIIS

  ==> Post-Iterations <==

    Orbital Energies (a.u.)
    -----------------------

    Doubly Occupied:                                                      

       1A   -104.841379     2A    -26.363938     3A    -26.351974  
       4A    -26.327926     5A    -26.309506     6A    -26.307711  
       7A    -20.645809     8A    -11.520108     9A    -11.475082  
      10A    -11.401324    11A    -10.576333    12A     -8.045683  
      13A     -8.042110    14A     -8.042024    15A     -1.784059  
      16A     -1.720023    17A     -1.662929    18A     -1.656479  
      19A     -1.596440    20A     -1.485404    21A     -1.176322  
      22A     -1.045540    23A     -1.016252    24A     -0.909314  
      25A     -0.890286    26A     -0.863491    27A     -0.837336  
      28A     -0.833105    29A     -0.799906    30A     -0.755242  
      31A     -0.739798    32A     -0.717772    33A     -0.702992  
      34A     -0.699926    35A     -0.684746    36A     -0.665461  
      37A     -0.662689    38A     -0.639184    39A     -0.629385  
      40A     -0.615292    41A     -0.559215    42A     -0.521944  
      43A     -0.489194    44A     -0.472358    45A     -0.464784  

    Virtual:                                                              

      46A      0.173994    47A      0.235694    48A      0.264681  
      49A      0.283789    50A      0.347136    51A      0.387633  
      52A      0.405526    53A      0.423013    54A      0.441441  
      55A      0.474889    56A      0.501685    57A      0.553741  
      58A      0.626039    59A      0.628891    60A      0.641076  
      61A      0.686530    62A      0.706367    63A      0.728433  
      64A      0.751622    65A      0.760434    66A      0.766793  
      67A      0.774976    68A      0.852030    69A      0.939962  
      70A      1.011641    71A      1.023767    72A      1.069146  
      73A      1.077819    74A      1.129314    75A      1.146789  
      76A      1.176515    77A      1.189156    78A      1.260539  
      79A      1.281816    80A      1.294029    81A      1.314838  
      82A      1.355211    83A      1.391854    84A      1.407654  
      85A      1.439103    86A      1.452283    87A      1.496997  
      88A      1.543177    89A      1.550103    90A      1.584531  
      91A      1.610611    92A      1.619927    93A      1.636449  
      94A      1.656808    95A      1.665716    96A      1.692802  
      97A      1.698727    98A      1.745558    99A      1.769357  
     100A      1.788448   101A      1.852455   102A      1.931714  
     103A      1.956971   104A      1.961942   105A      1.983337  
     106A      2.016446   107A      2.055772   108A      2.071541  
     109A      2.079156   110A      2.094265   111A      2.121208  
     112A      2.154913   113A      2.165637   114A      2.235921  
     115A      2.245339   116A      2.266109   117A      2.295074  
     118A      2.322800   119A      2.358343   120A      2.366561  
     121A      2.373442   122A      2.403328   123A      2.429460  
     124A      2.477417   125A      2.495444   126A      2.502427  
     127A      2.535799   128A      2.584671   129A      2.610361  
     130A      2.638615   131A      2.762548   132A      2.821244  
     133A      2.870044   134A      2.882604   135A      2.934517  
     136A      3.056189   137A      3.085560   138A      3.125157  
     139A      3.176645   140A      3.214458   141A      3.278586  
     142A      3.361101   143A      3.413593   144A      3.424418  
     145A      3.483218   146A      3.509204   147A      3.524852  
     148A      3.967497   149A      4.372779   150A      4.584486  
     151A      4.665811   152A      4.721255   153A      4.843321  
     154A      4.940088   155A      5.172054   156A      5.787836  
     157A      6.005604   158A      6.636755  

    Final Occupation by Irrep:
              A 
    DOCC [    45 ]

  Energy converged.

  @DF-RHF Final Energy: -1146.10365975817604

   => Energetics <=

    Nuclear Repulsion Energy =            794.4353540518924319
    One-Electron Energy =               -3171.9825863688765821
    Two-Electron Energy =                1231.4435725588082278
    DFT Exchange-Correlation Energy =       0.0000000000000000
    Empirical Dispersion Energy =           0.0000000000000000
    PCM Polarization Energy =               0.0000000000000000
    EFP Energy =                            0.0000000000000000
    Total Energy =                      -1146.1036597581760361

    Alert: EFP and PCM quantities not currently incorporated into SCF psivars.

Properties will be evaluated at   0.000000,   0.000000,   0.000000 Bohr
  ==> Properties <==


Properties computed using the SCF density matrix

  Nuclear Dipole Moment: (a.u.)
     X:     1.6566      Y:    -2.5833      Z:     3.3851

  Electronic Dipole Moment: (a.u.)
     X:    -1.4668      Y:     2.5584      Z:    -2.5348

  Dipole Moment: (a.u.)
     X:     0.1898      Y:    -0.0249      Z:     0.8503     Total:     0.8716

  Dipole Moment: (Debye)
     X:     0.4825      Y:    -0.0633      Z:     2.1612     Total:     2.2153


  Saving occupied orbitals to File 180.

*** tstop() called on cx1-3-4-4.cx1.hpc.ic.ac.uk at Tue Jul  5 17:21:06 2016
Module time:
	user time   =      18.97 seconds =       0.32 minutes
	system time =       0.25 seconds =       0.00 minutes
	total time  =         20 seconds =       0.33 minutes
Total time:
	user time   =      18.97 seconds =       0.32 minutes
	system time =       0.25 seconds =       0.00 minutes
	total time  =         20 seconds =       0.33 minutes


Properties will be evaluated at   0.000000,   0.000000,   0.000000 Bohr

Properties computed using the  density matrix

  Nuclear Dipole Moment: (a.u.)
     X:     1.6566      Y:    -2.5833      Z:     3.3851

  Electronic Dipole Moment: (a.u.)
     X:    -1.4668      Y:     2.5584      Z:    -2.5348

  Dipole Moment: (a.u.)
     X:     0.1898      Y:    -0.0249      Z:     0.8503     Total:     0.8716

  Dipole Moment: (Debye)
     X:     0.4825      Y:    -0.0633      Z:     2.1612     Total:     2.2153

  Quadrupole Moment: (Debye Ang)
    XX:   -56.7553     YY:   -63.5066     ZZ:   -59.0474
    XY:     1.9089     XZ:    -0.7748     YZ:    -1.0358

  Traceless Quadrupole Moment: (Debye Ang)
    XX:     3.0145     YY:    -3.7368     ZZ:     0.7224
    XY:     1.9089     XZ:    -0.7748     YZ:    -1.0358

  Mulliken Charges: (a.u.)
   Center  Symbol    Alpha    Beta     Spin     Total
       1     H     0.40743  0.40743  0.00000  0.18515
       2     C     2.56659  2.56659  0.00000  0.86681
       3     O     4.30275  4.30275  0.00000 -0.60550
       4     F     4.68290  4.68290  0.00000 -0.36580
       5     F     4.67406  4.67406  0.00000 -0.34813
       6     C     3.04232  3.04232  0.00000 -0.08464
       7     C     2.44435  2.44435  0.00000  1.11129
       8    CL     8.49917  8.49917  0.00000  0.00166
       9     H     0.36161  0.36161  0.00000  0.27677
      10     F     4.66502  4.66502  0.00000 -0.33003
      11     F     4.67828  4.67828  0.00000 -0.35656
      12     F     4.67551  4.67551  0.00000 -0.35101

   Total alpha = 45.00000, Total beta = 45.00000, Total charge =  0.00000


*** PSI4 exiting successfully. Buy a developer a beer!
