    -----------------------------------------------------------------------
          Psi4: An Open-Source Ab Initio Electronic Structure Package
                              Psi4 (no tag) Driver

                          Git: Rev {detached?}  

    J. M. Turney, A. C. Simmonett, R. M. Parrish, E. G. Hohenstein,
    F. A. Evangelista, J. T. Fermann, B. J. Mintz, L. A. Burns, J. J. Wilke,
    M. L. Abrams, N. J. Russ, M. L. Leininger, C. L. Janssen, E. T. Seidl,
    W. D. Allen, H. F. Schaefer, R. A. King, E. F. Valeev, C. D. Sherrill,
    and T. D. Crawford, WIREs Comput. Mol. Sci. 2, 556-565 (2012)
    (doi: 10.1002/wcms.93)

                         Additional Contributions by
    A. E. DePrince, M. Saitow, U. Bozkaya, A. Yu. Sokolov
    -----------------------------------------------------------------------


    Psi4 started on: Tue Jul  5 16:41:34 2016

    Process ID:  29554
    PSI4DATADIR: /export131/home/mjharvey/miniconda3/share
    Memory level set to 256.000 MB

  ==> Input File <==

--------------------------------------------------------------------------
set {
	reference rhf
	basis 6-31G*
}


set_num_threads( 1 )
memory 2 gb

molecule MOL {
0 1

H	 -3.593944	 2.051556	 1.379098
C	 -3.673312	 1.105598	 0.829111
C	 -2.660244	 0.921717	 -0.272021
O	 -4.513346	 0.316121	 1.116893
C	 -1.220012	 1.144545	 0.209990
H	 -2.790442	 -0.067678	 -0.694933
H	 -2.895027	 1.649847	 -1.047495
C	 -0.252658	 0.041456	 -0.226725
H	 -0.873521	 2.100229	 -0.171974
H	 -1.211708	 1.231594	 1.295398
C	 1.180775	 0.282413	 0.250794
H	 -0.266029	 -0.034465	 -1.312038
H	 -0.597733	 -0.921000	 0.146291
C	 2.148627	 -0.814315	 -0.201312
H	 1.516199	 1.249228	 -0.115937
H	 1.192670	 0.346017	 1.338083
C	 3.580890	 -0.659131	 0.322722
H	 2.166869	 -0.852443	 -1.289387
H	 1.762857	 -1.776509	 0.128956
C	 4.324889	 0.564933	 -0.213704
H	 4.142010	 -1.551473	 0.056605
H	 3.564836	 -0.624694	 1.410140
H	 4.342616	 0.565491	 -1.300421
H	 3.866655	 1.493402	 0.110242
H	 5.353900	 0.572371	 0.132816

	symmetry c1
}
set optking {
	frozen_dihedral = ("
		6 3 2 4,
		3 5 8 12,
		12 8 11 14,
		8 11 14 18,
		20 17 14 18
	")
}

ee = energy('scf')
oeprop('DIPOLE', 'QUADRUPOLE', 'MULLIKEN_CHARGES')
f=open( 'psi4out.xyz', 'w' )
f.write( "25  " )
f.write( str(ee) + "\n" )
f.write( MOL.save_string_xyz() )
f.close()
--------------------------------------------------------------------------

  Memory set to   2.000 GiB by Python script.

*** tstart() called on cx1-3-1-3.cx1.hpc.ic.ac.uk
*** at Tue Jul  5 16:41:34 2016


         ---------------------------------------------------------
                                   SCF
            by Justin Turney, Rob Parrish, and Andy Simmonett
                              RHF Reference
                        1 Threads,   2000 MiB Core
         ---------------------------------------------------------

  ==> Geometry <==

    Molecular point group: c1
    Full point group: C1

    Geometry (in Angstrom), charge = 0, multiplicity = 1:

       Center              X                  Y                   Z               Mass       
    ------------   -----------------  -----------------  -----------------  -----------------
           H         -3.474991423566     1.727041033620     1.173690564576     1.007825032070
           C         -3.554359423566     0.781083033620     0.623703564576    12.000000000000
           C         -2.541291423566     0.597202033620    -0.477428435424    12.000000000000
           O         -4.394393423566    -0.008393966380     0.911485564576    15.994914619560
           C         -1.101059423566     0.820030033620     0.004582564576    12.000000000000
           H         -2.671489423566    -0.392192966380    -0.900340435424     1.007825032070
           H         -2.776074423566     1.325332033620    -1.252902435424     1.007825032070
           C         -0.133705423566    -0.283058966380    -0.432132435424    12.000000000000
           H         -0.754568423566     1.775714033620    -0.377381435424     1.007825032070
           H         -1.092755423566     0.907079033620     1.089990564576     1.007825032070
           C          1.299727576434    -0.042101966380     0.045386564576    12.000000000000
           H         -0.147076423566    -0.358979966380    -1.517445435424     1.007825032070
           H         -0.478780423566    -1.245514966380    -0.059116435424     1.007825032070
           C          2.267579576434    -1.138829966380    -0.406719435424    12.000000000000
           H          1.635151576434     0.924713033620    -0.321344435424     1.007825032070
           H          1.311622576434     0.021502033620     1.132675564576     1.007825032070
           C          3.699842576434    -0.983645966380     0.117314564576    12.000000000000
           H          2.285821576434    -1.176957966380    -1.494794435424     1.007825032070
           H          1.881809576434    -2.101023966380    -0.076451435424     1.007825032070
           C          4.443841576434     0.240418033620    -0.419111435424    12.000000000000
           H          4.260962576434    -1.875987966380    -0.148802435424     1.007825032070
           H          3.683788576434    -0.949208966380     1.204732564576     1.007825032070
           H          4.461568576434     0.240976033620    -1.505828435424     1.007825032070
           H          3.985607576434     1.168887033620    -0.095165435424     1.007825032070
           H          5.472852576434     0.247856033620    -0.072591435424     1.007825032070

  Running in c1 symmetry.

  Rotational constants: A =      0.19737  B =      0.01364  C =      0.01338 [cm^-1]
  Rotational constants: A =   5916.99361  B =    408.88916  C =    401.20421 [MHz]
  Nuclear repulsion =  433.111354528623110

  Charge       = 0
  Multiplicity = 1
  Electrons    = 72
  Nalpha       = 36
  Nbeta        = 36

  ==> Algorithm <==

  SCF Algorithm Type is DF.
  DIIS enabled.
  MOM disabled.
  Fractional occupation disabled.
  Guess Type is CORE.
  Energy threshold   = 1.00e-06
  Density threshold  = 1.00e-06
  Integral threshold = 0.00e+00

  ==> Primary Basis <==

  Basis Set: 6-31G*
    Number of shells: 86
    Number of basis function: 167
    Number of Cartesian functions: 167
    Spherical Harmonics?: false
    Max angular momentum: 2

  ==> Pre-Iterations <==

   -------------------------------------------------------
    Irrep   Nso     Nmo     Nalpha   Nbeta   Ndocc  Nsocc
   -------------------------------------------------------
     A        167     167       0       0       0       0
   -------------------------------------------------------
    Total     167     167      36      36      36       0
   -------------------------------------------------------

 OEINTS: Overlap, kinetic, potential, dipole, and quadrupole integrals
         stored in file 35.

  ==> Integral Setup <==

  ==> DFJK: Density-Fitted J/K Matrices <==

    J tasked:                  Yes
    K tasked:                  Yes
    wK tasked:                  No
    OpenMP threads:              1
    Integrals threads:           1
    Memory (MB):              1430
    Algorithm:                Core
    Integral Cache:           NONE
    Schwarz Cutoff:          1E-12
    Fitting Condition:       1E-12

   => Auxiliary Basis Set <=

  Basis Set: 
    Number of shells: 360
    Number of basis function: 1129
    Number of Cartesian functions: 1129
    Spherical Harmonics?: false
    Max angular momentum: 3

  Minimum eigenvalue in the overlap matrix is 2.9595109229E-03.
  Using Symmetric Orthogonalization.
  SCF Guess: Core (One-Electron) Hamiltonian.

  ==> Iterations <==

                           Total Energy        Delta E     RMS |[F,P]|

   @DF-RHF iter   1:  -293.05955546082942   -2.93060e+02   5.79351e-02 
   @DF-RHF iter   2:   -33.10348723182352    2.59956e+02   7.55942e-02 DIIS
   @DF-RHF iter   3:  -246.59775689185517   -2.13494e+02   4.65806e-02 DIIS
   @DF-RHF iter   4:  -225.31474415011314    2.12830e+01   6.37068e-02 DIIS
   @DF-RHF iter   5:  -344.85761307885650   -1.19543e+02   2.87051e-02 DIIS
   @DF-RHF iter   6:  -325.80632810747875    1.90513e+01   4.64614e-02 DIIS
   @DF-RHF iter   7:  -353.49438214000725   -2.76881e+01   3.35429e-02 DIIS
   @DF-RHF iter   8:  -364.29559114291010   -1.08012e+01   2.73340e-02 DIIS
   @DF-RHF iter   9:  -376.08573857518820   -1.17901e+01   2.18405e-02 DIIS
   @DF-RHF iter  10:  -384.03812851009127   -7.95239e+00   1.09875e-02 DIIS
   @DF-RHF iter  11:  -385.08980517798580   -1.05168e+00   6.35517e-03 DIIS
   @DF-RHF iter  12:  -387.01118710293360   -1.92138e+00   2.58960e-03 DIIS
   @DF-RHF iter  13:  -387.10457105966759   -9.33840e-02   8.06332e-04 DIIS
   @DF-RHF iter  14:  -387.11407310774541   -9.50205e-03   3.86487e-04 DIIS
   @DF-RHF iter  15:  -387.11666814969863   -2.59504e-03   1.93273e-04 DIIS
   @DF-RHF iter  16:  -387.11735048868002   -6.82339e-04   5.77791e-05 DIIS
   @DF-RHF iter  17:  -387.11741385595599   -6.33673e-05   2.78415e-05 DIIS
   @DF-RHF iter  18:  -387.11742840481645   -1.45489e-05   8.14934e-06 DIIS
   @DF-RHF iter  19:  -387.11742980535621   -1.40054e-06   1.86011e-06 DIIS
   @DF-RHF iter  20:  -387.11742989216191   -8.68057e-08   9.18539e-07 DIIS

  ==> Post-Iterations <==

    Orbital Energies (a.u.)
    -----------------------

    Doubly Occupied:                                                      

       1A    -20.561718     2A    -11.326381     3A    -11.234725  
       4A    -11.233298     5A    -11.225750     6A    -11.220072  
       7A    -11.218759     8A    -11.217939     9A    -11.211350  
      10A     -1.401737    11A     -1.103834    12A     -1.070056  
      13A     -1.014666    14A     -0.944007    15A     -0.874719  
      16A     -0.813791    17A     -0.795308    18A     -0.780822  
      19A     -0.674557    20A     -0.655612    21A     -0.633467  
      22A     -0.623783    23A     -0.612361    24A     -0.587042  
      25A     -0.568231    26A     -0.560226    27A     -0.527418  
      28A     -0.521773    29A     -0.516745    30A     -0.493143  
      31A     -0.487718    32A     -0.479646    33A     -0.465509  
      34A     -0.459508    35A     -0.445872    36A     -0.408237  

    Virtual:                                                              

      37A      0.162039    38A      0.223453    39A      0.237518  
      40A      0.255931    41A      0.258589    42A      0.266315  
      43A      0.283650    44A      0.290622    45A      0.302589  
      46A      0.310339    47A      0.310737    48A      0.331217  
      49A      0.337352    50A      0.340699    51A      0.347551  
      52A      0.358573    53A      0.380406    54A      0.383475  
      55A      0.397298    56A      0.418699    57A      0.431701  
      58A      0.448675    59A      0.475307    60A      0.502235  
      61A      0.526867    62A      0.700707    63A      0.709426  
      64A      0.721239    65A      0.734467    66A      0.746839  
      67A      0.760173    68A      0.777765    69A      0.788406  
      70A      0.820845    71A      0.846293    72A      0.864374  
      73A      0.889391    74A      0.913011    75A      0.934033  
      76A      0.942276    77A      0.969026    78A      0.977508  
      79A      0.994442    80A      1.004956    81A      1.029296  
      82A      1.075733    83A      1.090978    84A      1.112120  
      85A      1.115026    86A      1.120562    87A      1.126435  
      88A      1.135799    89A      1.152730    90A      1.155076  
      91A      1.173892    92A      1.186067    93A      1.193079  
      94A      1.201501    95A      1.211093    96A      1.212129  
      97A      1.228627    98A      1.238426    99A      1.244142  
     100A      1.260582   101A      1.266649   102A      1.288069  
     103A      1.293287   104A      1.342165   105A      1.365968  
     106A      1.472947   107A      1.526358   108A      1.592178  
     109A      1.670188   110A      1.702183   111A      1.723124  
     112A      1.734494   113A      1.769575   114A      1.824281  
     115A      1.850563   116A      1.854763   117A      1.894985  
     118A      1.942561   119A      1.986231   120A      2.036996  
     121A      2.083868   122A      2.113985   123A      2.128451  
     124A      2.158292   125A      2.194195   126A      2.216510  
     127A      2.228126   128A      2.247375   129A      2.263173  
     130A      2.291642   131A      2.316735   132A      2.333330  
     133A      2.338968   134A      2.361628   135A      2.399207  
     136A      2.415721   137A      2.474147   138A      2.499049  
     139A      2.595648   140A      2.608886   141A      2.643803  
     142A      2.659593   143A      2.686095   144A      2.701962  
     145A      2.731187   146A      2.781467   147A      2.796840  
     148A      2.819161   149A      2.912639   150A      2.946522  
     151A      2.960444   152A      2.967028   153A      3.004807  
     154A      3.022124   155A      3.126395   156A      3.192199  
     157A      3.273189   158A      3.365426   159A      4.292321  
     160A      4.518097   161A      4.566019   162A      4.637924  
     163A      4.725427   164A      4.803440   165A      4.870810  
     166A      4.930515   167A      5.016113  

    Final Occupation by Irrep:
              A 
    DOCC [    36 ]

  Energy converged.

  @DF-RHF Final Energy:  -387.11742989216191

   => Energetics <=

    Nuclear Repulsion Energy =            433.1113545286231101
    One-Electron Energy =               -1382.5181358567756433
    Two-Electron Energy =                 562.2893514359905112
    DFT Exchange-Correlation Energy =       0.0000000000000000
    Empirical Dispersion Energy =           0.0000000000000000
    PCM Polarization Energy =               0.0000000000000000
    EFP Energy =                            0.0000000000000000
    Total Energy =                       -387.1174298921620220

    Alert: EFP and PCM quantities not currently incorporated into SCF psivars.

Properties will be evaluated at   0.000000,   0.000000,   0.000000 Bohr
  ==> Properties <==


Properties computed using the SCF density matrix

  Nuclear Dipole Moment: (a.u.)
     X:    16.4628      Y:     0.2242      Z:    -3.0153

  Electronic Dipole Moment: (a.u.)
     X:   -15.4433      Y:     0.3840      Z:     2.6082

  Dipole Moment: (a.u.)
     X:     1.0196      Y:     0.6082      Z:    -0.4071     Total:     1.2551

  Dipole Moment: (Debye)
     X:     2.5915      Y:     1.5460      Z:    -1.0347     Total:     3.1900


  Saving occupied orbitals to File 180.

*** tstop() called on cx1-3-1-3.cx1.hpc.ic.ac.uk at Tue Jul  5 16:42:00 2016
Module time:
	user time   =      25.35 seconds =       0.42 minutes
	system time =       0.24 seconds =       0.00 minutes
	total time  =         26 seconds =       0.43 minutes
Total time:
	user time   =      25.35 seconds =       0.42 minutes
	system time =       0.24 seconds =       0.00 minutes
	total time  =         26 seconds =       0.43 minutes


Properties will be evaluated at   0.000000,   0.000000,   0.000000 Bohr

Properties computed using the  density matrix

  Nuclear Dipole Moment: (a.u.)
     X:    16.4628      Y:     0.2242      Z:    -3.0153

  Electronic Dipole Moment: (a.u.)
     X:   -15.4433      Y:     0.3840      Z:     2.6082

  Dipole Moment: (a.u.)
     X:     1.0196      Y:     0.6082      Z:    -0.4071     Total:     1.2551

  Dipole Moment: (Debye)
     X:     2.5915      Y:     1.5460      Z:    -1.0347     Total:     3.1900

  Quadrupole Moment: (Debye Ang)
    XX:   -76.6256     YY:   -56.8640     ZZ:   -58.9434
    XY:    -6.3317     XZ:     5.3919     YZ:     0.6250

  Traceless Quadrupole Moment: (Debye Ang)
    XX:   -12.4813     YY:     7.2803     ZZ:     5.2009
    XY:    -6.3317     XZ:     5.3919     YZ:     0.6250

  Mulliken Charges: (a.u.)
   Center  Symbol    Alpha    Beta     Spin     Total
       1     H     0.43191  0.43191  0.00000  0.13618
       2     C     2.83267  2.83267  0.00000  0.33466
       3     C     3.20939  3.20939  0.00000 -0.41877
       4     O     4.23768  4.23768  0.00000 -0.47536
       5     C     3.16619  3.16619  0.00000 -0.33238
       6     H     0.39753  0.39753  0.00000  0.20494
       7     H     0.40663  0.40663  0.00000  0.18674
       8     C     3.15350  3.15350  0.00000 -0.30699
       9     H     0.41556  0.41556  0.00000  0.16888
      10     H     0.41641  0.41641  0.00000  0.16719
      11     C     3.15515  3.15515  0.00000 -0.31031
      12     H     0.42019  0.42019  0.00000  0.15962
      13     H     0.41754  0.41754  0.00000  0.16492
      14     C     3.15317  3.15317  0.00000 -0.30635
      15     H     0.42112  0.42112  0.00000  0.15776
      16     H     0.42255  0.42255  0.00000  0.15490
      17     C     3.15269  3.15269  0.00000 -0.30538
      18     H     0.42370  0.42370  0.00000  0.15261
      19     H     0.42104  0.42104  0.00000  0.15792
      20     C     3.24134  3.24134  0.00000 -0.48268
      21     H     0.42010  0.42010  0.00000  0.15980
      22     H     0.42276  0.42276  0.00000  0.15447
      23     H     0.42215  0.42215  0.00000  0.15570
      24     H     0.42051  0.42051  0.00000  0.15897
      25     H     0.41852  0.41852  0.00000  0.16296

   Total alpha = 36.00000, Total beta = 36.00000, Total charge = -0.00000


*** PSI4 exiting successfully. Buy a developer a beer!
