    -----------------------------------------------------------------------
          Psi4: An Open-Source Ab Initio Electronic Structure Package
                              Psi4 (no tag) Driver

                          Git: Rev {detached?}  

    J. M. Turney, A. C. Simmonett, R. M. Parrish, E. G. Hohenstein,
    F. A. Evangelista, J. T. Fermann, B. J. Mintz, L. A. Burns, J. J. Wilke,
    M. L. Abrams, N. J. Russ, M. L. Leininger, C. L. Janssen, E. T. Seidl,
    W. D. Allen, H. F. Schaefer, R. A. King, E. F. Valeev, C. D. Sherrill,
    and T. D. Crawford, WIREs Comput. Mol. Sci. 2, 556-565 (2012)
    (doi: 10.1002/wcms.93)

                         Additional Contributions by
    A. E. DePrince, M. Saitow, U. Bozkaya, A. Yu. Sokolov
    -----------------------------------------------------------------------


    Psi4 started on: Tue Jul  5 16:21:05 2016

    Process ID:  25282
    PSI4DATADIR: /export131/home/mjharvey/miniconda3/share
    Memory level set to 256.000 MB

  ==> Input File <==

--------------------------------------------------------------------------
set {
	reference rhf
	basis 6-31G*
}


set_num_threads( 1 )
memory 2 gb

molecule MOL {
0 1

H	 0.262299	 1.943835	 0.629132
C	 0.134848	 0.933374	 1.003386
N	 -0.528168	 0.128977	 -0.000000
H	 -0.481386	 0.986381	 1.893601
H	 1.120854	 0.558295	 1.290395
C	 0.248044	 -0.037491	 -1.209632
H	 -0.756206	 -0.767367	 0.381567
H	 0.998722	 0.743888	 -1.266824
H	 -0.398417	 0.061950	 -2.074060
H	 0.763621	 -0.999315	 -1.275517

	symmetry c1
}
ee = energy('scf')
oeprop('DIPOLE', 'QUADRUPOLE', 'MULLIKEN_CHARGES')
f=open( 'psi4out.xyz', 'w' )
f.write( "10  " )
f.write( str(ee) + "\n" )
f.write( MOL.save_string_xyz() )
f.close()
--------------------------------------------------------------------------

  Memory set to   2.000 GiB by Python script.

*** tstart() called on cx1-3-1-3.cx1.hpc.ic.ac.uk
*** at Tue Jul  5 16:21:06 2016


         ---------------------------------------------------------
                                   SCF
            by Justin Turney, Rob Parrish, and Andy Simmonett
                              RHF Reference
                        1 Threads,   2000 MiB Core
         ---------------------------------------------------------

  ==> Geometry <==

    Molecular point group: c1
    Full point group: C1

    Geometry (in Angstrom), charge = 0, multiplicity = 1:

       Center              X                  Y                   Z               Mass       
    ------------   -----------------  -----------------  -----------------  -----------------
           H          0.290706321447     1.608618898708     0.693492769823     1.007825032070
           C          0.163255321447     0.598157898708     1.067746769823    12.000000000000
           N         -0.499760678553    -0.206239101292     0.064360769823    14.003074004780
           H         -0.452978678553     0.651164898708     1.957961769823     1.007825032070
           H          1.149261321447     0.223078898708     1.354755769823     1.007825032070
           C          0.276451321447    -0.372707101292    -1.145271230177    12.000000000000
           H         -0.727798678553    -1.102583101292     0.445927769823     1.007825032070
           H          1.027129321447     0.408671898708    -1.202463230177     1.007825032070
           H         -0.370009678553    -0.273266101292    -2.009699230177     1.007825032070
           H          0.792028321447    -1.334531101292    -1.211156230177     1.007825032070

  Running in c1 symmetry.

  Rotational constants: A =      1.18470  B =      0.31269  C =      0.27687 [cm^-1]
  Rotational constants: A =  35516.47458  B =   9374.33133  C =   8300.41579 [MHz]
  Nuclear repulsion =   84.695784255017273

  Charge       = 0
  Multiplicity = 1
  Electrons    = 26
  Nalpha       = 13
  Nbeta        = 13

  ==> Algorithm <==

  SCF Algorithm Type is DF.
  DIIS enabled.
  MOM disabled.
  Fractional occupation disabled.
  Guess Type is CORE.
  Energy threshold   = 1.00e-06
  Density threshold  = 1.00e-06
  Integral threshold = 0.00e+00

  ==> Primary Basis <==

  Basis Set: 6-31G*
    Number of shells: 32
    Number of basis function: 59
    Number of Cartesian functions: 59
    Spherical Harmonics?: false
    Max angular momentum: 2

  ==> Pre-Iterations <==

   -------------------------------------------------------
    Irrep   Nso     Nmo     Nalpha   Nbeta   Ndocc  Nsocc
   -------------------------------------------------------
     A         59      59       0       0       0       0
   -------------------------------------------------------
    Total      59      59      13      13      13       0
   -------------------------------------------------------

 OEINTS: Overlap, kinetic, potential, dipole, and quadrupole integrals
         stored in file 35.

  ==> Integral Setup <==

  ==> DFJK: Density-Fitted J/K Matrices <==

    J tasked:                  Yes
    K tasked:                  Yes
    wK tasked:                  No
    OpenMP threads:              1
    Integrals threads:           1
    Memory (MB):              1430
    Algorithm:                Core
    Integral Cache:           NONE
    Schwarz Cutoff:          1E-12
    Fitting Condition:       1E-12

   => Auxiliary Basis Set <=

  Basis Set: 
    Number of shells: 135
    Number of basis function: 418
    Number of Cartesian functions: 418
    Spherical Harmonics?: false
    Max angular momentum: 3

  Minimum eigenvalue in the overlap matrix is 7.0567070364E-03.
  Using Symmetric Orthogonalization.
  SCF Guess: Core (One-Electron) Hamiltonian.

  ==> Iterations <==

                           Total Energy        Delta E     RMS |[F,P]|

   @DF-RHF iter   1:  -109.54185205876529   -1.09542e+02   9.12214e-02 
   @DF-RHF iter   2:  -114.85978429663233   -5.31793e+00   5.93083e-02 DIIS
   @DF-RHF iter   3:  -131.73991342659866   -1.68801e+01   3.93814e-02 DIIS
   @DF-RHF iter   4:  -133.68171527493388   -1.94180e+00   1.77690e-02 DIIS
   @DF-RHF iter   5:  -134.16405944517948   -4.82344e-01   6.50787e-03 DIIS
   @DF-RHF iter   6:  -134.23268665239550   -6.86272e-02   7.74074e-04 DIIS
   @DF-RHF iter   7:  -134.23383626889296   -1.14962e-03   1.46570e-04 DIIS
   @DF-RHF iter   8:  -134.23390576838966   -6.94995e-05   3.79477e-05 DIIS
   @DF-RHF iter   9:  -134.23391037888592   -4.61050e-06   7.82140e-06 DIIS
   @DF-RHF iter  10:  -134.23391065135422   -2.72468e-07   1.93863e-06 DIIS
   @DF-RHF iter  11:  -134.23391066227578   -1.09216e-08   6.21132e-07 DIIS

  ==> Post-Iterations <==

    Orbital Energies (a.u.)
    -----------------------

    Doubly Occupied:                                                      

       1A    -15.535284     2A    -11.236111     3A    -11.234926  
       4A     -1.198722     5A     -0.946677     6A     -0.855045  
       7A     -0.661892     8A     -0.610009     9A     -0.587966  
      10A     -0.544336    11A     -0.512077    12A     -0.504672  
      13A     -0.357875  

    Virtual:                                                              

      14A      0.230965    15A      0.282721    16A      0.298844  
      17A      0.310977    18A      0.318441    19A      0.332864  
      20A      0.354041    21A      0.405467    22A      0.453143  
      23A      0.751639    24A      0.759314    25A      0.760770  
      26A      0.820210    27A      0.857870    28A      0.919474  
      29A      1.002897    30A      1.105401    31A      1.110887  
      32A      1.143839    33A      1.156622    34A      1.205120  
      35A      1.213691    36A      1.222428    37A      1.249761  
      38A      1.256041    39A      1.289478    40A      1.558284  
      41A      1.653556    42A      1.735967    43A      1.766870  
      44A      2.134274    45A      2.207756    46A      2.347689  
      47A      2.395285    48A      2.430275    49A      2.461261  
      50A      2.526680    51A      2.609879    52A      2.724397  
      53A      2.775414    54A      2.855829    55A      3.029443  
      56A      3.126721    57A      4.328692    58A      4.652566  
      59A      4.730937  

    Final Occupation by Irrep:
              A 
    DOCC [    13 ]

  Energy converged.

  @DF-RHF Final Energy:  -134.23391066227578

   => Energetics <=

    Nuclear Repulsion Energy =             84.6957842550172728
    One-Electron Energy =                -348.2882856927023454
    Two-Electron Energy =                 129.3585907754090840
    DFT Exchange-Correlation Energy =       0.0000000000000000
    Empirical Dispersion Energy =           0.0000000000000000
    PCM Polarization Energy =               0.0000000000000000
    EFP Energy =                            0.0000000000000000
    Total Energy =                       -134.2339106622760028

    Alert: EFP and PCM quantities not currently incorporated into SCF psivars.

Properties will be evaluated at   0.000000,   0.000000,   0.000000 Bohr
  ==> Properties <==


Properties computed using the SCF density matrix

  Nuclear Dipole Moment: (a.u.)
     X:     1.6030      Y:     0.1704      Z:     0.0268

  Electronic Dipole Moment: (a.u.)
     X:    -1.2170      Y:    -0.4314      Z:     0.1153

  Dipole Moment: (a.u.)
     X:     0.3859      Y:    -0.2610      Z:     0.1422     Total:     0.4871

  Dipole Moment: (Debye)
     X:     0.9809      Y:    -0.6634      Z:     0.3613     Total:     1.2381


  Saving occupied orbitals to File 180.

*** tstop() called on cx1-3-1-3.cx1.hpc.ic.ac.uk at Tue Jul  5 16:21:08 2016
Module time:
	user time   =       1.65 seconds =       0.03 minutes
	system time =       0.02 seconds =       0.00 minutes
	total time  =          2 seconds =       0.03 minutes
Total time:
	user time   =       1.65 seconds =       0.03 minutes
	system time =       0.02 seconds =       0.00 minutes
	total time  =          2 seconds =       0.03 minutes


Properties will be evaluated at   0.000000,   0.000000,   0.000000 Bohr

Properties computed using the  density matrix

  Nuclear Dipole Moment: (a.u.)
     X:     1.6030      Y:     0.1704      Z:     0.0268

  Electronic Dipole Moment: (a.u.)
     X:    -1.2170      Y:    -0.4314      Z:     0.1153

  Dipole Moment: (a.u.)
     X:     0.3859      Y:    -0.2610      Z:     0.1422     Total:     0.4871

  Dipole Moment: (Debye)
     X:     0.9809      Y:    -0.6634      Z:     0.3613     Total:     1.2381

  Quadrupole Moment: (Debye Ang)
    XX:   -22.5604     YY:   -19.3115     ZZ:   -19.8105
    XY:     0.9720     XZ:    -0.7191     YZ:    -0.1880

  Traceless Quadrupole Moment: (Debye Ang)
    XX:    -1.9996     YY:     1.2493     ZZ:     0.7503
    XY:     0.9720     XZ:    -0.7191     YZ:    -0.1880

  Mulliken Charges: (a.u.)
   Center  Symbol    Alpha    Beta     Spin     Total
       1     H     0.41745  0.41745  0.00000  0.16510
       2     C     3.14576  3.14576  0.00000 -0.29151
       3     N     3.84076  3.84076  0.00000 -0.68152
       4     H     0.41767  0.41767  0.00000  0.16467
       5     H     0.43497  0.43497  0.00000  0.13006
       6     C     3.14588  3.14588  0.00000 -0.29175
       7     H     0.33164  0.33164  0.00000  0.33672
       8     H     0.42112  0.42112  0.00000  0.15777
       9     H     0.41554  0.41554  0.00000  0.16892
      10     H     0.42922  0.42922  0.00000  0.14156

   Total alpha = 13.00000, Total beta = 13.00000, Total charge = -0.00000


*** PSI4 exiting successfully. Buy a developer a beer!
