
    -----------------------------------------------------------------------
          Psi4: An Open-Source Ab Initio Electronic Structure Package
                               Psi4 1.1 release

                         Git: Rev {HEAD} add49b9 


    R. M. Parrish, L. A. Burns, D. G. A. Smith, A. C. Simmonett,
    A. E. DePrince III, E. G. Hohenstein, U. Bozkaya, A. Yu. Sokolov,
    R. Di Remigio, R. M. Richard, J. F. Gonthier, A. M. James,
    H. R. McAlexander, A. Kumar, M. Saitow, X. Wang, B. P. Pritchard,
    P. Verma, H. F. Schaefer III, K. Patkowski, R. A. King, E. F. Valeev,
    F. A. Evangelista, J. M. Turney, T. D. Crawford, and C. D. Sherrill,
    J. Chem. Theory Comput. in press (2017).
    (doi: 10.1021/acs.jctc.7b00174)

    -----------------------------------------------------------------------


    Psi4 started on: Tuesday, 12 December 2017 12:39PM

    Process ID:   4862
    PSIDATADIR: /shared/raimis/opt/miniconda/envs/htmd/share/psi4
    Memory:     500.0 MiB
    Threads:    1
    
  ==> Input File <==

--------------------------------------------------------------------------
set_num_threads(1)
set_memory(4203741184)

set { reference rks }
set { basis cc-pVDZ }

molecule MOL {
    0 1
    noreorient
    nocom
    symmetry c1
    O    1.014300  -0.002300   0.060500
    O    2.462400  -0.107500  -0.002400
    H    0.821200  -0.823600  -0.430600
    H    2.644546   0.851451   0.006131
}

set optking { frozen_dihedral = (" 3 1 2 4 ") }

set optking { dynamic_level = 1 
 geom_maxiter = 250
 print_trajectory_xyz_file = True }

energy, wfn = optimize('B3LYP-D3', return_wfn=True)

import os
os.chdir(os.environ['HTMD_PSI4_WORKDIR'])

oeprop(wfn, 'DIPOLE', 'QUADRUPOLE', 'MULLIKEN_CHARGES')

with open('psi4out.xyz', 'w') as f:
    f.write('4 ' )
    f.write('%.12f\n' % energy)
    f.write(MOL.save_string_xyz())
--------------------------------------------------------------------------
  Threads set to 1 by Python driver.

  Memory set to   3.915 GiB by Python driver.
gradient() will perform analytic gradient computation.

*** tstart() called on computer06
*** at Tue Dec 12 12:39:37 2017

   => Loading Basis Set <=

    Name: CC-PVDZ
    Role: ORBITAL
    Keyword: BASIS
    atoms 1-2 entry O          line   190 file /shared/raimis/opt/miniconda/envs/htmd/share/psi4/basis/cc-pvdz.gbs 
    atoms 3-4 entry H          line    20 file /shared/raimis/opt/miniconda/envs/htmd/share/psi4/basis/cc-pvdz.gbs 


         ---------------------------------------------------------
                                   SCF
            by Justin Turney, Rob Parrish, and Andy Simmonett
                              RKS Reference
                        1 Threads,   4009 MiB Core
         ---------------------------------------------------------

  ==> Geometry <==

    Molecular point group: c1
    Full point group: C1

    Geometry (in Angstrom), charge = 0, multiplicity = 1:

       Center              X                  Y                   Z               Mass       
    ------------   -----------------  -----------------  -----------------  -----------------
           O          1.014300000000    -0.002300000000     0.060500000000    15.994914619560
           O          2.462400000000    -0.107500000000    -0.002400000000    15.994914619560
           H          0.821200000000    -0.823600000000    -0.430600000000     1.007825032070
           H          2.644546000000     0.851451000000     0.006131000000     1.007825032070

  Running in c1 symmetry.

  Rotational constants: A =      9.45923  B =      0.13889  C =      0.13720 [cm^-1]
  Rotational constants: A = 283580.53224  B =   4163.89867  C =   4113.10002 [MHz]
  Nuclear repulsion =   36.786867161320345

  Charge       = 0
  Multiplicity = 1
  Electrons    = 18
  Nalpha       = 9
  Nbeta        = 9

  ==> Algorithm <==

  SCF Algorithm Type is DF.
  DIIS enabled.
  MOM disabled.
  Fractional occupation disabled.
  Guess Type is SAD.
  Energy threshold   = 1.00e-08
  Density threshold  = 1.00e-08
  Integral threshold = 0.00e+00

  ==> Primary Basis <==

  Basis Set: CC-PVDZ
    Blend: CC-PVDZ
    Number of shells: 18
    Number of basis function: 38
    Number of Cartesian functions: 40
    Spherical Harmonics?: true
    Max angular momentum: 2

  ==> DFT Potential <==

   => B3LYP Composite Functional <= 

    B3LYP Hybrid-GGA Exchange-Correlation Functional (VWN1-RPA)

    P.J. Stephens et. al., J. Phys. Chem., 98, 11623-11627, 1994

    Points   =           5000
    Deriv    =              1
    GGA      =           TRUE
    Meta     =          FALSE

    X_LRC        =          FALSE
    X_Hybrid     =           TRUE
    X_Alpha      =   2.000000E-01
    X_Omega      =   0.000000E+00
    C_LRC        =          FALSE
    C_Hybrid     =          FALSE
    C_Alpha      =   0.000000E+00
    C_Omega      =   0.000000E+00

   => Exchange Functionals <=

    0.8000    B3_X
    0.2000      HF 

   => Correlation Functionals <=

    0.1900 VWN3RPA_C
    0.8100   LYP_C

   => Molecular Quadrature <=

    Radial Scheme    =       TREUTLER
    Pruning Scheme   =           FLAT
    Nuclear Scheme   =       TREUTLER

    BS radius alpha  =              1
    Pruning alpha    =              1
    Radial Points    =             75
    Spherical Points =            302
    Total Points     =          88340
    Total Blocks     =             88
    Max Points       =           4704
    Max Functions    =             38

   => -D3ZERO: Empirical Dispersion <=

    Grimme's -D3 (zero-damping) Dispersion Correction
    Grimme S.; Antony J.; Ehrlich S.; Krieg H. (2010), J. Chem. Phys., 132: 154104

        S6 =   1.000000E+00
        S8 =   1.703000E+00
       SR6 =   1.261000E+00
    ALPHA6 =   1.400000E+01

   => Loading Basis Set <=

    Name: (CC-PVDZ AUX)
    Role: JKFIT
    Keyword: DF_BASIS_SCF
    atoms 1-2 entry O          line   220 file /shared/raimis/opt/miniconda/envs/htmd/share/psi4/basis/cc-pvdz-jkfit.gbs 
    atoms 3-4 entry H          line    50 file /shared/raimis/opt/miniconda/envs/htmd/share/psi4/basis/cc-pvdz-jkfit.gbs 

  ==> Pre-Iterations <==

   -------------------------------------------------------
    Irrep   Nso     Nmo     Nalpha   Nbeta   Ndocc  Nsocc
   -------------------------------------------------------
     A         38      38       0       0       0       0
   -------------------------------------------------------
    Total      38      38       9       9       9       0
   -------------------------------------------------------

  ==> Integral Setup <==

  ==> DFJK: Density-Fitted J/K Matrices <==

    J tasked:                  Yes
    K tasked:                  Yes
    wK tasked:                  No
    OpenMP threads:              1
    Integrals threads:           1
    Memory (MB):              3006
    Algorithm:                Core
    Integral Cache:           NONE
    Schwarz Cutoff:          1E-12
    Fitting Condition:       1E-12

   => Auxiliary Basis Set <=

  Basis Set: (CC-PVDZ AUX)
    Blend: CC-PVDZ-JKFIT
    Number of shells: 66
    Number of basis function: 186
    Number of Cartesian functions: 212
    Spherical Harmonics?: true
    Max angular momentum: 3

  Minimum eigenvalue in the overlap matrix is 2.4279427651E-02.
  Using Symmetric Orthogonalization.

  SCF Guess: Superposition of Atomic Densities via on-the-fly atomic UHF.

  ==> Iterations <==

                           Total Energy        Delta E     RMS |[F,P]|

   @DF-RKS iter   0:  -151.51844803018659   -1.51518e+02   4.61192e-02 
   @DF-RKS iter   1:  -151.52109809237788   -2.65006e-03   7.28711e-03 
   @DF-RKS iter   2:  -151.51970445085752    1.39364e-03   7.56339e-03 DIIS
   @DF-RKS iter   3:  -151.54980569282432   -3.01012e-02   7.00222e-04 DIIS
   @DF-RKS iter   4:  -151.55003036124359   -2.24668e-04   1.81379e-04 DIIS
   @DF-RKS iter   5:  -151.55003846195052   -8.10071e-06   1.32267e-04 DIIS
   @DF-RKS iter   6:  -151.55004762106540   -9.15911e-06   5.93244e-06 DIIS
   @DF-RKS iter   7:  -151.55004764294574   -2.18803e-08   6.31778e-07 DIIS
   @DF-RKS iter   8:  -151.55004764343155   -4.85812e-10   8.84055e-08 DIIS
   @DF-RKS iter   9:  -151.55004764344216   -1.06013e-11   2.64957e-08 DIIS
   @DF-RKS iter  10:  -151.55004764344278   -6.25278e-13   3.69637e-09 DIIS

  ==> Post-Iterations <==

    Orbital Energies (a.u.)
    -----------------------

    Doubly Occupied:                                                      

       1A    -19.185959     2A    -19.185918     3A     -1.109969  
       4A     -0.886391     5A     -0.500624     6A     -0.498252  
       7A     -0.399233     8A     -0.343173     9A     -0.247981  

    Virtual:                                                              

      10A      0.026325    11A      0.051653    12A      0.104960  
      13A      0.573163    14A      0.579287    15A      0.844814  
      16A      0.858174    17A      0.870946    18A      0.964967  
      19A      1.008982    20A      1.068822    21A      1.229472  
      22A      1.306487    23A      1.350996    24A      1.463613  
      25A      1.657170    26A      1.772620    27A      2.050904  
      28A      2.097970    29A      2.327273    30A      2.392238  
      31A      2.633753    32A      2.875745    33A      2.918719  
      34A      3.006588    35A      3.160953    36A      3.511996  
      37A      3.513662    38A      3.837402  

    Final Occupation by Irrep:
              A 
    DOCC [     9 ]

  Energy converged.

  @DF-RKS Final Energy:  -151.55004764344278

   => Energetics <=

    Nuclear Repulsion Energy =             36.7868671613203446
    One-Electron Energy =                -281.5738397767510719
    Two-Electron Energy =                 107.7003215722329799
    DFT Exchange-Correlation Energy =     -14.4630726402450307
    Empirical Dispersion Energy =          -0.0003239600000000
    PCM Polarization Energy =               0.0000000000000000
    EFP Energy =                            0.0000000000000000
    Total Energy =                       -151.5500476434427810



Properties will be evaluated at   0.000000,   0.000000,   0.000000 Bohr

Properties computed using the SCF density matrix

  Nuclear Dipole Moment: (a.u.)
     X:    59.1094      Y:    -1.6073      Z:     0.0762

  Electronic Dipole Moment: (a.u.)
     X:   -59.1169      Y:     1.7016      Z:    -0.4068

  Dipole Moment: (a.u.)
     X:    -0.0075      Y:     0.0943      Z:    -0.3306     Total:     0.3439

  Dipole Moment: (Debye)
     X:    -0.0191      Y:     0.2398      Z:    -0.8403     Total:     0.8740


*** tstop() called on computer06 at Tue Dec 12 12:39:43 2017
Module time:
	user time   =       5.32 seconds =       0.09 minutes
	system time =       0.08 seconds =       0.00 minutes
	total time  =          6 seconds =       0.10 minutes
Total time:
	user time   =       5.32 seconds =       0.09 minutes
	system time =       0.08 seconds =       0.00 minutes
	total time  =          6 seconds =       0.10 minutes

*** tstart() called on computer06
*** at Tue Dec 12 12:39:43 2017


         ------------------------------------------------------------
                                   SCF GRAD                          
                          Rob Parrish, Justin Turney,                
                       Andy Simmonett, and Alex Sokolov              
         ------------------------------------------------------------

  ==> Geometry <==

    Molecular point group: c1
    Full point group: C1

    Geometry (in Angstrom), charge = 0, multiplicity = 1:

       Center              X                  Y                   Z               Mass       
    ------------   -----------------  -----------------  -----------------  -----------------
           O          1.014300000000    -0.002300000000     0.060500000000    15.994914619560
           O          2.462400000000    -0.107500000000    -0.002400000000    15.994914619560
           H          0.821200000000    -0.823600000000    -0.430600000000     1.007825032070
           H          2.644546000000     0.851451000000     0.006131000000     1.007825032070

  Nuclear repulsion =   36.786867161320345

  ==> Basis Set <==

  Basis Set: CC-PVDZ
    Blend: CC-PVDZ
    Number of shells: 18
    Number of basis function: 38
    Number of Cartesian functions: 40
    Spherical Harmonics?: true
    Max angular momentum: 2

  ==> DFJKGrad: Density-Fitted SCF Gradients <==

    Gradient:                    1
    J tasked:                  Yes
    K tasked:                  Yes
    wK tasked:                  No
    OpenMP threads:              1
    Integrals threads:           1
    Memory (MB):              3006
    Schwarz Cutoff:          0E+00
    Fitting Condition:       1E-12

   => Auxiliary Basis Set <=

  Basis Set: (CC-PVDZ AUX)
    Blend: CC-PVDZ-JKFIT
    Number of shells: 66
    Number of basis function: 186
    Number of Cartesian functions: 212
    Spherical Harmonics?: true
    Max angular momentum: 3

  ==> DFT Potential <==

   => B3LYP Composite Functional <= 

    B3LYP Hybrid-GGA Exchange-Correlation Functional (VWN1-RPA)

    P.J. Stephens et. al., J. Phys. Chem., 98, 11623-11627, 1994

    Points   =           5000
    Deriv    =              1
    GGA      =           TRUE
    Meta     =          FALSE

    X_LRC        =          FALSE
    X_Hybrid     =           TRUE
    X_Alpha      =   2.000000E-01
    X_Omega      =   0.000000E+00
    C_LRC        =          FALSE
    C_Hybrid     =          FALSE
    C_Alpha      =   0.000000E+00
    C_Omega      =   0.000000E+00

   => Exchange Functionals <=

    0.8000    B3_X
    0.2000      HF 

   => Correlation Functionals <=

    0.1900 VWN3RPA_C
    0.8100   LYP_C

   => Molecular Quadrature <=

    Radial Scheme    =       TREUTLER
    Pruning Scheme   =           FLAT
    Nuclear Scheme   =       TREUTLER

    BS radius alpha  =              1
    Pruning alpha    =              1
    Radial Points    =             75
    Spherical Points =            302
    Total Points     =          88340
    Total Blocks     =             88
    Max Points       =           4704
    Max Functions    =             38


  -Total Gradient:
     Atom            X                  Y                   Z
    ------   -----------------  -----------------  -----------------
       1        0.005412915530     0.010927811949     0.003602873833
       2       -0.005374741649    -0.011171635864    -0.002481449413
       3        0.004773822195    -0.004564615822    -0.002016739049
       4       -0.004811955941     0.004808023523     0.000896769985


*** tstop() called on computer06 at Tue Dec 12 12:39:44 2017
Module time:
	user time   =       1.31 seconds =       0.02 minutes
	system time =       0.01 seconds =       0.00 minutes
	total time  =          1 seconds =       0.02 minutes
Total time:
	user time   =       6.63 seconds =       0.11 minutes
	system time =       0.10 seconds =       0.00 minutes
	total time  =          7 seconds =       0.12 minutes

			-----------------------------------------
			 OPTKING 2.0: for geometry optimizations 
			  - R.A. King,  Bethel University        
			-----------------------------------------
	At level 1: Red. Int., RFO, no backsteps, dynamic trust

	Internal coordinates to be generated automatically.
	Detected frag 1 with atoms:  1 2 3 4
	---Fragment 1 Bond Connectivity---
	 1 : 2 3
	 2 : 1 4
	 3 : 1
	 4 : 2

	Assuming in current code that numbering for constraints corresponds to unified fragment.
	Frozen dihedral atom list: 
	     3     1     2     4
	---Fragment 1 Geometry and Gradient---
	 O           1.9167492166       -0.0043463701        0.1143284310
	 O           4.6532616296       -0.2031455593       -0.0045353427
	 H           1.5518431003       -1.5563784430       -0.8137160728
	 H           4.9974676858        1.6090092056        0.0115859109
	             0.0054129155        0.0109278119        0.0036028738
	            -0.0053747416       -0.0111716359       -0.0024814494
	             0.0047738222       -0.0045646158       -0.0020167390
	            -0.0048119559        0.0048080235        0.0008967700

	Previous optimization step data not found.  Starting new optimization.

	---Fragment 1 Intrafragment Coordinates---
	 - Coordinate -           - BOHR/RAD -       - ANG/DEG -
	 R(1,2)           =         2.746297	       1.453278
	 R(1,3)           =         1.844784	       0.976217
	 R(2,4)           =         1.844625	       0.976134
	 B(1,2,4)         =         1.685490	      96.571469
	 B(2,1,3)         =         1.685473	      96.570488
	*D(3,1,2,4)       =         2.618047	     150.003019

	Current energy   :      -151.5500476434

	Generating empirical Hessian (Schlegel '84) for each fragment.
	Taking RFO optimization step.
	Going to follow RFO solution 1.
	Using RFO vector 1.
	Norm of target step-size    0.09532
	Projected energy change by RFO approximation:        -0.0019976343

	Back-transformation to cartesian coordinates...
	Successfully converged to displaced geometry.

	Back-transformation to cartesian coordinates to adjust frozen coordinates...
	Successfully converged to displaced geometry.

	--- Internal Coordinate Step in ANG or DEG, aJ/ANG or AJ/DEG ---
	 ---------------------------------------------------------------------------
	   Coordinate                Previous        Force       Change         New 
	   ----------                --------       ------       ------       ------
	    1 R(1,2)          =      1.453278     0.079255     0.013402     1.466680
	    2 R(1,3)          =      0.976217    -0.032210    -0.003956     0.972261
	    3 R(2,4)          =      0.976134    -0.031574    -0.003877     0.972257
	    4 B(1,2,4)        =     96.571469     0.000794     3.696428   100.267898
	    5 B(2,1,3)        =     96.570488     0.000794     3.697814   100.268302
	    6 *D(3,1,2,4)     =    150.003019     0.000000     0.000000   150.003019
	 ---------------------------------------------------------------------------
	Successfully symmetrized geometry.

  ==> Convergence Check <==

  Measures of convergence in internal coordinates in au.
  Criteria marked as inactive (o), active & met (*), and active & unmet ( ).
  --------------------------------------------------------------------------------------------- ~
   Step     Total Energy     Delta E     MAX Force     RMS Force      MAX Disp      RMS Disp    ~
  --------------------------------------------------------------------------------------------- ~
    Convergence Criteria    1.00e-06 *    3.00e-04 *             o    1.20e-03 *             o  ~
  --------------------------------------------------------------------------------------------- ~
      1    -151.55004764   -1.52e+02      1.04e-02      7.53e-03 o    6.45e-02      3.89e-02 o  ~
  ---------------------------------------------------------------------------------------------

	Writing optimization data to binary file.
	Structure for next step:
	Cartesian Geometry (in Angstrom)
	    O     1.0059596293  -0.0256755365   0.0522501705
	    O     2.4706681752  -0.0832334626   0.0025859778
	    H     0.7840282049  -0.8388257364  -0.4323369444
	    H     2.6817899906   0.8657857355   0.0111317961
			--------------------------
			 OPTKING Finished Execution 
			--------------------------

    Structure for next step:
    Molecular point group: c1
    Full point group: C1

    Geometry (in Angstrom), charge = 0, multiplicity = 1:

    O            1.005959629328    -0.025675536476     0.052250170540
    O            2.470668175219    -0.083233462643     0.002585977775
    H            0.784028204876    -0.838825736428    -0.432336944381
    H            2.681789990577     0.865785735547     0.011131796066

gradient() will perform analytic gradient computation.

*** tstart() called on computer06
*** at Tue Dec 12 12:39:44 2017

   => Loading Basis Set <=

    Name: CC-PVDZ
    Role: ORBITAL
    Keyword: BASIS
    atoms 1-2 entry O          line   190 file /shared/raimis/opt/miniconda/envs/htmd/share/psi4/basis/cc-pvdz.gbs 
    atoms 3-4 entry H          line    20 file /shared/raimis/opt/miniconda/envs/htmd/share/psi4/basis/cc-pvdz.gbs 


         ---------------------------------------------------------
                                   SCF
            by Justin Turney, Rob Parrish, and Andy Simmonett
                              RKS Reference
                        1 Threads,   4009 MiB Core
         ---------------------------------------------------------

  ==> Geometry <==

    Molecular point group: c1
    Full point group: C1

    Geometry (in Angstrom), charge = 0, multiplicity = 1:

       Center              X                  Y                   Z               Mass       
    ------------   -----------------  -----------------  -----------------  -----------------
           O          1.005959629328    -0.025675536476     0.052250170540    15.994914619560
           O          2.470668175219    -0.083233462643     0.002585977775    15.994914619560
           H          0.784028204876    -0.838825736428    -0.432336944381     1.007825032070
           H          2.681789990577     0.865785735547     0.011131796066     1.007825032070

  Running in c1 symmetry.

  Rotational constants: A =      9.46601  B =      0.13833  C =      0.13664 [cm^-1]
  Rotational constants: A = 283783.72172  B =   4147.05852  C =   4096.40627 [MHz]
  Nuclear repulsion =   36.463386362879810

  Charge       = 0
  Multiplicity = 1
  Electrons    = 18
  Nalpha       = 9
  Nbeta        = 9

  ==> Algorithm <==

  SCF Algorithm Type is DF.
  DIIS enabled.
  MOM disabled.
  Fractional occupation disabled.
  Guess Type is READ.
  Energy threshold   = 1.00e-08
  Density threshold  = 1.00e-08
  Integral threshold = 0.00e+00

  ==> Primary Basis <==

  Basis Set: CC-PVDZ
    Blend: CC-PVDZ
    Number of shells: 18
    Number of basis function: 38
    Number of Cartesian functions: 40
    Spherical Harmonics?: true
    Max angular momentum: 2

  ==> DFT Potential <==

   => B3LYP Composite Functional <= 

    B3LYP Hybrid-GGA Exchange-Correlation Functional (VWN1-RPA)

    P.J. Stephens et. al., J. Phys. Chem., 98, 11623-11627, 1994

    Points   =           5000
    Deriv    =              1
    GGA      =           TRUE
    Meta     =          FALSE

    X_LRC        =          FALSE
    X_Hybrid     =           TRUE
    X_Alpha      =   2.000000E-01
    X_Omega      =   0.000000E+00
    C_LRC        =          FALSE
    C_Hybrid     =          FALSE
    C_Alpha      =   0.000000E+00
    C_Omega      =   0.000000E+00

   => Exchange Functionals <=

    0.8000    B3_X
    0.2000      HF 

   => Correlation Functionals <=

    0.1900 VWN3RPA_C
    0.8100   LYP_C

   => Molecular Quadrature <=

    Radial Scheme    =       TREUTLER
    Pruning Scheme   =           FLAT
    Nuclear Scheme   =       TREUTLER

    BS radius alpha  =              1
    Pruning alpha    =              1
    Radial Points    =             75
    Spherical Points =            302
    Total Points     =          88340
    Total Blocks     =             89
    Max Points       =           4716
    Max Functions    =             38

   => -D3ZERO: Empirical Dispersion <=

    Grimme's -D3 (zero-damping) Dispersion Correction
    Grimme S.; Antony J.; Ehrlich S.; Krieg H. (2010), J. Chem. Phys., 132: 154104

        S6 =   1.000000E+00
        S8 =   1.703000E+00
       SR6 =   1.261000E+00
    ALPHA6 =   1.400000E+01

   => Loading Basis Set <=

    Name: (CC-PVDZ AUX)
    Role: JKFIT
    Keyword: DF_BASIS_SCF
    atoms 1-2 entry O          line   220 file /shared/raimis/opt/miniconda/envs/htmd/share/psi4/basis/cc-pvdz-jkfit.gbs 
    atoms 3-4 entry H          line    50 file /shared/raimis/opt/miniconda/envs/htmd/share/psi4/basis/cc-pvdz-jkfit.gbs 

  Reading orbitals from file 180, no projection.

  ==> Pre-Iterations <==

   -------------------------------------------------------
    Irrep   Nso     Nmo     Nalpha   Nbeta   Ndocc  Nsocc
   -------------------------------------------------------
     A         38      38       0       0       0       0
   -------------------------------------------------------
    Total      38      38       9       9       9       0
   -------------------------------------------------------

  ==> Integral Setup <==

  ==> DFJK: Density-Fitted J/K Matrices <==

    J tasked:                  Yes
    K tasked:                  Yes
    wK tasked:                  No
    OpenMP threads:              1
    Integrals threads:           1
    Memory (MB):              3006
    Algorithm:                Core
    Integral Cache:           NONE
    Schwarz Cutoff:          1E-12
    Fitting Condition:       1E-12

   => Auxiliary Basis Set <=

  Basis Set: (CC-PVDZ AUX)
    Blend: CC-PVDZ-JKFIT
    Number of shells: 66
    Number of basis function: 186
    Number of Cartesian functions: 212
    Spherical Harmonics?: true
    Max angular momentum: 3

  Minimum eigenvalue in the overlap matrix is 2.5379784977E-02.
  Using Symmetric Orthogonalization.

  SCF Guess: Orbitals guess was supplied from a previous computation.

  ==> Iterations <==

                           Total Energy        Delta E     RMS |[F,P]|

   @DF-RKS iter   0:  -151.55141602379334   -1.51551e+02   1.30155e-03 
   @DF-RKS iter   1:  -151.55021652447499    1.19950e-03   2.21422e-04 
   @DF-RKS iter   2:  -151.55024143449327   -2.49100e-05   1.16564e-04 DIIS
   @DF-RKS iter   3:  -151.55024789633561   -6.46184e-06   2.73850e-05 DIIS
   @DF-RKS iter   4:  -151.55024830136975   -4.05034e-07   7.82208e-06 DIIS
   @DF-RKS iter   5:  -151.55024834275432   -4.13846e-08   1.90833e-06 DIIS
   @DF-RKS iter   6:  -151.55024834343880   -6.84480e-10   1.80456e-06 DIIS
   @DF-RKS iter   7:  -151.55024834522590   -1.78710e-09   1.57618e-07 DIIS
   @DF-RKS iter   8:  -151.55024834524778   -2.18847e-11   1.43189e-08 DIIS
   @DF-RKS iter   9:  -151.55024834524801   -2.27374e-13   2.52549e-09 DIIS

  ==> Post-Iterations <==

    Orbital Energies (a.u.)
    -----------------------

    Doubly Occupied:                                                      

       1A    -19.185991     2A    -19.185954     3A     -1.101057  
       4A     -0.892065     5A     -0.507309     6A     -0.491396  
       7A     -0.393841     8A     -0.339434     9A     -0.249763  

    Virtual:                                                              

      10A      0.015737    11A      0.054869    12A      0.105541  
      13A      0.573570    14A      0.581045    15A      0.843886  
      16A      0.870576    17A      0.872266    18A      0.969662  
      19A      1.007580    20A      1.068946    21A      1.253173  
      22A      1.297974    23A      1.354046    24A      1.464118  
      25A      1.627763    26A      1.782354    27A      2.058509  
      28A      2.102368    29A      2.339859    30A      2.378603  
      31A      2.626432    32A      2.882852    33A      2.922311  
      34A      2.987261    35A      3.161999    36A      3.519585  
      37A      3.527520    38A      3.815962  

    Final Occupation by Irrep:
              A 
    DOCC [     9 ]

  Energy converged.

  @DF-RKS Final Energy:  -151.55024834524801

   => Energetics <=

    Nuclear Repulsion Energy =             36.4633863628798096
    One-Electron Energy =                -280.9514686654827642
    Two-Electron Energy =                 107.3967381871241287
    DFT Exchange-Correlation Energy =     -14.4585463697691932
    Empirical Dispersion Energy =          -0.0003578600000000
    PCM Polarization Energy =               0.0000000000000000
    EFP Energy =                            0.0000000000000000
    Total Energy =                       -151.5502483452480078



Properties will be evaluated at   0.000000,   0.000000,   0.000000 Bohr

Properties computed using the SCF density matrix

  Nuclear Dipole Moment: (a.u.)
     X:    59.1084      Y:    -1.5955      Z:     0.0330

  Electronic Dipole Moment: (a.u.)
     X:   -59.1160      Y:     1.6899      Z:    -0.3639

  Dipole Moment: (a.u.)
     X:    -0.0075      Y:     0.0944      Z:    -0.3308     Total:     0.3441

  Dipole Moment: (Debye)
     X:    -0.0191      Y:     0.2400      Z:    -0.8409     Total:     0.8747


*** tstop() called on computer06 at Tue Dec 12 12:39:49 2017
Module time:
	user time   =       4.23 seconds =       0.07 minutes
	system time =       0.05 seconds =       0.00 minutes
	total time  =          5 seconds =       0.08 minutes
Total time:
	user time   =      10.88 seconds =       0.18 minutes
	system time =       0.15 seconds =       0.00 minutes
	total time  =         12 seconds =       0.20 minutes

*** tstart() called on computer06
*** at Tue Dec 12 12:39:49 2017


         ------------------------------------------------------------
                                   SCF GRAD                          
                          Rob Parrish, Justin Turney,                
                       Andy Simmonett, and Alex Sokolov              
         ------------------------------------------------------------

  ==> Geometry <==

    Molecular point group: c1
    Full point group: C1

    Geometry (in Angstrom), charge = 0, multiplicity = 1:

       Center              X                  Y                   Z               Mass       
    ------------   -----------------  -----------------  -----------------  -----------------
           O          1.005959629328    -0.025675536476     0.052250170540    15.994914619560
           O          2.470668175219    -0.083233462643     0.002585977775    15.994914619560
           H          0.784028204876    -0.838825736428    -0.432336944381     1.007825032070
           H          2.681789990577     0.865785735547     0.011131796066     1.007825032070

  Nuclear repulsion =   36.463386362879810

  ==> Basis Set <==

  Basis Set: CC-PVDZ
    Blend: CC-PVDZ
    Number of shells: 18
    Number of basis function: 38
    Number of Cartesian functions: 40
    Spherical Harmonics?: true
    Max angular momentum: 2

  ==> DFJKGrad: Density-Fitted SCF Gradients <==

    Gradient:                    1
    J tasked:                  Yes
    K tasked:                  Yes
    wK tasked:                  No
    OpenMP threads:              1
    Integrals threads:           1
    Memory (MB):              3006
    Schwarz Cutoff:          0E+00
    Fitting Condition:       1E-12

   => Auxiliary Basis Set <=

  Basis Set: (CC-PVDZ AUX)
    Blend: CC-PVDZ-JKFIT
    Number of shells: 66
    Number of basis function: 186
    Number of Cartesian functions: 212
    Spherical Harmonics?: true
    Max angular momentum: 3

  ==> DFT Potential <==

   => B3LYP Composite Functional <= 

    B3LYP Hybrid-GGA Exchange-Correlation Functional (VWN1-RPA)

    P.J. Stephens et. al., J. Phys. Chem., 98, 11623-11627, 1994

    Points   =           5000
    Deriv    =              1
    GGA      =           TRUE
    Meta     =          FALSE

    X_LRC        =          FALSE
    X_Hybrid     =           TRUE
    X_Alpha      =   2.000000E-01
    X_Omega      =   0.000000E+00
    C_LRC        =          FALSE
    C_Hybrid     =          FALSE
    C_Alpha      =   0.000000E+00
    C_Omega      =   0.000000E+00

   => Exchange Functionals <=

    0.8000    B3_X
    0.2000      HF 

   => Correlation Functionals <=

    0.1900 VWN3RPA_C
    0.8100   LYP_C

   => Molecular Quadrature <=

    Radial Scheme    =       TREUTLER
    Pruning Scheme   =           FLAT
    Nuclear Scheme   =       TREUTLER

    BS radius alpha  =              1
    Pruning alpha    =              1
    Radial Points    =             75
    Spherical Points =            302
    Total Points     =          88340
    Total Blocks     =             89
    Max Points       =           4716
    Max Functions    =             38


  -Total Gradient:
     Atom            X                  Y                   Z
    ------   -----------------  -----------------  -----------------
       1       -0.002994948544    -0.005320103496    -0.002662836847
       2        0.002945627142     0.005963531850     0.000422123675
       3       -0.004213352171     0.000311083054     0.001390545587
       4        0.004262419210    -0.000951316001     0.000838969638


*** tstop() called on computer06 at Tue Dec 12 12:39:50 2017
Module time:
	user time   =       0.91 seconds =       0.02 minutes
	system time =       0.01 seconds =       0.00 minutes
	total time  =          1 seconds =       0.02 minutes
Total time:
	user time   =      11.79 seconds =       0.20 minutes
	system time =       0.17 seconds =       0.00 minutes
	total time  =         13 seconds =       0.22 minutes

			-----------------------------------------
			 OPTKING 2.0: for geometry optimizations 
			  - R.A. King,  Bethel University        
			-----------------------------------------
	At level 1: Red. Int., RFO, no backsteps, dynamic trust

	Previous internal coordinate definitions found.
	---Fragment 1 Geometry and Gradient---
	 O           1.9009882002       -0.0485197323        0.0987385127
	 O           4.6688862164       -0.1572884495        0.0048867898
	 H           1.4815985877       -1.5851509151       -0.8169984220
	 H           5.0678486281        1.6360979299        0.0210360459
	            -0.0029949485       -0.0053201035       -0.0026628368
	             0.0029456271        0.0059635319        0.0004221237
	            -0.0042133522        0.0003110831        0.0013905456
	             0.0042624192       -0.0009513160        0.0008389696

	---Fragment 1 Intrafragment Coordinates---
	 - Coordinate -           - BOHR/RAD -       - ANG/DEG -
	 R(1,2)           =         2.771624	       1.466680
	 R(1,3)           =         1.837307	       0.972261
	 R(2,4)           =         1.837299	       0.972257
	 B(1,2,4)         =         1.750005	     100.267898
	 B(2,1,3)         =         1.750012	     100.268302
	*D(3,1,2,4)       =         2.618047	     150.003019

	Current energy   :      -151.5502483452

	Energy change for the previous step:
		Projected    :        -0.0019976343
		Actual       :        -0.0002007018
	Energy ratio indicates iffy step: Trust radius decreased to 1.250e-01.


	Performing BFGS update.
	Previous computed or guess Hessian on step 1.
	Steps to be used in Hessian update: 1
	Taking RFO optimization step.
	Going to follow RFO solution 1.
	Using RFO vector 1.
	Norm of target step-size    0.04094
	Projected energy change by RFO approximation:        -0.0008500666

	Back-transformation to cartesian coordinates...
	Successfully converged to displaced geometry.

	Back-transformation to cartesian coordinates to adjust frozen coordinates...
	Successfully converged to displaced geometry.

	--- Internal Coordinate Step in ANG or DEG, aJ/ANG or AJ/DEG ---
	 ---------------------------------------------------------------------------
	   Coordinate                Previous        Force       Change         New 
	   ----------                --------       ------       ------       ------
	    1 R(1,2)          =      1.466680    -0.057356    -0.005512     1.461168
	    2 R(1,3)          =      0.972261    -0.000047    -0.000035     0.972226
	    3 R(2,4)          =      0.972257    -0.000012    -0.000032     0.972225
	    4 B(1,2,4)        =    100.267898    -0.000606    -1.604254    98.663643
	    5 B(2,1,3)        =    100.268302    -0.000607    -1.604495    98.663807
	    6 *D(3,1,2,4)     =    150.003019    -0.000000     0.000000   150.003019
	 ---------------------------------------------------------------------------
	Successfully symmetrized geometry.

  ==> Convergence Check <==

  Measures of convergence in internal coordinates in au.
  Criteria marked as inactive (o), active & met (*), and active & unmet ( ).
  ---------------------------------------------------------------------------------------------
   Step     Total Energy     Delta E     MAX Force     RMS Force      MAX Disp      RMS Disp   
  ---------------------------------------------------------------------------------------------
    Convergence Criteria    1.00e-06 *    3.00e-04 *             o    1.20e-03 *             o
  ---------------------------------------------------------------------------------------------
      2    -151.55024835   -2.01e-04      7.97e-03      5.41e-03 o    2.80e-02      1.67e-02 o  ~
  ---------------------------------------------------------------------------------------------

	Writing optimization data to binary file.
	Structure for next step:
	Cartesian Geometry (in Angstrom)
	    O     1.0092884630  -0.0159214737   0.0555570295
	    O     2.4673621537  -0.0933041737   0.0003846123
	    H     0.8008331965  -0.8313138747  -0.4311722584
	    H     2.6649621868   0.8585905221   0.0088616167
			--------------------------
			 OPTKING Finished Execution 
			--------------------------

    Structure for next step:
    Molecular point group: c1
    Full point group: C1

    Geometry (in Angstrom), charge = 0, multiplicity = 1:

    O            1.009288462987    -0.015921473720     0.055557029453
    O            2.467362153666    -0.093304173709     0.000384612284
    H            0.800833196531    -0.831313874689    -0.431172258439
    H            2.664962186816     0.858590522118     0.008861616703

gradient() will perform analytic gradient computation.

*** tstart() called on computer06
*** at Tue Dec 12 12:39:50 2017

   => Loading Basis Set <=

    Name: CC-PVDZ
    Role: ORBITAL
    Keyword: BASIS
    atoms 1-2 entry O          line   190 file /shared/raimis/opt/miniconda/envs/htmd/share/psi4/basis/cc-pvdz.gbs 
    atoms 3-4 entry H          line    20 file /shared/raimis/opt/miniconda/envs/htmd/share/psi4/basis/cc-pvdz.gbs 


         ---------------------------------------------------------
                                   SCF
            by Justin Turney, Rob Parrish, and Andy Simmonett
                              RKS Reference
                        1 Threads,   4009 MiB Core
         ---------------------------------------------------------

  ==> Geometry <==

    Molecular point group: c1
    Full point group: C1

    Geometry (in Angstrom), charge = 0, multiplicity = 1:

       Center              X                  Y                   Z               Mass       
    ------------   -----------------  -----------------  -----------------  -----------------
           O          1.009288462987    -0.015921473720     0.055557029453    15.994914619560
           O          2.467362153666    -0.093304173709     0.000384612284    15.994914619560
           H          0.800833196531    -0.831313874689    -0.431172258439     1.007825032070
           H          2.664962186816     0.858590522118     0.008861616703     1.007825032070

  Running in c1 symmetry.

  Rotational constants: A =      9.51065  B =      0.13857  C =      0.13688 [cm^-1]
  Rotational constants: A = 285122.15328  B =   4154.09135  C =   4103.65632 [MHz]
  Nuclear repulsion =   36.614572660988742

  Charge       = 0
  Multiplicity = 1
  Electrons    = 18
  Nalpha       = 9
  Nbeta        = 9

  ==> Algorithm <==

  SCF Algorithm Type is DF.
  DIIS enabled.
  MOM disabled.
  Fractional occupation disabled.
  Guess Type is READ.
  Energy threshold   = 1.00e-08
  Density threshold  = 1.00e-08
  Integral threshold = 0.00e+00

  ==> Primary Basis <==

  Basis Set: CC-PVDZ
    Blend: CC-PVDZ
    Number of shells: 18
    Number of basis function: 38
    Number of Cartesian functions: 40
    Spherical Harmonics?: true
    Max angular momentum: 2

  ==> DFT Potential <==

   => B3LYP Composite Functional <= 

    B3LYP Hybrid-GGA Exchange-Correlation Functional (VWN1-RPA)

    P.J. Stephens et. al., J. Phys. Chem., 98, 11623-11627, 1994

    Points   =           5000
    Deriv    =              1
    GGA      =           TRUE
    Meta     =          FALSE

    X_LRC        =          FALSE
    X_Hybrid     =           TRUE
    X_Alpha      =   2.000000E-01
    X_Omega      =   0.000000E+00
    C_LRC        =          FALSE
    C_Hybrid     =          FALSE
    C_Alpha      =   0.000000E+00
    C_Omega      =   0.000000E+00

   => Exchange Functionals <=

    0.8000    B3_X
    0.2000      HF 

   => Correlation Functionals <=

    0.1900 VWN3RPA_C
    0.8100   LYP_C

   => Molecular Quadrature <=

    Radial Scheme    =       TREUTLER
    Pruning Scheme   =           FLAT
    Nuclear Scheme   =       TREUTLER

    BS radius alpha  =              1
    Pruning alpha    =              1
    Radial Points    =             75
    Spherical Points =            302
    Total Points     =          88336
    Total Blocks     =             90
    Max Points       =           4721
    Max Functions    =             38

   => -D3ZERO: Empirical Dispersion <=

    Grimme's -D3 (zero-damping) Dispersion Correction
    Grimme S.; Antony J.; Ehrlich S.; Krieg H. (2010), J. Chem. Phys., 132: 154104

        S6 =   1.000000E+00
        S8 =   1.703000E+00
       SR6 =   1.261000E+00
    ALPHA6 =   1.400000E+01

   => Loading Basis Set <=

    Name: (CC-PVDZ AUX)
    Role: JKFIT
    Keyword: DF_BASIS_SCF
    atoms 1-2 entry O          line   220 file /shared/raimis/opt/miniconda/envs/htmd/share/psi4/basis/cc-pvdz-jkfit.gbs 
    atoms 3-4 entry H          line    50 file /shared/raimis/opt/miniconda/envs/htmd/share/psi4/basis/cc-pvdz-jkfit.gbs 

  Reading orbitals from file 180, no projection.

  ==> Pre-Iterations <==

   -------------------------------------------------------
    Irrep   Nso     Nmo     Nalpha   Nbeta   Ndocc  Nsocc
   -------------------------------------------------------
     A         38      38       0       0       0       0
   -------------------------------------------------------
    Total      38      38       9       9       9       0
   -------------------------------------------------------

  ==> Integral Setup <==

  ==> DFJK: Density-Fitted J/K Matrices <==

    J tasked:                  Yes
    K tasked:                  Yes
    wK tasked:                  No
    OpenMP threads:              1
    Integrals threads:           1
    Memory (MB):              3006
    Algorithm:                Core
    Integral Cache:           NONE
    Schwarz Cutoff:          1E-12
    Fitting Condition:       1E-12

   => Auxiliary Basis Set <=

  Basis Set: (CC-PVDZ AUX)
    Blend: CC-PVDZ-JKFIT
    Number of shells: 66
    Number of basis function: 186
    Number of Cartesian functions: 212
    Spherical Harmonics?: true
    Max angular momentum: 3

  Minimum eigenvalue in the overlap matrix is 2.4845580010E-02.
  Using Symmetric Orthogonalization.

  SCF Guess: Orbitals guess was supplied from a previous computation.

  ==> Iterations <==

                           Total Energy        Delta E     RMS |[F,P]|

   @DF-RKS iter   0:  -151.55228275046167   -1.51552e+02   5.38435e-04 
   @DF-RKS iter   1:  -151.55051213580006    1.77061e-03   8.13787e-05 
   @DF-RKS iter   2:  -151.55051585067298   -3.71487e-06   3.87316e-05 DIIS
   @DF-RKS iter   3:  -151.55051659230551   -7.41633e-07   4.42813e-06 DIIS
   @DF-RKS iter   4:  -151.55051660410908   -1.18036e-08   3.31760e-06 DIIS
   @DF-RKS iter   5:  -151.55051661051797   -6.40890e-09   4.10464e-07 DIIS
   @DF-RKS iter   6:  -151.55051661066679   -1.48816e-10   1.76829e-07 DIIS
   @DF-RKS iter   7:  -151.55051661067367   -6.87805e-12   1.51789e-07 DIIS
   @DF-RKS iter   8:  -151.55051661068606   -1.23919e-11   5.56440e-09 DIIS

  ==> Post-Iterations <==

    Orbital Energies (a.u.)
    -----------------------

    Doubly Occupied:                                                      

       1A    -19.185953     2A    -19.185915     3A     -1.105087  
       4A     -0.890328     5A     -0.503753     6A     -0.495506  
       7A     -0.396209     8A     -0.341331     9A     -0.249172  

    Virtual:                                                              

      10A      0.020243    11A      0.053928    12A      0.105655  
      13A      0.577358    14A      0.579223    15A      0.844287  
      16A      0.864822    17A      0.871303    18A      0.967703  
      19A      1.007928    20A      1.069057    21A      1.243337  
      22A      1.301769    23A      1.353057    24A      1.463864  
      25A      1.641325    26A      1.776834    27A      2.058586  
      28A      2.104945    29A      2.334288    30A      2.383287  
      31A      2.629825    32A      2.881795    33A      2.922600  
      34A      2.995158    35A      3.164438    36A      3.517749  
      37A      3.521303    38A      3.826780  

    Final Occupation by Irrep:
              A 
    DOCC [     9 ]

  Energy converged.

  @DF-RKS Final Energy:  -151.55051661068606

   => Energetics <=

    Nuclear Repulsion Energy =             36.6145726609887419
    One-Electron Energy =                -281.2395353363642698
    Two-Electron Energy =                 107.5363561575523335
    DFT Exchange-Correlation Energy =     -14.4615675128628833
    Empirical Dispersion Energy =          -0.0003425800000000
    PCM Polarization Energy =               0.0000000000000000
    EFP Energy =                            0.0000000000000000
    Total Energy =                       -151.5505166106860315



Properties will be evaluated at   0.000000,   0.000000,   0.000000 Bohr

Properties computed using the SCF density matrix

  Nuclear Dipole Moment: (a.u.)
     X:    59.1087      Y:    -1.5997      Z:     0.0477

  Electronic Dipole Moment: (a.u.)
     X:   -59.1162      Y:     1.6941      Z:    -0.3783

  Dipole Moment: (a.u.)
     X:    -0.0075      Y:     0.0944      Z:    -0.3306     Total:     0.3439

  Dipole Moment: (Debye)
     X:    -0.0191      Y:     0.2398      Z:    -0.8403     Total:     0.8740


*** tstop() called on computer06 at Tue Dec 12 12:39:54 2017
Module time:
	user time   =       3.82 seconds =       0.06 minutes
	system time =       0.04 seconds =       0.00 minutes
	total time  =          4 seconds =       0.07 minutes
Total time:
	user time   =      15.62 seconds =       0.26 minutes
	system time =       0.21 seconds =       0.00 minutes
	total time  =         17 seconds =       0.28 minutes

*** tstart() called on computer06
*** at Tue Dec 12 12:39:54 2017


         ------------------------------------------------------------
                                   SCF GRAD                          
                          Rob Parrish, Justin Turney,                
                       Andy Simmonett, and Alex Sokolov              
         ------------------------------------------------------------

  ==> Geometry <==

    Molecular point group: c1
    Full point group: C1

    Geometry (in Angstrom), charge = 0, multiplicity = 1:

       Center              X                  Y                   Z               Mass       
    ------------   -----------------  -----------------  -----------------  -----------------
           O          1.009288462987    -0.015921473720     0.055557029453    15.994914619560
           O          2.467362153666    -0.093304173709     0.000384612284    15.994914619560
           H          0.800833196531    -0.831313874689    -0.431172258439     1.007825032070
           H          2.664962186816     0.858590522118     0.008861616703     1.007825032070

  Nuclear repulsion =   36.614572660988742

  ==> Basis Set <==

  Basis Set: CC-PVDZ
    Blend: CC-PVDZ
    Number of shells: 18
    Number of basis function: 38
    Number of Cartesian functions: 40
    Spherical Harmonics?: true
    Max angular momentum: 2

  ==> DFJKGrad: Density-Fitted SCF Gradients <==

    Gradient:                    1
    J tasked:                  Yes
    K tasked:                  Yes
    wK tasked:                  No
    OpenMP threads:              1
    Integrals threads:           1
    Memory (MB):              3006
    Schwarz Cutoff:          0E+00
    Fitting Condition:       1E-12

   => Auxiliary Basis Set <=

  Basis Set: (CC-PVDZ AUX)
    Blend: CC-PVDZ-JKFIT
    Number of shells: 66
    Number of basis function: 186
    Number of Cartesian functions: 212
    Spherical Harmonics?: true
    Max angular momentum: 3

  ==> DFT Potential <==

   => B3LYP Composite Functional <= 

    B3LYP Hybrid-GGA Exchange-Correlation Functional (VWN1-RPA)

    P.J. Stephens et. al., J. Phys. Chem., 98, 11623-11627, 1994

    Points   =           5000
    Deriv    =              1
    GGA      =           TRUE
    Meta     =          FALSE

    X_LRC        =          FALSE
    X_Hybrid     =           TRUE
    X_Alpha      =   2.000000E-01
    X_Omega      =   0.000000E+00
    C_LRC        =          FALSE
    C_Hybrid     =          FALSE
    C_Alpha      =   0.000000E+00
    C_Omega      =   0.000000E+00

   => Exchange Functionals <=

    0.8000    B3_X
    0.2000      HF 

   => Correlation Functionals <=

    0.1900 VWN3RPA_C
    0.8100   LYP_C

   => Molecular Quadrature <=

    Radial Scheme    =       TREUTLER
    Pruning Scheme   =           FLAT
    Nuclear Scheme   =       TREUTLER

    BS radius alpha  =              1
    Pruning alpha    =              1
    Radial Points    =             75
    Spherical Points =            302
    Total Points     =          88336
    Total Blocks     =             90
    Max Points       =           4721
    Max Functions    =             38


  -Total Gradient:
     Atom            X                  Y                   Z
    ------   -----------------  -----------------  -----------------
       1       -0.000255079717     0.000404650456    -0.000682151366
       2        0.000221913827     0.000020386363    -0.000802873725
       3       -0.000116371902    -0.000477780504     0.000665088429
       4        0.000149346067     0.000055152909     0.000811494818


*** tstop() called on computer06 at Tue Dec 12 12:39:55 2017
Module time:
	user time   =       1.03 seconds =       0.02 minutes
	system time =       0.02 seconds =       0.00 minutes
	total time  =          1 seconds =       0.02 minutes
Total time:
	user time   =      16.66 seconds =       0.28 minutes
	system time =       0.24 seconds =       0.00 minutes
	total time  =         18 seconds =       0.30 minutes

			-----------------------------------------
			 OPTKING 2.0: for geometry optimizations 
			  - R.A. King,  Bethel University        
			-----------------------------------------
	At level 1: Red. Int., RFO, no backsteps, dynamic trust

	Previous internal coordinate definitions found.
	---Fragment 1 Geometry and Gradient---
	 O           1.9072787841       -0.0300872250        0.1049875704
	 O           4.6626387411       -0.1763193354        0.0007268119
	 H           1.5133554196       -1.5709555536       -0.8147974845
	 H           5.0360486876        1.6225009471        0.0167460287
	            -0.0002550797        0.0004046505       -0.0006821514
	             0.0002219138        0.0000203864       -0.0008028737
	            -0.0001163719       -0.0004777805        0.0006650884
	             0.0001493461        0.0000551529        0.0008114948

	---Fragment 1 Intrafragment Coordinates---
	 - Coordinate -           - BOHR/RAD -       - ANG/DEG -
	 R(1,2)           =         2.761207	       1.461168
	 R(1,3)           =         1.837241	       0.972226
	 R(2,4)           =         1.837239	       0.972225
	 B(1,2,4)         =         1.722005	      98.663643
	 B(2,1,3)         =         1.722008	      98.663807
	*D(3,1,2,4)       =         2.618047	     150.003019

	Current energy   :      -151.5505166107

	Energy change for the previous step:
		Projected    :        -0.0008500666
		Actual       :        -0.0002682654

	Performing BFGS update.
	Previous computed or guess Hessian on step 1.
	Steps to be used in Hessian update: 2 1
	Taking RFO optimization step.
	Going to follow RFO solution 1.
	Using RFO vector 1.
	Norm of target step-size    0.00113
	Projected energy change by RFO approximation:        -0.0000001282

	Back-transformation to cartesian coordinates...
	Successfully converged to displaced geometry.

	Back-transformation to cartesian coordinates to adjust frozen coordinates...
	Successfully converged to displaced geometry.

	--- Internal Coordinate Step in ANG or DEG, aJ/ANG or AJ/DEG ---
	 ---------------------------------------------------------------------------
	   Coordinate                Previous        Force       Change         New 
	   ----------                --------       ------       ------       ------
	    1 R(1,2)          =      1.461168    -0.003036    -0.000388     1.460780
	    2 R(1,3)          =      0.972226    -0.000744    -0.000094     0.972132
	    3 R(2,4)          =      0.972225    -0.000734    -0.000093     0.972132
	    4 B(1,2,4)        =     98.663643    -0.000015    -0.033235    98.630408
	    5 B(2,1,3)        =     98.663807    -0.000015    -0.033410    98.630397
	    6 *D(3,1,2,4)     =    150.003019     0.000000     0.000000   150.003019
	 ---------------------------------------------------------------------------
	Successfully symmetrized geometry.

  ==> Convergence Check <==

  Measures of convergence in internal coordinates in au.
  Criteria marked as inactive (o), active & met (*), and active & unmet ( ).
  ---------------------------------------------------------------------------------------------
   Step     Total Energy     Delta E     MAX Force     RMS Force      MAX Disp      RMS Disp   
  ---------------------------------------------------------------------------------------------
    Convergence Criteria    1.00e-06 *    3.00e-04 *             o    1.20e-03 *             o
  ---------------------------------------------------------------------------------------------
      3    -151.55051661   -2.68e-04      3.69e-04      1.95e-04 o    7.33e-04 *    4.61e-04 o  ~
  ---------------------------------------------------------------------------------------------

	Writing optimization data to binary file.
	Structure for next step:
	Cartesian Geometry (in Angstrom)
	    O     1.0094957410  -0.0157030104   0.0556138845
	    O     2.4671532959  -0.0935225035   0.0003258667
	    H     0.8013150806  -0.8310573299  -0.4311089202
	    H     2.6644818824   0.8583338438   0.0088001690
			--------------------------
			 OPTKING Finished Execution 
			--------------------------

    Structure for next step:
    Molecular point group: c1
    Full point group: C1

    Geometry (in Angstrom), charge = 0, multiplicity = 1:

    O            1.009495741007    -0.015703010354     0.055613884495
    O            2.467153295928    -0.093522503521     0.000325866700
    H            0.801315080648    -0.831057329920    -0.431108920204
    H            2.664481882417     0.858333843795     0.008800169009

gradient() will perform analytic gradient computation.

*** tstart() called on computer06
*** at Tue Dec 12 12:39:55 2017

   => Loading Basis Set <=

    Name: CC-PVDZ
    Role: ORBITAL
    Keyword: BASIS
    atoms 1-2 entry O          line   190 file /shared/raimis/opt/miniconda/envs/htmd/share/psi4/basis/cc-pvdz.gbs 
    atoms 3-4 entry H          line    20 file /shared/raimis/opt/miniconda/envs/htmd/share/psi4/basis/cc-pvdz.gbs 


         ---------------------------------------------------------
                                   SCF
            by Justin Turney, Rob Parrish, and Andy Simmonett
                              RKS Reference
                        1 Threads,   4009 MiB Core
         ---------------------------------------------------------

  ==> Geometry <==

    Molecular point group: c1
    Full point group: C1

    Geometry (in Angstrom), charge = 0, multiplicity = 1:

       Center              X                  Y                   Z               Mass       
    ------------   -----------------  -----------------  -----------------  -----------------
           O          1.009495741007    -0.015703010354     0.055613884495    15.994914619560
           O          2.467153295928    -0.093522503521     0.000325866700    15.994914619560
           H          0.801315080648    -0.831057329920    -0.431108920204     1.007825032070
           H          2.664481882417     0.858333843795     0.008800169009     1.007825032070

  Running in c1 symmetry.

  Rotational constants: A =      9.51340  B =      0.13858  C =      0.13690 [cm^-1]
  Rotational constants: A = 285204.69858  B =   4154.47971  C =   4104.05210 [MHz]
  Nuclear repulsion =   36.623646491975038

  Charge       = 0
  Multiplicity = 1
  Electrons    = 18
  Nalpha       = 9
  Nbeta        = 9

  ==> Algorithm <==

  SCF Algorithm Type is DF.
  DIIS enabled.
  MOM disabled.
  Fractional occupation disabled.
  Guess Type is READ.
  Energy threshold   = 1.00e-08
  Density threshold  = 1.00e-08
  Integral threshold = 0.00e+00

  ==> Primary Basis <==

  Basis Set: CC-PVDZ
    Blend: CC-PVDZ
    Number of shells: 18
    Number of basis function: 38
    Number of Cartesian functions: 40
    Spherical Harmonics?: true
    Max angular momentum: 2

  ==> DFT Potential <==

   => B3LYP Composite Functional <= 

    B3LYP Hybrid-GGA Exchange-Correlation Functional (VWN1-RPA)

    P.J. Stephens et. al., J. Phys. Chem., 98, 11623-11627, 1994

    Points   =           5000
    Deriv    =              1
    GGA      =           TRUE
    Meta     =          FALSE

    X_LRC        =          FALSE
    X_Hybrid     =           TRUE
    X_Alpha      =   2.000000E-01
    X_Omega      =   0.000000E+00
    C_LRC        =          FALSE
    C_Hybrid     =          FALSE
    C_Alpha      =   0.000000E+00
    C_Omega      =   0.000000E+00

   => Exchange Functionals <=

    0.8000    B3_X
    0.2000      HF 

   => Correlation Functionals <=

    0.1900 VWN3RPA_C
    0.8100   LYP_C

   => Molecular Quadrature <=

    Radial Scheme    =       TREUTLER
    Pruning Scheme   =           FLAT
    Nuclear Scheme   =       TREUTLER

    BS radius alpha  =              1
    Pruning alpha    =              1
    Radial Points    =             75
    Spherical Points =            302
    Total Points     =          88336
    Total Blocks     =             90
    Max Points       =           4718
    Max Functions    =             38

   => -D3ZERO: Empirical Dispersion <=

    Grimme's -D3 (zero-damping) Dispersion Correction
    Grimme S.; Antony J.; Ehrlich S.; Krieg H. (2010), J. Chem. Phys., 132: 154104

        S6 =   1.000000E+00
        S8 =   1.703000E+00
       SR6 =   1.261000E+00
    ALPHA6 =   1.400000E+01

   => Loading Basis Set <=

    Name: (CC-PVDZ AUX)
    Role: JKFIT
    Keyword: DF_BASIS_SCF
    atoms 1-2 entry O          line   220 file /shared/raimis/opt/miniconda/envs/htmd/share/psi4/basis/cc-pvdz-jkfit.gbs 
    atoms 3-4 entry H          line    50 file /shared/raimis/opt/miniconda/envs/htmd/share/psi4/basis/cc-pvdz-jkfit.gbs 

  Reading orbitals from file 180, no projection.

  ==> Pre-Iterations <==

   -------------------------------------------------------
    Irrep   Nso     Nmo     Nalpha   Nbeta   Ndocc  Nsocc
   -------------------------------------------------------
     A         38      38       0       0       0       0
   -------------------------------------------------------
    Total      38      38       9       9       9       0
   -------------------------------------------------------

  ==> Integral Setup <==

  ==> DFJK: Density-Fitted J/K Matrices <==

    J tasked:                  Yes
    K tasked:                  Yes
    wK tasked:                  No
    OpenMP threads:              1
    Integrals threads:           1
    Memory (MB):              3006
    Algorithm:                Core
    Integral Cache:           NONE
    Schwarz Cutoff:          1E-12
    Fitting Condition:       1E-12

   => Auxiliary Basis Set <=

  Basis Set: (CC-PVDZ AUX)
    Blend: CC-PVDZ-JKFIT
    Number of shells: 66
    Number of basis function: 186
    Number of Cartesian functions: 212
    Spherical Harmonics?: true
    Max angular momentum: 3

  Minimum eigenvalue in the overlap matrix is 2.4819337232E-02.
  Using Symmetric Orthogonalization.

  SCF Guess: Orbitals guess was supplied from a previous computation.

  ==> Iterations <==

                           Total Energy        Delta E     RMS |[F,P]|

   @DF-RKS iter   0:  -151.55077880269292   -1.51551e+02   2.24327e-05 
   @DF-RKS iter   1:  -151.55051688185537    2.61921e-04   4.70247e-06 
   @DF-RKS iter   2:  -151.55051688988252   -8.02714e-09   2.57851e-06 DIIS
   @DF-RKS iter   3:  -151.55051689295470   -3.07219e-09   5.24369e-07 DIIS
   @DF-RKS iter   4:  -151.55051689310065   -1.45945e-10   7.85381e-08 DIIS
   @DF-RKS iter   5:  -151.55051689310494   -4.29168e-12   3.69440e-08 DIIS
   @DF-RKS iter   6:  -151.55051689310557   -6.25278e-13   1.46437e-08 DIIS
   @DF-RKS iter   7:  -151.55051689310562   -5.68434e-14   8.77753e-10 DIIS

  ==> Post-Iterations <==

    Orbital Energies (a.u.)
    -----------------------

    Doubly Occupied:                                                      

       1A    -19.185928     2A    -19.185889     3A     -1.105299  
       4A     -0.890276     5A     -0.503738     6A     -0.495637  
       7A     -0.396304     8A     -0.341360     9A     -0.249122  

    Virtual:                                                              

      10A      0.020482    11A      0.053931    12A      0.105719  
      13A      0.577517    14A      0.579245    15A      0.844291  
      16A      0.864648    17A      0.871321    18A      0.967654  
      19A      1.007938    20A      1.069040    21A      1.243092  
      22A      1.301880    23A      1.353056    24A      1.463910  
      25A      1.641730    26A      1.776741    27A      2.058794  
      28A      2.105226    29A      2.334010    30A      2.383590  
      31A      2.629861    32A      2.881828    33A      2.922707  
      34A      2.995656    35A      3.164779    36A      3.517791  
      37A      3.521292    38A      3.827316  

    Final Occupation by Irrep:
              A 
    DOCC [     9 ]

  Energy converged.

  @DF-RKS Final Energy:  -151.55051689310562

   => Energetics <=

    Nuclear Repulsion Energy =             36.6236464919750375
    One-Electron Energy =                -281.2569284034830162
    Two-Electron Energy =                 107.5449083550332432
    DFT Exchange-Correlation Energy =     -14.4618012566308796
    Empirical Dispersion Energy =          -0.0003420800000000
    PCM Polarization Energy =               0.0000000000000000
    EFP Energy =                            0.0000000000000000
    Total Energy =                       -151.5505168931056232



Properties will be evaluated at   0.000000,   0.000000,   0.000000 Bohr

Properties computed using the SCF density matrix

  Nuclear Dipole Moment: (a.u.)
     X:    59.1087      Y:    -1.5997      Z:     0.0476

  Electronic Dipole Moment: (a.u.)
     X:   -59.1162      Y:     1.6941      Z:    -0.3782

  Dipole Moment: (a.u.)
     X:    -0.0075      Y:     0.0944      Z:    -0.3306     Total:     0.3438

  Dipole Moment: (Debye)
     X:    -0.0191      Y:     0.2398      Z:    -0.8402     Total:     0.8740


*** tstop() called on computer06 at Tue Dec 12 12:39:58 2017
Module time:
	user time   =       3.67 seconds =       0.06 minutes
	system time =       0.04 seconds =       0.00 minutes
	total time  =          3 seconds =       0.05 minutes
Total time:
	user time   =      20.36 seconds =       0.34 minutes
	system time =       0.28 seconds =       0.00 minutes
	total time  =         21 seconds =       0.35 minutes

*** tstart() called on computer06
*** at Tue Dec 12 12:39:58 2017


         ------------------------------------------------------------
                                   SCF GRAD                          
                          Rob Parrish, Justin Turney,                
                       Andy Simmonett, and Alex Sokolov              
         ------------------------------------------------------------

  ==> Geometry <==

    Molecular point group: c1
    Full point group: C1

    Geometry (in Angstrom), charge = 0, multiplicity = 1:

       Center              X                  Y                   Z               Mass       
    ------------   -----------------  -----------------  -----------------  -----------------
           O          1.009495741007    -0.015703010354     0.055613884495    15.994914619560
           O          2.467153295928    -0.093522503521     0.000325866700    15.994914619560
           H          0.801315080648    -0.831057329920    -0.431108920204     1.007825032070
           H          2.664481882417     0.858333843795     0.008800169009     1.007825032070

  Nuclear repulsion =   36.623646491975038

  ==> Basis Set <==

  Basis Set: CC-PVDZ
    Blend: CC-PVDZ
    Number of shells: 18
    Number of basis function: 38
    Number of Cartesian functions: 40
    Spherical Harmonics?: true
    Max angular momentum: 2

  ==> DFJKGrad: Density-Fitted SCF Gradients <==

    Gradient:                    1
    J tasked:                  Yes
    K tasked:                  Yes
    wK tasked:                  No
    OpenMP threads:              1
    Integrals threads:           1
    Memory (MB):              3006
    Schwarz Cutoff:          0E+00
    Fitting Condition:       1E-12

   => Auxiliary Basis Set <=

  Basis Set: (CC-PVDZ AUX)
    Blend: CC-PVDZ-JKFIT
    Number of shells: 66
    Number of basis function: 186
    Number of Cartesian functions: 212
    Spherical Harmonics?: true
    Max angular momentum: 3

  ==> DFT Potential <==

   => B3LYP Composite Functional <= 

    B3LYP Hybrid-GGA Exchange-Correlation Functional (VWN1-RPA)

    P.J. Stephens et. al., J. Phys. Chem., 98, 11623-11627, 1994

    Points   =           5000
    Deriv    =              1
    GGA      =           TRUE
    Meta     =          FALSE

    X_LRC        =          FALSE
    X_Hybrid     =           TRUE
    X_Alpha      =   2.000000E-01
    X_Omega      =   0.000000E+00
    C_LRC        =          FALSE
    C_Hybrid     =          FALSE
    C_Alpha      =   0.000000E+00
    C_Omega      =   0.000000E+00

   => Exchange Functionals <=

    0.8000    B3_X
    0.2000      HF 

   => Correlation Functionals <=

    0.1900 VWN3RPA_C
    0.8100   LYP_C

   => Molecular Quadrature <=

    Radial Scheme    =       TREUTLER
    Pruning Scheme   =           FLAT
    Nuclear Scheme   =       TREUTLER

    BS radius alpha  =              1
    Pruning alpha    =              1
    Radial Points    =             75
    Spherical Points =            302
    Total Points     =          88336
    Total Blocks     =             90
    Max Points       =           4718
    Max Functions    =             38


  -Total Gradient:
     Atom            X                  Y                   Z
    ------   -----------------  -----------------  -----------------
       1       -0.000072154411     0.000470557940    -0.000681855034
       2        0.000037836666    -0.000039063348    -0.000829823075
       3        0.000006754669    -0.000426600608     0.000691376328
       4        0.000027373799    -0.000002512989     0.000811959747


*** tstop() called on computer06 at Tue Dec 12 12:40:00 2017
Module time:
	user time   =       1.23 seconds =       0.02 minutes
	system time =       0.04 seconds =       0.00 minutes
	total time  =          2 seconds =       0.03 minutes
Total time:
	user time   =      21.60 seconds =       0.36 minutes
	system time =       0.33 seconds =       0.01 minutes
	total time  =         23 seconds =       0.38 minutes

			-----------------------------------------
			 OPTKING 2.0: for geometry optimizations 
			  - R.A. King,  Bethel University        
			-----------------------------------------
	At level 1: Red. Int., RFO, no backsteps, dynamic trust

	Previous internal coordinate definitions found.
	---Fragment 1 Geometry and Gradient---
	 O           1.9076704828       -0.0296743890        0.1050950109
	 O           4.6622440572       -0.1767319189        0.0006157988
	 H           1.5142660486       -1.5704707543       -0.8146777926
	 H           5.0351410438        1.6220158954        0.0166299094
	            -0.0000721544        0.0004705579       -0.0006818550
	             0.0000378367       -0.0000390633       -0.0008298231
	             0.0000067547       -0.0004266006        0.0006913763
	             0.0000273738       -0.0000025130        0.0008119597

	---Fragment 1 Intrafragment Coordinates---
	 - Coordinate -           - BOHR/RAD -       - ANG/DEG -
	 R(1,2)           =         2.760474	       1.460780
	 R(1,3)           =         1.837064	       0.972132
	 R(2,4)           =         1.837064	       0.972132
	 B(1,2,4)         =         1.721425	      98.630408
	 B(2,1,3)         =         1.721425	      98.630397
	*D(3,1,2,4)       =         2.618047	     150.003019

	Current energy   :      -151.5505168931

	Energy change for the previous step:
		Projected    :        -0.0000001282
		Actual       :        -0.0000002824
	Energy ratio indicates good step: Trust radius increased to 3.750e-01.


	Performing BFGS update.
	Previous computed or guess Hessian on step 1.
	Steps to be used in Hessian update: 3 2
	Taking RFO optimization step.
	Going to follow RFO solution 1.
	Using RFO vector 1.
	Norm of target step-size    0.00022
	Projected energy change by RFO approximation:        -0.0000000204

	Back-transformation to cartesian coordinates...
	Successfully converged to displaced geometry.

	Back-transformation to cartesian coordinates to adjust frozen coordinates...
	Successfully converged to displaced geometry.

	--- Internal Coordinate Step in ANG or DEG, aJ/ANG or AJ/DEG ---
	 ---------------------------------------------------------------------------
	   Coordinate                Previous        Force       Change         New 
	   ----------                --------       ------       ------       ------
	    1 R(1,2)          =      1.460780    -0.000579    -0.000106     1.460674
	    2 R(1,3)          =      0.972132    -0.000065    -0.000011     0.972121
	    3 R(2,4)          =      0.972132    -0.000065    -0.000011     0.972121
	    4 B(1,2,4)        =     98.630408     0.000000     0.002958    98.633366
	    5 B(2,1,3)        =     98.630397     0.000000     0.002969    98.633366
	    6 *D(3,1,2,4)     =    150.003019     0.000000    -0.000000   150.003019
	 ---------------------------------------------------------------------------
	Successfully symmetrized geometry.

  ==> Convergence Check <==

  Measures of convergence in internal coordinates in au.
  Criteria marked as inactive (o), active & met (*), and active & unmet ( ).
  ---------------------------------------------------------------------------------------------
   Step     Total Energy     Delta E     MAX Force     RMS Force      MAX Disp      RMS Disp   
  ---------------------------------------------------------------------------------------------
    Convergence Criteria    1.00e-06 *    3.00e-04 *             o    1.20e-03 *             o
  ---------------------------------------------------------------------------------------------
      4    -151.55051689   -2.82e-07 *    7.03e-05 *    2.91e-05 o    2.01e-04 *    8.82e-05 o  ~
  ---------------------------------------------------------------------------------------------


  **** Optimization is complete! (in 4 steps) ****

  ==> Optimization Summary <==

  Measures of convergence in internal coordinates in au.
  --------------------------------------------------------------------------------------------------------------- ~
   Step         Total Energy             Delta E       MAX Force       RMS Force        MAX Disp        RMS Disp  ~
  --------------------------------------------------------------------------------------------------------------- ~
      1    -151.550047643443   -151.550047643443      0.01043720      0.00753107      0.06453904      0.03889827  ~
      2    -151.550248345248     -0.000200701805      0.00797071      0.00540850      0.02800372      0.01671678  ~
      3    -151.550516610686     -0.000268265438      0.00036850      0.00019468      0.00073261      0.00046106  ~
      4    -151.550516893106     -0.000000282420      0.00007031      0.00002915      0.00020124      0.00008823  ~
  --------------------------------------------------------------------------------------------------------------- ~

	Writing optimization data to binary file.
	Final energy is   -151.5505168931056
	Final (previous) structure:
	Cartesian Geometry (in Angstrom)
	    O     1.0094957410  -0.0157030104   0.0556138845
	    O     2.4671532959  -0.0935225035   0.0003258667
	    H     0.8013150806  -0.8310573299  -0.4311089202
	    H     2.6644818824   0.8583338438   0.0088001690
	Saving final (previous) structure.
			--------------------------
			 OPTKING Finished Execution 
			--------------------------

    Final optimized geometry and variables:
    Molecular point group: c1
    Full point group: C1

    Geometry (in Angstrom), charge = 0, multiplicity = 1:

    O            1.009495741007    -0.015703010354     0.055613884495
    O            2.467153295928    -0.093522503521     0.000325866700
    H            0.801315080648    -0.831057329920    -0.431108920204
    H            2.664481882417     0.858333843795     0.008800169009

	Cleaning optimization helper files.


Properties will be evaluated at   0.000000,   0.000000,   0.000000 Bohr

Properties computed using the  density matrix

  Nuclear Dipole Moment: (a.u.)
     X:    59.1087      Y:    -1.5997      Z:     0.0476

  Electronic Dipole Moment: (a.u.)
     X:   -59.1162      Y:     1.6941      Z:    -0.3782

  Dipole Moment: (a.u.)
     X:    -0.0075      Y:     0.0944      Z:    -0.3306     Total:     0.3438

  Dipole Moment: (Debye)
     X:    -0.0191      Y:     0.2398      Z:    -0.8402     Total:     0.8740

  Quadrupole Moment: (Debye Ang)
    XX:   -10.7610     YY:    -8.8469     ZZ:   -11.8719
    XY:     3.6746     XZ:    -0.5623     YZ:     0.8993

  Traceless Quadrupole Moment: (Debye Ang)
    XX:    -0.2677     YY:     1.6464     ZZ:    -1.3786
    XY:     3.6746     XZ:    -0.5623     YZ:     0.8993

  Mulliken Charges: (a.u.)
   Center  Symbol    Alpha    Beta     Spin     Total
       1     O     4.09078  4.09078  0.00000 -0.18156
       2     O     4.09078  4.09078  0.00000 -0.18156
       3     H     0.40922  0.40922  0.00000  0.18156
       4     H     0.40922  0.40922  0.00000  0.18156

   Total alpha =  9.00000, Total beta =  9.00000, Total charge =  0.00000


*** Psi4 exiting successfully. Buy a developer a beer!
