    -----------------------------------------------------------------------
          Psi4: An Open-Source Ab Initio Electronic Structure Package
                              Psi4 (no tag) Driver

                          Git: Rev {detached?}  

    J. M. Turney, A. C. Simmonett, R. M. Parrish, E. G. Hohenstein,
    F. A. Evangelista, J. T. Fermann, B. J. Mintz, L. A. Burns, J. J. Wilke,
    M. L. Abrams, N. J. Russ, M. L. Leininger, C. L. Janssen, E. T. Seidl,
    W. D. Allen, H. F. Schaefer, R. A. King, E. F. Valeev, C. D. Sherrill,
    and T. D. Crawford, WIREs Comput. Mol. Sci. 2, 556-565 (2012)
    (doi: 10.1002/wcms.93)

                         Additional Contributions by
    A. E. DePrince, M. Saitow, U. Bozkaya, A. Yu. Sokolov
    -----------------------------------------------------------------------


    Psi4 started on: Tue Jul  5 18:12:59 2016

    Process ID:   5468
    PSI4DATADIR: /export131/home/mjharvey/miniconda3/share
    Memory level set to 256.000 MB

  ==> Input File <==

--------------------------------------------------------------------------
set {
	reference rhf
	basis 6-31G*
}


set_num_threads( 1 )
memory 2 gb

molecule MOL {
0 1

H	 -2.603399	 0.189249	 1.472780
O	 -1.852861	 -0.193472	 1.042329
C	 -2.098667	 -1.551841	 0.780666
C	 -3.096750	 -1.775172	 -0.350121
H	 -1.140557	 -1.977865	 0.511958
H	 -2.435873	 -2.058961	 1.683939
C	 -2.814984	 -0.941647	 -1.602603
H	 -3.096318	 -2.831318	 -0.606873
H	 -4.091646	 -1.540123	 0.024448
C	 -3.038543	 0.556557	 -1.378492
H	 -3.452486	 -1.286544	 -2.411926
H	 -1.785775	 -1.105256	 -1.922447
C	 -2.412015	 1.116360	 -0.096141
H	 -2.656559	 1.107703	 -2.235915
H	 -4.109487	 0.746133	 -1.349530
C	 -3.034785	 0.600176	 1.203932
H	 -1.352974	 0.866865	 -0.096134
H	 -2.465711	 2.203834	 -0.114966
C	 -4.465221	 1.099239	 1.418936
H	 -2.416982	 0.909888	 2.045662
H	 -3.037454	 -0.487130	 1.211759
C	 -5.411106	 0.710962	 0.283063
H	 -4.847259	 0.703375	 2.357459
H	 -4.456195	 2.181939	 1.526468
H	 -5.467273	 -0.368187	 0.171231
H	 -6.416738	 1.077069	 0.465559
H	 -5.076338	 1.123259	 -0.664726

	symmetry c1
}
set optking {
	frozen_dihedral = ("
		14 10 7 4,
		14 10 13 16,
		10 7 4 8,
		8 4 3 2,
		10 13 16 20,
		4 3 2 1
	")
}

ee = energy('scf')
oeprop('DIPOLE', 'QUADRUPOLE', 'MULLIKEN_CHARGES')
f=open( 'psi4out.xyz', 'w' )
f.write( "27  " )
f.write( str(ee) + "\n" )
f.write( MOL.save_string_xyz() )
f.close()
--------------------------------------------------------------------------

  Memory set to   2.000 GiB by Python script.

*** tstart() called on cx1-3-4-2.cx1.hpc.ic.ac.uk
*** at Tue Jul  5 18:12:59 2016


         ---------------------------------------------------------
                                   SCF
            by Justin Turney, Rob Parrish, and Andy Simmonett
                              RHF Reference
                        1 Threads,   2000 MiB Core
         ---------------------------------------------------------

  ==> Geometry <==

    Molecular point group: c1
    Full point group: C1

    Geometry (in Angstrom), charge = 0, multiplicity = 1:

       Center              X                  Y                   Z               Mass       
    ------------   -----------------  -----------------  -----------------  -----------------
           H          0.527845081493     0.234350384140     1.304741818250     1.007825032070
           O          1.278383081493    -0.148370615860     0.874290818250    15.994914619560
           C          1.032577081493    -1.506739615860     0.612627818250    12.000000000000
           C          0.034494081493    -1.730070615860    -0.518159181750    12.000000000000
           H          1.990687081493    -1.932763615860     0.343919818250     1.007825032070
           H          0.695371081493    -2.013859615860     1.515900818250     1.007825032070
           C          0.316260081493    -0.896545615860    -1.770641181750    12.000000000000
           H          0.034926081493    -2.786216615860    -0.774911181750     1.007825032070
           H         -0.960401918507    -1.495021615860    -0.143590181750     1.007825032070
           C          0.092701081493     0.601658384140    -1.546530181750    12.000000000000
           H         -0.321241918507    -1.241442615860    -2.579964181750     1.007825032070
           H          1.345469081493    -1.060154615860    -2.090485181750     1.007825032070
           C          0.719229081493     1.161461384140    -0.264179181750    12.000000000000
           H          0.474685081493     1.152804384140    -2.403953181750     1.007825032070
           H         -0.978242918507     0.791234384140    -1.517568181750     1.007825032070
           C          0.096459081493     0.645277384140     1.035893818250    12.000000000000
           H          1.778270081493     0.911966384140    -0.264172181750     1.007825032070
           H          0.665533081493     2.248935384140    -0.283004181750     1.007825032070
           C         -1.333976918507     1.144340384140     1.250897818250    12.000000000000
           H          0.714262081493     0.954989384140     1.877623818250     1.007825032070
           H          0.093790081493    -0.442028615860     1.043720818250     1.007825032070
           C         -2.279861918507     0.756063384140     0.115024818250    12.000000000000
           H         -1.716014918507     0.748476384140     2.189420818250     1.007825032070
           H         -1.324950918507     2.227040384140     1.358429818250     1.007825032070
           H         -2.336028918507    -0.323085615860     0.003192818250     1.007825032070
           H         -3.285493918507     1.122170384140     0.297520818250     1.007825032070
           H         -1.945093918507     1.168360384140    -0.832764181750     1.007825032070

  Running in c1 symmetry.

  Rotational constants: A =      0.06925  B =      0.05055  C =      0.04339 [cm^-1]
  Rotational constants: A =   2076.18316  B =   1515.56703  C =   1300.74928 [MHz]
  Nuclear repulsion =  564.650547989031111

  Charge       = 0
  Multiplicity = 1
  Electrons    = 74
  Nalpha       = 37
  Nbeta        = 37

  ==> Algorithm <==

  SCF Algorithm Type is DF.
  DIIS enabled.
  MOM disabled.
  Fractional occupation disabled.
  Guess Type is CORE.
  Energy threshold   = 1.00e-06
  Density threshold  = 1.00e-06
  Integral threshold = 0.00e+00

  ==> Primary Basis <==

  Basis Set: 6-31G*
    Number of shells: 90
    Number of basis function: 171
    Number of Cartesian functions: 171
    Spherical Harmonics?: false
    Max angular momentum: 2

  ==> Pre-Iterations <==

   -------------------------------------------------------
    Irrep   Nso     Nmo     Nalpha   Nbeta   Ndocc  Nsocc
   -------------------------------------------------------
     A        171     171       0       0       0       0
   -------------------------------------------------------
    Total     171     171      37      37      37       0
   -------------------------------------------------------

 OEINTS: Overlap, kinetic, potential, dipole, and quadrupole integrals
         stored in file 35.

  ==> Integral Setup <==

  ==> DFJK: Density-Fitted J/K Matrices <==

    J tasked:                  Yes
    K tasked:                  Yes
    wK tasked:                  No
    OpenMP threads:              1
    Integrals threads:           1
    Memory (MB):              1430
    Algorithm:                Core
    Integral Cache:           NONE
    Schwarz Cutoff:          1E-12
    Fitting Condition:       1E-12

   => Auxiliary Basis Set <=

  Basis Set: 
    Number of shells: 378
    Number of basis function: 1179
    Number of Cartesian functions: 1179
    Spherical Harmonics?: false
    Max angular momentum: 3

  Minimum eigenvalue in the overlap matrix is 1.3306346059E-03.
  Using Symmetric Orthogonalization.
  SCF Guess: Core (One-Electron) Hamiltonian.

  ==> Iterations <==

                           Total Energy        Delta E     RMS |[F,P]|

   @DF-RHF iter   1:  -252.79382144851922   -2.52794e+02   6.92615e-02 
   @DF-RHF iter   2:  -165.79279931529277    8.70010e+01   6.28510e-02 DIIS
   @DF-RHF iter   3:  -303.44800180787024   -1.37655e+02   5.07739e-02 DIIS
   @DF-RHF iter   4:  -330.80824044847589   -2.73602e+01   5.13634e-02 DIIS
   @DF-RHF iter   5:  -385.69459227152754   -5.48864e+01   9.33233e-03 DIIS
   @DF-RHF iter   6:  -386.86637437143634   -1.17178e+00   3.51693e-03 DIIS
   @DF-RHF iter   7:  -387.05728214349983   -1.90908e-01   7.58214e-04 DIIS
   @DF-RHF iter   8:  -387.07090883373712   -1.36267e-02   2.50339e-04 DIIS
   @DF-RHF iter   9:  -387.07283543020526   -1.92660e-03   1.16504e-04 DIIS
   @DF-RHF iter  10:  -387.07325017605194   -4.14746e-04   4.02370e-05 DIIS
   @DF-RHF iter  11:  -387.07334347268568   -9.32966e-05   2.02509e-05 DIIS
   @DF-RHF iter  12:  -387.07336720784190   -2.37352e-05   6.77430e-06 DIIS
   @DF-RHF iter  13:  -387.07337040994480   -3.20210e-06   2.53169e-06 DIIS
   @DF-RHF iter  14:  -387.07337078969624   -3.79751e-07   9.99821e-07 DIIS

  ==> Post-Iterations <==

    Orbital Energies (a.u.)
    -----------------------

    Doubly Occupied:                                                      

       1A    -20.495236     2A    -11.278222     3A    -11.269298  
       4A    -11.224679     5A    -11.217124     6A    -11.201309  
       7A    -11.192815     8A    -11.192621     9A    -11.176336  
      10A     -1.642227    11A     -1.145848    12A     -1.084293  
      13A     -1.017098    14A     -1.008532    15A     -0.917324  
      16A     -0.875634    17A     -0.850929    18A     -0.779628  
      19A     -0.748176    20A     -0.681071    21A     -0.671131  
      22A     -0.627235    23A     -0.624339    24A     -0.595797  
      25A     -0.576294    26A     -0.561822    27A     -0.549023  
      28A     -0.529305    29A     -0.518307    30A     -0.491353  
      31A     -0.476342    32A     -0.463027    33A     -0.453648  
      34A     -0.438955    35A     -0.417963    36A     -0.351570  
      37A     -0.248346  

    Virtual:                                                              

      38A      0.202034    39A      0.242135    40A      0.251921  
      41A      0.261560    42A      0.283058    43A      0.290767  
      44A      0.292682    45A      0.308848    46A      0.324424  
      47A      0.328242    48A      0.331593    49A      0.342077  
      50A      0.347865    51A      0.367438    52A      0.373197  
      53A      0.382926    54A      0.397961    55A      0.419013  
      56A      0.432314    57A      0.436249    58A      0.458405  
      59A      0.464316    60A      0.495544    61A      0.510891  
      62A      0.523731    63A      0.585422    64A      0.688276  
      65A      0.726808    66A      0.730266    67A      0.739696  
      68A      0.747343    69A      0.769107    70A      0.783321  
      71A      0.819903    72A      0.848343    73A      0.872064  
      74A      0.890521    75A      0.900966    76A      0.919619  
      77A      0.961407    78A      0.977837    79A      0.988450  
      80A      1.008689    81A      1.030855    82A      1.058430  
      83A      1.071340    84A      1.093716    85A      1.105173  
      86A      1.122476    87A      1.141754    88A      1.149021  
      89A      1.169641    90A      1.173542    91A      1.176401  
      92A      1.190868    93A      1.211717    94A      1.217152  
      95A      1.236414    96A      1.246733    97A      1.253373  
      98A      1.260753    99A      1.283618   100A      1.291821  
     101A      1.298093   102A      1.346264   103A      1.386951  
     104A      1.418607   105A      1.432616   106A      1.463327  
     107A      1.525431   108A      1.553116   109A      1.624674  
     110A      1.654118   111A      1.681622   112A      1.715612  
     113A      1.760507   114A      1.761043   115A      1.793764  
     116A      1.850894   117A      1.893987   118A      1.936958  
     119A      1.946729   120A      1.997236   121A      2.023829  
     122A      2.056452   123A      2.084303   124A      2.152013  
     125A      2.177090   126A      2.227079   127A      2.240281  
     128A      2.248065   129A      2.264364   130A      2.305329  
     131A      2.325330   132A      2.341140   133A      2.368778  
     134A      2.410224   135A      2.427984   136A      2.450203  
     137A      2.502136   138A      2.558052   139A      2.571313  
     140A      2.619266   141A      2.627770   142A      2.680795  
     143A      2.691455   144A      2.698059   145A      2.715967  
     146A      2.729272   147A      2.746283   148A      2.763663  
     149A      2.797356   150A      2.800169   151A      2.821847  
     152A      2.872662   153A      2.937497   154A      2.975620  
     155A      3.023048   156A      3.033222   157A      3.057840  
     158A      3.113118   159A      3.161917   160A      3.263042  
     161A      3.542486   162A      4.543979   163A      4.594236  
     164A      4.666307   165A      4.770304   166A      4.830994  
     167A      4.882184   168A      4.966261   169A      5.010699  
     170A      5.094200   171A      5.165678  

    Final Occupation by Irrep:
              A 
    DOCC [    37 ]

  Energy converged.

  @DF-RHF Final Energy:  -387.07337078969624

   => Energetics <=

    Nuclear Repulsion Energy =            564.6505479890311108
    One-Electron Energy =               -1644.2621092505648903
    Two-Electron Energy =                 692.5381904718385613
    DFT Exchange-Correlation Energy =       0.0000000000000000
    Empirical Dispersion Energy =           0.0000000000000000
    PCM Polarization Energy =               0.0000000000000000
    EFP Energy =                            0.0000000000000000
    Total Energy =                       -387.0733707896952183

    Alert: EFP and PCM quantities not currently incorporated into SCF psivars.

Properties will be evaluated at   0.000000,   0.000000,   0.000000 Bohr
  ==> Properties <==


Properties computed using the SCF density matrix

  Nuclear Dipole Moment: (a.u.)
     X:    -4.2562      Y:     0.2484      Z:    -0.8920

  Electronic Dipole Moment: (a.u.)
     X:     4.3914      Y:    -0.9428      Z:     0.9517

  Dipole Moment: (a.u.)
     X:     0.1352      Y:    -0.6944      Z:     0.0597     Total:     0.7100

  Dipole Moment: (Debye)
     X:     0.3436      Y:    -1.7650      Z:     0.1519     Total:     1.8046


  Saving occupied orbitals to File 180.

*** tstop() called on cx1-3-4-2.cx1.hpc.ic.ac.uk at Tue Jul  5 18:13:29 2016
Module time:
	user time   =      29.25 seconds =       0.49 minutes
	system time =       0.25 seconds =       0.00 minutes
	total time  =         30 seconds =       0.50 minutes
Total time:
	user time   =      29.25 seconds =       0.49 minutes
	system time =       0.25 seconds =       0.00 minutes
	total time  =         30 seconds =       0.50 minutes


Properties will be evaluated at   0.000000,   0.000000,   0.000000 Bohr

Properties computed using the  density matrix

  Nuclear Dipole Moment: (a.u.)
     X:    -4.2562      Y:     0.2484      Z:    -0.8920

  Electronic Dipole Moment: (a.u.)
     X:     4.3914      Y:    -0.9428      Z:     0.9517

  Dipole Moment: (a.u.)
     X:     0.1352      Y:    -0.6944      Z:     0.0597     Total:     0.7100

  Dipole Moment: (Debye)
     X:     0.3436      Y:    -1.7650      Z:     0.1519     Total:     1.8046

  Quadrupole Moment: (Debye Ang)
    XX:   -63.7484     YY:   -59.4438     ZZ:   -59.5175
    XY:    -0.3496     XZ:     0.8094     YZ:    -0.1799

  Traceless Quadrupole Moment: (Debye Ang)
    XX:    -2.8452     YY:     1.4594     ZZ:     1.3857
    XY:    -0.3496     XZ:     0.8094     YZ:    -0.1799

  Mulliken Charges: (a.u.)
   Center  Symbol    Alpha    Beta     Spin     Total
       1     H     0.42319  0.42319  0.00000  0.15362
       2     O     4.28338  4.28338  0.00000 -0.56675
       3     C     3.07050  3.07050  0.00000 -0.14099
       4     C     3.19174  3.19174  0.00000 -0.38349
       5     H     0.38869  0.38869  0.00000  0.22263
       6     H     0.40933  0.40933  0.00000  0.18134
       7     C     3.14894  3.14894  0.00000 -0.29788
       8     H     0.41195  0.41195  0.00000  0.17610
       9     H     0.40463  0.40463  0.00000  0.19074
      10     C     3.14860  3.14860  0.00000 -0.29720
      11     H     0.41672  0.41672  0.00000  0.16656
      12     H     0.42265  0.42265  0.00000  0.15470
      13     C     3.16530  3.16530  0.00000 -0.33060
      14     H     0.42014  0.42014  0.00000  0.15971
      15     H     0.42733  0.42733  0.00000  0.14535
      16     C     3.10025  3.10025  0.00000 -0.20050
      17     H     0.39065  0.39065  0.00000  0.21870
      18     H     0.43843  0.43843  0.00000  0.12314
      19     C     3.15762  3.15762  0.00000 -0.31524
      20     H     0.37182  0.37182  0.00000  0.25636
      21     H     0.42430  0.42430  0.00000  0.15140
      22     C     3.25113  3.25113  0.00000 -0.50227
      23     H     0.43677  0.43677  0.00000  0.12645
      24     H     0.43696  0.43696  0.00000  0.12607
      25     H     0.42659  0.42659  0.00000  0.14681
      26     H     0.42001  0.42001  0.00000  0.15997
      27     H     0.41237  0.41237  0.00000  0.17525

   Total alpha = 37.00000, Total beta = 37.00000, Total charge =  0.00000


*** PSI4 exiting successfully. Buy a developer a beer!
