    -----------------------------------------------------------------------
          Psi4: An Open-Source Ab Initio Electronic Structure Package
                              Psi4 (no tag) Driver

                          Git: Rev {detached?}  

    J. M. Turney, A. C. Simmonett, R. M. Parrish, E. G. Hohenstein,
    F. A. Evangelista, J. T. Fermann, B. J. Mintz, L. A. Burns, J. J. Wilke,
    M. L. Abrams, N. J. Russ, M. L. Leininger, C. L. Janssen, E. T. Seidl,
    W. D. Allen, H. F. Schaefer, R. A. King, E. F. Valeev, C. D. Sherrill,
    and T. D. Crawford, WIREs Comput. Mol. Sci. 2, 556-565 (2012)
    (doi: 10.1002/wcms.93)

                         Additional Contributions by
    A. E. DePrince, M. Saitow, U. Bozkaya, A. Yu. Sokolov
    -----------------------------------------------------------------------


    Psi4 started on: Tue Jul  5 16:43:19 2016

    Process ID:  15914
    PSI4DATADIR: /export131/home/mjharvey/miniconda3/share
    Memory level set to 256.000 MB

  ==> Input File <==

--------------------------------------------------------------------------
set {
	reference rhf
	basis 6-31G*
}


set_num_threads( 1 )
memory 2 gb

molecule MOL {
0 1

H	 -2.494587	 -2.320187	 -0.001626
C	 -1.939773	 -1.400645	 -0.001012
C	 -2.589742	 -0.178153	 -0.000448
C	 -0.561625	 -1.426273	 -0.000686
H	 -3.664105	 -0.137093	 -0.000582
C	 -1.862804	 0.997555	 0.000367
H	 -0.029286	 -2.354385	 -0.000933
C	 0.155203	 -0.237107	 -0.000077
H	 -2.385750	 1.935970	 0.000987
C	 -0.469493	 1.014605	 0.000441
N	 1.611607	 -0.370918	 -0.000034
C	 0.223379	 2.359543	 0.001506
O	 2.274525	 0.621998	 -0.008063
O	 2.068909	 -1.474809	 0.007823
H	 0.851637	 2.483700	 -0.869703
H	 -0.523919	 3.143065	 0.005335
H	 0.856482	 2.479909	 0.869732

	symmetry c1
}
ee = energy('scf')
oeprop('DIPOLE', 'QUADRUPOLE', 'MULLIKEN_CHARGES')
oeprop('GRID_ESP')
f=open( 'psi4out.xyz', 'w' )
f.write( "17  " )
f.write( str(ee) + "\n" )
f.write( MOL.save_string_xyz() )
f.close()
--------------------------------------------------------------------------

  Memory set to   2.000 GiB by Python script.

*** tstart() called on cx1-3-4-1.cx1.hpc.ic.ac.uk
*** at Tue Jul  5 16:43:20 2016


         ---------------------------------------------------------
                                   SCF
            by Justin Turney, Rob Parrish, and Andy Simmonett
                              RHF Reference
                        1 Threads,   2000 MiB Core
         ---------------------------------------------------------

  ==> Geometry <==

    Molecular point group: c1
    Full point group: C1

    Geometry (in Angstrom), charge = 0, multiplicity = 1:

       Center              X                  Y                   Z               Mass       
    ------------   -----------------  -----------------  -----------------  -----------------
           H         -2.494986107671    -2.320125563302    -0.001626089271     1.007825032070
           C         -1.940172107671    -1.400583563302    -0.001012089271    12.000000000000
           C         -2.590141107671    -0.178091563302    -0.000448089271    12.000000000000
           C         -0.562024107671    -1.426211563302    -0.000686089271    12.000000000000
           H         -3.664504107671    -0.137031563302    -0.000582089271     1.007825032070
           C         -1.863203107671     0.997616436698     0.000366910729    12.000000000000
           H         -0.029685107671    -2.354323563302    -0.000933089271     1.007825032070
           C          0.154803892329    -0.237045563302    -0.000077089271    12.000000000000
           H         -2.386149107671     1.936031436698     0.000986910729     1.007825032070
           C         -0.469892107671     1.014666436698     0.000440910729    12.000000000000
           N          1.611207892329    -0.370856563302    -0.000034089271    14.003074004780
           C          0.222979892329     2.359604436698     0.001505910729    12.000000000000
           O          2.274125892329     0.622059436698    -0.008063089271    15.994914619560
           O          2.068509892329    -1.474747563302     0.007822910729    15.994914619560
           H          0.851237892329     2.483761436698    -0.869703089271     1.007825032070
           H         -0.524318107671     3.143126436698     0.005334910729     1.007825032070
           H          0.856082892329     2.479970436698     0.869731910729     1.007825032070

  Running in c1 symmetry.

  Rotational constants: A =      0.07607  B =      0.04310  C =      0.02765 [cm^-1]
  Rotational constants: A =   2280.59037  B =   1292.16114  C =    828.95461 [MHz]
  Nuclear repulsion =  509.735003607460840

  Charge       = 0
  Multiplicity = 1
  Electrons    = 72
  Nalpha       = 36
  Nbeta        = 36

  ==> Algorithm <==

  SCF Algorithm Type is DF.
  DIIS enabled.
  MOM disabled.
  Fractional occupation disabled.
  Guess Type is CORE.
  Energy threshold   = 1.00e-06
  Density threshold  = 1.00e-06
  Integral threshold = 0.00e+00

  ==> Primary Basis <==

  Basis Set: 6-31G*
    Number of shells: 74
    Number of basis function: 164
    Number of Cartesian functions: 164
    Spherical Harmonics?: false
    Max angular momentum: 2

  ==> Pre-Iterations <==

   -------------------------------------------------------
    Irrep   Nso     Nmo     Nalpha   Nbeta   Ndocc  Nsocc
   -------------------------------------------------------
     A        164     164       0       0       0       0
   -------------------------------------------------------
    Total     164     164      36      36      36       0
   -------------------------------------------------------

 OEINTS: Overlap, kinetic, potential, dipole, and quadrupole integrals
         stored in file 35.

  ==> Integral Setup <==

  ==> DFJK: Density-Fitted J/K Matrices <==

    J tasked:                  Yes
    K tasked:                  Yes
    wK tasked:                  No
    OpenMP threads:              1
    Integrals threads:           1
    Memory (MB):              1430
    Algorithm:                Core
    Integral Cache:           NONE
    Schwarz Cutoff:          1E-12
    Fitting Condition:       1E-12

   => Auxiliary Basis Set <=

  Basis Set: 
    Number of shells: 303
    Number of basis function: 985
    Number of Cartesian functions: 985
    Spherical Harmonics?: false
    Max angular momentum: 3

  Minimum eigenvalue in the overlap matrix is 3.7308556079E-04.
  Using Symmetric Orthogonalization.
  SCF Guess: Core (One-Electron) Hamiltonian.

  ==> Iterations <==

                           Total Energy        Delta E     RMS |[F,P]|

   @DF-RHF iter   1:  -358.89369190200114   -3.58894e+02   6.72453e-02 
   @DF-RHF iter   2:  -293.05184025245376    6.58419e+01   5.83801e-02 DIIS
   @DF-RHF iter   3:  -356.08634520026931   -6.30345e+01   6.03553e-02 DIIS
   @DF-RHF iter   4:  -444.93673249384960   -8.88504e+01   4.02263e-02 DIIS
   @DF-RHF iter   5:  -454.20122924702002   -9.26450e+00   3.20577e-02 DIIS
   @DF-RHF iter   6:  -471.06569865795245   -1.68645e+01   9.95624e-03 DIIS
   @DF-RHF iter   7:  -472.65482233708701   -1.58912e+00   5.93449e-03 DIIS
   @DF-RHF iter   8:  -473.17666867537059   -5.21846e-01   1.16516e-03 DIIS
   @DF-RHF iter   9:  -473.20118894045549   -2.45203e-02   5.02676e-04 DIIS
   @DF-RHF iter  10:  -473.20475251871937   -3.56358e-03   3.04493e-04 DIIS
   @DF-RHF iter  11:  -473.20621200417804   -1.45949e-03   1.07921e-04 DIIS
   @DF-RHF iter  12:  -473.20644249664997   -2.30492e-04   4.30532e-05 DIIS
   @DF-RHF iter  13:  -473.20648463425914   -4.21376e-05   1.29712e-05 DIIS
   @DF-RHF iter  14:  -473.20649087273819   -6.23848e-06   6.01721e-06 DIIS
   @DF-RHF iter  15:  -473.20649218840890   -1.31567e-06   2.84705e-06 DIIS
   @DF-RHF iter  16:  -473.20649244268725   -2.54278e-07   9.83412e-07 DIIS

  ==> Post-Iterations <==

    Orbital Energies (a.u.)
    -----------------------

    Doubly Occupied:                                                      

       1A    -20.597848     2A    -20.595675     3A    -15.853137  
       4A    -11.300902     5A    -11.283409     6A    -11.265581  
       7A    -11.264721     8A    -11.253698     9A    -11.252843  
      10A    -11.232547    11A     -1.631483    12A     -1.413224  
      13A     -1.199218    14A     -1.091217    15A     -1.071441  
      16A     -0.979748    17A     -0.930197    18A     -0.846093  
      19A     -0.823054    20A     -0.768453    21A     -0.731182  
      22A     -0.724837    23A     -0.692930    24A     -0.664481  
      25A     -0.637969    26A     -0.597610    27A     -0.588385  
      28A     -0.561303    29A     -0.541010    30A     -0.519783  
      31A     -0.518609    32A     -0.484295    33A     -0.475891  
      34A     -0.448091    35A     -0.370162    36A     -0.353406  

    Virtual:                                                              

      37A      0.063980    38A      0.123784    39A      0.176616  
      40A      0.225407    41A      0.258450    42A      0.278876  
      43A      0.304548    44A      0.312700    45A      0.314772  
      46A      0.338692    47A      0.381559    48A      0.391424  
      49A      0.403195    50A      0.457352    51A      0.478320  
      52A      0.497249    53A      0.531133    54A      0.534638  
      55A      0.607886    56A      0.677642    57A      0.700664  
      58A      0.711753    59A      0.727311    60A      0.749330  
      61A      0.770813    62A      0.793814    63A      0.799249  
      64A      0.809912    65A      0.821425    66A      0.827063  
      67A      0.841974    68A      0.853346    69A      0.890650  
      70A      0.896432    71A      0.919945    72A      0.949523  
      73A      0.980328    74A      0.985918    75A      1.035610  
      76A      1.055380    77A      1.076721    78A      1.083058  
      79A      1.091114    80A      1.103200    81A      1.147259  
      82A      1.150063    83A      1.169994    84A      1.184119  
      85A      1.203354    86A      1.230268    87A      1.257295  
      88A      1.258216    89A      1.276336    90A      1.296410  
      91A      1.308237    92A      1.312077    93A      1.319186  
      94A      1.390297    95A      1.448753    96A      1.477045  
      97A      1.489566    98A      1.534869    99A      1.559844  
     100A      1.618188   101A      1.629645   102A      1.636224  
     103A      1.676525   104A      1.703713   105A      1.704370  
     106A      1.725976   107A      1.745553   108A      1.758010  
     109A      1.893108   110A      1.985066   111A      2.000903  
     112A      2.045156   113A      2.060585   114A      2.095113  
     115A      2.115512   116A      2.117827   117A      2.137650  
     118A      2.197932   119A      2.220098   120A      2.244834  
     121A      2.264271   122A      2.279606   123A      2.289215  
     124A      2.356970   125A      2.388641   126A      2.440657  
     127A      2.457857   128A      2.464286   129A      2.469690  
     130A      2.499572   131A      2.540602   132A      2.548780  
     133A      2.599953   134A      2.600963   135A      2.635582  
     136A      2.704648   137A      2.718036   138A      2.807234  
     139A      2.902901   140A      2.904885   141A      2.957994  
     142A      2.963960   143A      2.974559   144A      3.061656  
     145A      3.090942   146A      3.099037   147A      3.126538  
     148A      3.197476   149A      3.274549   150A      3.293945  
     151A      3.321866   152A      3.499019   153A      3.627147  
     154A      3.823731   155A      4.201327   156A      4.348116  
     157A      4.503309   158A      4.506652   159A      4.528509  
     160A      4.547692   161A      4.687207   162A      4.776134  
     163A      4.815893   164A      5.140267  

    Final Occupation by Irrep:
              A 
    DOCC [    36 ]

  Energy converged.

  @DF-RHF Final Energy:  -473.20649244268725

   => Energetics <=

    Nuclear Repulsion Energy =            509.7350036074608397
    One-Electron Energy =               -1654.7542345083602413
    Two-Electron Energy =                 671.8127384582123796
    DFT Exchange-Correlation Energy =       0.0000000000000000
    Empirical Dispersion Energy =           0.0000000000000000
    PCM Polarization Energy =               0.0000000000000000
    EFP Energy =                            0.0000000000000000
    Total Energy =                       -473.2064924426870220

    Alert: EFP and PCM quantities not currently incorporated into SCF psivars.

Properties will be evaluated at   0.000000,   0.000000,   0.000000 Bohr
  ==> Properties <==


Properties computed using the SCF density matrix

  Nuclear Dipole Moment: (a.u.)
     X:    -6.9139      Y:     4.9013      Z:     0.0030

  Electronic Dipole Moment: (a.u.)
     X:     5.0342      Y:    -4.5870      Z:    -0.0033

  Dipole Moment: (a.u.)
     X:    -1.8797      Y:     0.3142      Z:    -0.0003     Total:     1.9058

  Dipole Moment: (Debye)
     X:    -4.7778      Y:     0.7987      Z:    -0.0008     Total:     4.8441


  Saving occupied orbitals to File 180.

*** tstop() called on cx1-3-4-1.cx1.hpc.ic.ac.uk at Tue Jul  5 16:43:41 2016
Module time:
	user time   =      20.94 seconds =       0.35 minutes
	system time =       0.24 seconds =       0.00 minutes
	total time  =         21 seconds =       0.35 minutes
Total time:
	user time   =      20.94 seconds =       0.35 minutes
	system time =       0.24 seconds =       0.00 minutes
	total time  =         21 seconds =       0.35 minutes


Properties will be evaluated at   0.000000,   0.000000,   0.000000 Bohr

Properties computed using the  density matrix

  Nuclear Dipole Moment: (a.u.)
     X:    -6.9139      Y:     4.9013      Z:     0.0030

  Electronic Dipole Moment: (a.u.)
     X:     5.0342      Y:    -4.5870      Z:    -0.0033

  Dipole Moment: (a.u.)
     X:    -1.8797      Y:     0.3142      Z:    -0.0003     Total:     1.9058

  Dipole Moment: (Debye)
     X:    -4.7778      Y:     0.7987      Z:    -0.0008     Total:     4.8441

  Quadrupole Moment: (Debye Ang)
    XX:   -61.4203     YY:   -53.7184     ZZ:   -59.1589
    XY:     2.4542     XZ:     0.0049     YZ:     0.0403

  Traceless Quadrupole Moment: (Debye Ang)
    XX:    -3.3211     YY:     4.3808     ZZ:    -1.0597
    XY:     2.4542     XZ:     0.0049     YZ:     0.0403

  Mulliken Charges: (a.u.)
   Center  Symbol    Alpha    Beta     Spin     Total
       1     H     0.38931  0.38931  0.00000  0.22138
       2     C     3.11182  3.11182  0.00000 -0.22365
       3     C     3.08023  3.08023  0.00000 -0.16047
       4     C     3.08445  3.08445  0.00000 -0.16889
       5     H     0.38935  0.38935  0.00000  0.22130
       6     C     3.12627  3.12627  0.00000 -0.25253
       7     H     0.36222  0.36222  0.00000  0.27556
       8     C     2.93781  2.93781  0.00000  0.12438
       9     H     0.39270  0.39270  0.00000  0.21459
      10     C     2.96283  2.96283  0.00000  0.07434
      11     N     3.24175  3.24175  0.00000  0.51650
      12     C     3.23511  3.23511  0.00000 -0.47021
      13     O     4.23804  4.23804  0.00000 -0.47609
      14     O     4.23743  4.23743  0.00000 -0.47486
      15     H     0.39758  0.39758  0.00000  0.20484
      16     H     0.41535  0.41535  0.00000  0.16931
      17     H     0.39774  0.39774  0.00000  0.20451

   Total alpha = 36.00000, Total beta = 36.00000, Total charge = -0.00000



Properties will be evaluated at   0.000000,   0.000000,   0.000000 Bohr

Properties computed using the  density matrix


 Electrostatic potential computed on the grid and written to grid_esp.dat

*** PSI4 exiting successfully. Buy a developer a beer!
