    -----------------------------------------------------------------------
          Psi4: An Open-Source Ab Initio Electronic Structure Package
                              Psi4 (no tag) Driver

                          Git: Rev {detached?}  

    J. M. Turney, A. C. Simmonett, R. M. Parrish, E. G. Hohenstein,
    F. A. Evangelista, J. T. Fermann, B. J. Mintz, L. A. Burns, J. J. Wilke,
    M. L. Abrams, N. J. Russ, M. L. Leininger, C. L. Janssen, E. T. Seidl,
    W. D. Allen, H. F. Schaefer, R. A. King, E. F. Valeev, C. D. Sherrill,
    and T. D. Crawford, WIREs Comput. Mol. Sci. 2, 556-565 (2012)
    (doi: 10.1002/wcms.93)

                         Additional Contributions by
    A. E. DePrince, M. Saitow, U. Bozkaya, A. Yu. Sokolov
    -----------------------------------------------------------------------


    Psi4 started on: Tue Jul  5 16:24:33 2016

    Process ID:  16670
    PSI4DATADIR: /export131/home/mjharvey/miniconda3/share
    Memory level set to 256.000 MB

  ==> Input File <==

--------------------------------------------------------------------------
set {
	reference rhf
	basis 6-31G*
}


set_num_threads( 1 )
memory 2 gb

molecule MOL {
0 1

H	 0.270428	 -1.393264	 -1.595162
N	 -0.635097	 -1.300471	 -1.176961
C	 -0.563778	 -0.502042	 0.037919
H	 -0.954837	 -2.227614	 -0.969768
C	 0.575259	 0.508231	 -0.048326
H	 -0.379745	 -1.178195	 0.867464
H	 -1.495719	 0.022884	 0.263049
C	 1.954651	 -0.143624	 0.035137
H	 0.475158	 1.060484	 -0.977307
H	 0.469181	 1.234488	 0.755973
H	 2.103292	 -0.853109	 -0.774172
H	 2.742821	 0.599562	 -0.030094
H	 2.083613	 -0.679371	 0.971560

	symmetry c1
}
set optking {
	frozen_dihedral = ("
		6 3 5 9
	")
}

ee = energy('scf')
oeprop('DIPOLE', 'QUADRUPOLE', 'MULLIKEN_CHARGES')
f=open( 'psi4out.xyz', 'w' )
f.write( "13  " )
f.write( str(ee) + "\n" )
f.write( MOL.save_string_xyz() )
f.close()
--------------------------------------------------------------------------

  Memory set to   2.000 GiB by Python script.

*** tstart() called on cx1-3-15-3.cx1.hpc.ic.ac.uk
*** at Tue Jul  5 16:24:33 2016


         ---------------------------------------------------------
                                   SCF
            by Justin Turney, Rob Parrish, and Andy Simmonett
                              RHF Reference
                        1 Threads,   2000 MiB Core
         ---------------------------------------------------------

  ==> Geometry <==

    Molecular point group: c1
    Full point group: C1

    Geometry (in Angstrom), charge = 0, multiplicity = 1:

       Center              X                  Y                   Z               Mass       
    ------------   -----------------  -----------------  -----------------  -----------------
           H         -0.069082096262    -0.998828886986    -1.295799063674     1.007825032070
           N         -0.974607096262    -0.906035886986    -0.877598063674    14.003074004780
           C         -0.903288096262    -0.107606886986     0.337281936326    12.000000000000
           H         -1.294347096262    -1.833178886986    -0.670405063674     1.007825032070
           C          0.235748903738     0.902666113014     0.251036936326    12.000000000000
           H         -0.719255096262    -0.783759886986     1.166826936326     1.007825032070
           H         -1.835229096262     0.417319113014     0.562411936326     1.007825032070
           C          1.615140903738     0.250811113014     0.334499936326    12.000000000000
           H          0.135647903738     1.454919113014    -0.677944063674     1.007825032070
           H          0.129670903738     1.628923113014     1.055335936326     1.007825032070
           H          1.763781903738    -0.458673886986    -0.474809063674     1.007825032070
           H          2.403310903738     0.993997113014     0.269268936326     1.007825032070
           H          1.744102903738    -0.284935886986     1.270922936326     1.007825032070

  Running in c1 symmetry.

  Rotational constants: A =      0.47026  B =      0.16641  C =      0.14237 [cm^-1]
  Rotational constants: A =  14098.02940  B =   4988.85989  C =   4268.05809 [MHz]
  Nuclear repulsion =  134.322712020339480

  Charge       = 0
  Multiplicity = 1
  Electrons    = 34
  Nalpha       = 17
  Nbeta        = 17

  ==> Algorithm <==

  SCF Algorithm Type is DF.
  DIIS enabled.
  MOM disabled.
  Fractional occupation disabled.
  Guess Type is CORE.
  Energy threshold   = 1.00e-06
  Density threshold  = 1.00e-06
  Integral threshold = 0.00e+00

  ==> Primary Basis <==

  Basis Set: 6-31G*
    Number of shells: 42
    Number of basis function: 78
    Number of Cartesian functions: 78
    Spherical Harmonics?: false
    Max angular momentum: 2

  ==> Pre-Iterations <==

   -------------------------------------------------------
    Irrep   Nso     Nmo     Nalpha   Nbeta   Ndocc  Nsocc
   -------------------------------------------------------
     A         78      78       0       0       0       0
   -------------------------------------------------------
    Total      78      78      17      17      17       0
   -------------------------------------------------------

 OEINTS: Overlap, kinetic, potential, dipole, and quadrupole integrals
         stored in file 35.

  ==> Integral Setup <==

  ==> DFJK: Density-Fitted J/K Matrices <==

    J tasked:                  Yes
    K tasked:                  Yes
    wK tasked:                  No
    OpenMP threads:              1
    Integrals threads:           1
    Memory (MB):              1430
    Algorithm:                Core
    Integral Cache:           NONE
    Schwarz Cutoff:          1E-12
    Fitting Condition:       1E-12

   => Auxiliary Basis Set <=

  Basis Set: 
    Number of shells: 177
    Number of basis function: 549
    Number of Cartesian functions: 549
    Spherical Harmonics?: false
    Max angular momentum: 3

  Minimum eigenvalue in the overlap matrix is 5.0860735011E-03.
  Using Symmetric Orthogonalization.
  SCF Guess: Core (One-Electron) Hamiltonian.

  ==> Iterations <==

                           Total Energy        Delta E     RMS |[F,P]|

   @DF-RHF iter   1:  -134.74598457533617   -1.34746e+02   8.60846e-02 
   @DF-RHF iter   2:  -102.72495966886274    3.20210e+01   7.97684e-02 DIIS
   @DF-RHF iter   3:  -148.84727119903246   -4.61223e+01   5.30794e-02 DIIS
   @DF-RHF iter   4:  -158.42828761578139   -9.58102e+00   5.27686e-02 DIIS
   @DF-RHF iter   5:  -173.01994827329193   -1.45917e+01   9.09630e-03 DIIS
   @DF-RHF iter   6:  -173.24370660676701   -2.23758e-01   3.31233e-03 DIIS
   @DF-RHF iter   7:  -173.27368619653126   -2.99796e-02   7.75789e-04 DIIS
   @DF-RHF iter   8:  -173.27605508076252   -2.36888e-03   1.37241e-04 DIIS
   @DF-RHF iter   9:  -173.27614970127630   -9.46205e-05   4.91836e-05 DIIS
   @DF-RHF iter  10:  -173.27616150937686   -1.18081e-05   1.44563e-05 DIIS
   @DF-RHF iter  11:  -173.27616265552112   -1.14614e-06   4.75263e-06 DIIS
   @DF-RHF iter  12:  -173.27616275330777   -9.77867e-08   1.67992e-06 DIIS
   @DF-RHF iter  13:  -173.27616276724561   -1.39378e-08   3.74825e-07 DIIS

  ==> Post-Iterations <==

    Orbital Energies (a.u.)
    -----------------------

    Doubly Occupied:                                                      

       1A    -15.529616     2A    -11.239882     3A    -11.217848  
       4A    -11.214878     5A     -1.178246     6A     -1.035247  
       7A     -0.909019     8A     -0.797030     9A     -0.667503  
      10A     -0.630734    11A     -0.592239    12A     -0.569092  
      13A     -0.552903    14A     -0.490850    15A     -0.483361  
      16A     -0.470784    17A     -0.375751  

    Virtual:                                                              

      18A      0.222325    19A      0.260976    20A      0.271284  
      21A      0.296539    22A      0.317535    23A      0.325411  
      24A      0.336773    25A      0.357422    26A      0.381302  
      27A      0.395543    28A      0.444485    29A      0.477391  
      30A      0.715473    31A      0.736205    32A      0.759526  
      33A      0.780260    34A      0.813933    35A      0.904655  
      36A      0.935481    37A      0.974267    38A      1.010386  
      39A      1.028711    40A      1.112575    41A      1.145104  
      42A      1.154174    43A      1.161370    44A      1.186734  
      45A      1.199323    46A      1.218082    47A      1.239873  
      48A      1.245646    49A      1.274172    50A      1.296394  
      51A      1.312071    52A      1.465183    53A      1.693866  
      54A      1.710292    55A      1.779451    56A      1.914856  
      57A      1.970123    58A      2.060176    59A      2.184989  
      60A      2.258078    61A      2.280511    62A      2.331856  
      63A      2.369338    64A      2.460019    65A      2.508893  
      66A      2.558366    67A      2.633484    68A      2.693969  
      69A      2.724325    70A      2.787337    71A      2.906192  
      72A      2.965835    73A      3.007282    74A      3.114194  
      75A      4.224373    76A      4.593643    77A      4.776453  
      78A      4.922576  

    Final Occupation by Irrep:
              A 
    DOCC [    17 ]

  Energy converged.

  @DF-RHF Final Energy:  -173.27616276724561

   => Energetics <=

    Nuclear Repulsion Energy =            134.3227120203394804
    One-Electron Energy =                -499.2876970874592644
    Two-Electron Energy =                 191.6888222998742322
    DFT Exchange-Correlation Energy =       0.0000000000000000
    Empirical Dispersion Energy =           0.0000000000000000
    PCM Polarization Energy =               0.0000000000000000
    EFP Energy =                            0.0000000000000000
    Total Energy =                       -173.2761627672455234

    Alert: EFP and PCM quantities not currently incorporated into SCF psivars.

Properties will be evaluated at   0.000000,   0.000000,   0.000000 Bohr
  ==> Properties <==


Properties computed using the SCF density matrix

  Nuclear Dipole Moment: (a.u.)
     X:     2.1202      Y:     0.1299      Z:     1.1330

  Electronic Dipole Moment: (a.u.)
     X:    -1.7124      Y:    -0.3648      Z:    -0.7469

  Dipole Moment: (a.u.)
     X:     0.4078      Y:    -0.2348      Z:     0.3860     Total:     0.6086

  Dipole Moment: (Debye)
     X:     1.0365      Y:    -0.5969      Z:     0.9812     Total:     1.5470


  Saving occupied orbitals to File 180.

*** tstop() called on cx1-3-15-3.cx1.hpc.ic.ac.uk at Tue Jul  5 16:24:37 2016
Module time:
	user time   =       2.95 seconds =       0.05 minutes
	system time =       0.02 seconds =       0.00 minutes
	total time  =          4 seconds =       0.07 minutes
Total time:
	user time   =       2.95 seconds =       0.05 minutes
	system time =       0.02 seconds =       0.00 minutes
	total time  =          4 seconds =       0.07 minutes


Properties will be evaluated at   0.000000,   0.000000,   0.000000 Bohr

Properties computed using the  density matrix

  Nuclear Dipole Moment: (a.u.)
     X:     2.1202      Y:     0.1299      Z:     1.1330

  Electronic Dipole Moment: (a.u.)
     X:    -1.7124      Y:    -0.3648      Z:    -0.7469

  Dipole Moment: (a.u.)
     X:     0.4078      Y:    -0.2348      Z:     0.3860     Total:     0.6086

  Dipole Moment: (Debye)
     X:     1.0365      Y:    -0.5969      Z:     0.9812     Total:     1.5470

  Quadrupole Moment: (Debye Ang)
    XX:   -29.3649     YY:   -24.8456     ZZ:   -29.1327
    XY:     0.3642     XZ:    -2.9250     YZ:     0.3614

  Traceless Quadrupole Moment: (Debye Ang)
    XX:    -1.5838     YY:     2.9355     ZZ:    -1.3516
    XY:     0.3642     XZ:    -2.9250     YZ:     0.3614

  Mulliken Charges: (a.u.)
   Center  Symbol    Alpha    Beta     Spin     Total
       1     H     0.33062  0.33062  0.00000  0.33876
       2     N     3.92709  3.92709  0.00000 -0.85418
       3     C     3.05180  3.05180  0.00000 -0.10360
       4     H     0.33330  0.33330  0.00000  0.33340
       5     C     3.16737  3.16737  0.00000 -0.33474
       6     H     0.43411  0.43411  0.00000  0.13178
       7     H     0.41890  0.41890  0.00000  0.16220
       8     C     3.24236  3.24236  0.00000 -0.48473
       9     H     0.41342  0.41342  0.00000  0.17315
      10     H     0.41895  0.41895  0.00000  0.16209
      11     H     0.42646  0.42646  0.00000  0.14708
      12     H     0.41598  0.41598  0.00000  0.16804
      13     H     0.41963  0.41963  0.00000  0.16075

   Total alpha = 17.00000, Total beta = 17.00000, Total charge = -0.00000


*** PSI4 exiting successfully. Buy a developer a beer!
