    -----------------------------------------------------------------------
          Psi4: An Open-Source Ab Initio Electronic Structure Package
                              Psi4 (no tag) Driver

                          Git: Rev {detached?}  

    J. M. Turney, A. C. Simmonett, R. M. Parrish, E. G. Hohenstein,
    F. A. Evangelista, J. T. Fermann, B. J. Mintz, L. A. Burns, J. J. Wilke,
    M. L. Abrams, N. J. Russ, M. L. Leininger, C. L. Janssen, E. T. Seidl,
    W. D. Allen, H. F. Schaefer, R. A. King, E. F. Valeev, C. D. Sherrill,
    and T. D. Crawford, WIREs Comput. Mol. Sci. 2, 556-565 (2012)
    (doi: 10.1002/wcms.93)

                         Additional Contributions by
    A. E. DePrince, M. Saitow, U. Bozkaya, A. Yu. Sokolov
    -----------------------------------------------------------------------


    Psi4 started on: Tue Jul  5 17:51:04 2016

    Process ID:   2669
    PSI4DATADIR: /export131/home/mjharvey/miniconda3/share
    Memory level set to 256.000 MB

  ==> Input File <==

--------------------------------------------------------------------------
set {
	reference rhf
	basis 6-31G*
}


set_num_threads( 1 )
memory 2 gb

molecule MOL {
0 1

H	 -3.457960	 0.166880	 1.449720
O	 -3.367910	 -0.300316	 2.267454
C	 -3.043259	 -1.643282	 2.012310
C	 -1.609705	 -1.833855	 1.529264
H	 -3.184960	 -2.163733	 2.950780
H	 -3.740919	 -2.074362	 1.295219
C	 -0.566622	 -1.090240	 2.367049
H	 -1.385145	 -2.897308	 1.526807
H	 -1.552172	 -1.495047	 0.496178
C	 -0.667521	 0.430895	 2.222873
H	 0.426780	 -1.417458	 2.073034
H	 -0.687327	 -1.358278	 3.416776
C	 -2.087810	 0.996018	 2.340165
H	 -0.029363	 0.904123	 2.966954
H	 -0.263320	 0.714188	 1.253302
C	 -3.034785	 0.600176	 1.203932
H	 -2.514385	 0.655558	 3.281407
H	 -2.038225	 2.081812	 2.406712
C	 -4.465221	 1.099239	 1.418936
H	 -3.044660	 -0.484477	 1.106250
H	 -2.666261	 0.987989	 0.257311
C	 -5.411106	 0.710962	 0.283063
H	 -4.847259	 0.703375	 2.357459
H	 -4.456195	 2.181939	 1.526468
H	 -5.467273	 -0.368187	 0.171231
H	 -6.416738	 1.077069	 0.465559
H	 -5.076338	 1.123259	 -0.664726

	symmetry c1
}
set optking {
	frozen_dihedral = ("
		14 10 7 4,
		14 10 13 16,
		10 7 4 8,
		10 13 16 20,
		20 16 19 22,
		4 3 2 1
	")
}

ee = energy('scf')
oeprop('DIPOLE', 'QUADRUPOLE', 'MULLIKEN_CHARGES')
f=open( 'psi4out.xyz', 'w' )
f.write( "27  " )
f.write( str(ee) + "\n" )
f.write( MOL.save_string_xyz() )
f.close()
--------------------------------------------------------------------------

  Memory set to   2.000 GiB by Python script.

*** tstart() called on cx1-3-4-2.cx1.hpc.ic.ac.uk
*** at Tue Jul  5 17:51:05 2016


         ---------------------------------------------------------
                                   SCF
            by Justin Turney, Rob Parrish, and Andy Simmonett
                              RHF Reference
                        1 Threads,   2000 MiB Core
         ---------------------------------------------------------

  ==> Geometry <==

    Molecular point group: c1
    Full point group: C1

    Geometry (in Angstrom), charge = 0, multiplicity = 1:

       Center              X                  Y                   Z               Mass       
    ------------   -----------------  -----------------  -----------------  -----------------
           H         -0.727750549628     0.283990320195    -0.281986970428     1.007825032070
           O         -0.637700549628    -0.183205679805     0.535747029572    15.994914619560
           C         -0.313049549628    -1.526171679805     0.280603029572    12.000000000000
           C          1.120504450372    -1.716744679805    -0.202442970428    12.000000000000
           H         -0.454750549628    -2.046622679805     1.219073029572     1.007825032070
           H         -1.010709549628    -1.957251679805    -0.436487970428     1.007825032070
           C          2.163587450372    -0.973129679805     0.635342029572    12.000000000000
           H          1.345064450372    -2.780197679805    -0.204899970428     1.007825032070
           H          1.178037450372    -1.377936679805    -1.235528970428     1.007825032070
           C          2.062688450372     0.548005320195     0.491166029572    12.000000000000
           H          3.156989450372    -1.300347679805     0.341327029572     1.007825032070
           H          2.042882450372    -1.241167679805     1.685069029572     1.007825032070
           C          0.642399450372     1.113128320195     0.608458029572    12.000000000000
           H          2.700846450372     1.021233320195     1.235247029572     1.007825032070
           H          2.466889450372     0.831298320195    -0.478404970428     1.007825032070
           C         -0.304575549628     0.717286320195    -0.527774970428    12.000000000000
           H          0.215824450372     0.772668320195     1.549700029572     1.007825032070
           H          0.691984450372     2.198922320195     0.675005029572     1.007825032070
           C         -1.735011549628     1.216349320195    -0.312770970428    12.000000000000
           H         -0.314450549628    -0.367366679805    -0.625456970428     1.007825032070
           H          0.063948450372     1.105099320195    -1.474395970428     1.007825032070
           C         -2.680896549628     0.828072320195    -1.448643970428    12.000000000000
           H         -2.117049549628     0.820485320195     0.625752029572     1.007825032070
           H         -1.725985549628     2.299049320195    -0.205238970428     1.007825032070
           H         -2.737063549628    -0.251076679805    -1.560475970428     1.007825032070
           H         -3.686528549628     1.194179320195    -1.266147970428     1.007825032070
           H         -2.346128549628     1.240369320195    -2.396432970428     1.007825032070

  Running in c1 symmetry.

  Rotational constants: A =      0.10153  B =      0.03883  C =      0.03212 [cm^-1]
  Rotational constants: A =   3043.81065  B =   1164.06497  C =    963.07766 [MHz]
  Nuclear repulsion =  556.908072800330842

  Charge       = 0
  Multiplicity = 1
  Electrons    = 74
  Nalpha       = 37
  Nbeta        = 37

  ==> Algorithm <==

  SCF Algorithm Type is DF.
  DIIS enabled.
  MOM disabled.
  Fractional occupation disabled.
  Guess Type is CORE.
  Energy threshold   = 1.00e-06
  Density threshold  = 1.00e-06
  Integral threshold = 0.00e+00

  ==> Primary Basis <==

  Basis Set: 6-31G*
    Number of shells: 90
    Number of basis function: 171
    Number of Cartesian functions: 171
    Spherical Harmonics?: false
    Max angular momentum: 2

  ==> Pre-Iterations <==

   -------------------------------------------------------
    Irrep   Nso     Nmo     Nalpha   Nbeta   Ndocc  Nsocc
   -------------------------------------------------------
     A        171     171       0       0       0       0
   -------------------------------------------------------
    Total     171     171      37      37      37       0
   -------------------------------------------------------

 OEINTS: Overlap, kinetic, potential, dipole, and quadrupole integrals
         stored in file 35.

  ==> Integral Setup <==

  ==> DFJK: Density-Fitted J/K Matrices <==

    J tasked:                  Yes
    K tasked:                  Yes
    wK tasked:                  No
    OpenMP threads:              1
    Integrals threads:           1
    Memory (MB):              1430
    Algorithm:                Core
    Integral Cache:           NONE
    Schwarz Cutoff:          1E-12
    Fitting Condition:       1E-12

   => Auxiliary Basis Set <=

  Basis Set: 
    Number of shells: 378
    Number of basis function: 1179
    Number of Cartesian functions: 1179
    Spherical Harmonics?: false
    Max angular momentum: 3

  Minimum eigenvalue in the overlap matrix is 7.4915935957E-04.
  Using Symmetric Orthogonalization.
  SCF Guess: Core (One-Electron) Hamiltonian.

  ==> Iterations <==

                           Total Energy        Delta E     RMS |[F,P]|

   @DF-RHF iter   1:  -221.30142479679500   -2.21301e+02   7.83505e-02 
   @DF-RHF iter   2:  -229.90856191704790   -8.60714e+00   5.40707e-02 DIIS
   @DF-RHF iter   3:  -309.03942797299283   -7.91309e+01   5.11108e-02 DIIS
   @DF-RHF iter   4:  -366.62435818522931   -5.75849e+01   2.70509e-02 DIIS
   @DF-RHF iter   5:  -332.10513141727824    3.45192e+01   4.13480e-02 DIIS
   @DF-RHF iter   6:  -386.51787383045576   -5.44127e+01   6.11324e-03 DIIS
   @DF-RHF iter   7:  -386.91901606073645   -4.01142e-01   3.31897e-03 DIIS
   @DF-RHF iter   8:  -387.04225842285632   -1.23242e-01   1.46696e-03 DIIS
   @DF-RHF iter   9:  -387.08041128448463   -3.81529e-02   3.56324e-04 DIIS
   @DF-RHF iter  10:  -387.08246812279356   -2.05684e-03   1.13032e-04 DIIS
   @DF-RHF iter  11:  -387.08267949141748   -2.11369e-04   3.43499e-05 DIIS
   @DF-RHF iter  12:  -387.08271184562636   -3.23542e-05   1.20302e-05 DIIS
   @DF-RHF iter  13:  -387.08271665172754   -4.80610e-06   3.53922e-06 DIIS
   @DF-RHF iter  14:  -387.08271724067890   -5.88951e-07   1.63803e-06 DIIS
   @DF-RHF iter  15:  -387.08271739424856   -1.53570e-07   6.13006e-07 DIIS

  ==> Post-Iterations <==

    Orbital Energies (a.u.)
    -----------------------

    Doubly Occupied:                                                      

       1A    -20.479170     2A    -11.275602     3A    -11.258509  
       4A    -11.235871     5A    -11.223717     6A    -11.218877  
       7A    -11.215522     8A    -11.206080     9A    -11.184406  
      10A     -1.638892    11A     -1.152787    12A     -1.073766  
      13A     -1.028659    14A     -0.992723    15A     -0.918139  
      16A     -0.885570    17A     -0.853035    18A     -0.772996  
      19A     -0.733993    20A     -0.686314    21A     -0.668868  
      22A     -0.633873    23A     -0.612690    24A     -0.601786  
      25A     -0.581666    26A     -0.562483    27A     -0.550991  
      28A     -0.542087    29A     -0.510365    30A     -0.499967  
      31A     -0.488256    32A     -0.465210    33A     -0.460278  
      34A     -0.445499    35A     -0.424022    36A     -0.342310  
      37A     -0.239883  

    Virtual:                                                              

      38A      0.221358    39A      0.231614    40A      0.251248  
      41A      0.265788    42A      0.276388    43A      0.301308  
      44A      0.306343    45A      0.308703    46A      0.311975  
      47A      0.315930    48A      0.325780    49A      0.338806  
      50A      0.344221    51A      0.359239    52A      0.360200  
      53A      0.375816    54A      0.382778    55A      0.389815  
      56A      0.410365    57A      0.421480    58A      0.438688  
      59A      0.443914    60A      0.473513    61A      0.491927  
      62A      0.503631    63A      0.579645    64A      0.667501  
      65A      0.709241    66A      0.713794    67A      0.745777  
      68A      0.756168    69A      0.773221    70A      0.784664  
      71A      0.818639    72A      0.822632    73A      0.868950  
      74A      0.889083    75A      0.900039    76A      0.914524  
      77A      0.946429    78A      0.960939    79A      0.995419  
      80A      1.005044    81A      1.036005    82A      1.044212  
      83A      1.084120    84A      1.093974    85A      1.102665  
      86A      1.132308    87A      1.134760    88A      1.141804  
      89A      1.157195    90A      1.164481    91A      1.168791  
      92A      1.180510    93A      1.189210    94A      1.207170  
      95A      1.208056    96A      1.220298    97A      1.236283  
      98A      1.239476    99A      1.262328   100A      1.266270  
     101A      1.281478   102A      1.289198   103A      1.323429  
     104A      1.341345   105A      1.442953   106A      1.471688  
     107A      1.495987   108A      1.567116   109A      1.579307  
     110A      1.637708   111A      1.669086   112A      1.713145  
     113A      1.778409   114A      1.789136   115A      1.814500  
     116A      1.834675   117A      1.892055   118A      1.920110  
     119A      1.964231   120A      1.999263   121A      2.033470  
     122A      2.079411   123A      2.135089   124A      2.190101  
     125A      2.200786   126A      2.221588   127A      2.243318  
     128A      2.262643   129A      2.276865   130A      2.301063  
     131A      2.317208   132A      2.331914   133A      2.355515  
     134A      2.396814   135A      2.415201   136A      2.447888  
     137A      2.486500   138A      2.524794   139A      2.558684  
     140A      2.579908   141A      2.631159   142A      2.668769  
     143A      2.676902   144A      2.695453   145A      2.721850  
     146A      2.746252   147A      2.757626   148A      2.768535  
     149A      2.796695   150A      2.821532   151A      2.845017  
     152A      2.891637   153A      2.913465   154A      2.999243  
     155A      3.011152   156A      3.038594   157A      3.132794  
     158A      3.157068   159A      3.170107   160A      3.285662  
     161A      3.473450   162A      4.554765   163A      4.592650  
     164A      4.656486   165A      4.734276   166A      4.835078  
     167A      4.892836   168A      4.938100   169A      5.025128  
     170A      5.044562   171A      5.153032  

    Final Occupation by Irrep:
              A 
    DOCC [    37 ]

  Energy converged.

  @DF-RHF Final Energy:  -387.08271739424856

   => Energetics <=

    Nuclear Repulsion Energy =            556.9080728003308423
    One-Electron Energy =               -1628.6518949450673972
    Two-Electron Energy =                 684.6611047504898124
    DFT Exchange-Correlation Energy =       0.0000000000000000
    Empirical Dispersion Energy =           0.0000000000000000
    PCM Polarization Energy =               0.0000000000000000
    EFP Energy =                            0.0000000000000000
    Total Energy =                       -387.0827173942466288

    Alert: EFP and PCM quantities not currently incorporated into SCF psivars.

Properties will be evaluated at   0.000000,   0.000000,   0.000000 Bohr
  ==> Properties <==


Properties computed using the SCF density matrix

  Nuclear Dipole Moment: (a.u.)
     X:    -1.1824      Y:     0.4166      Z:    -2.6545

  Electronic Dipole Moment: (a.u.)
     X:     0.8550      Y:    -1.0980      Z:     2.6716

  Dipole Moment: (a.u.)
     X:    -0.3274      Y:    -0.6814      Z:     0.0171     Total:     0.7562

  Dipole Moment: (Debye)
     X:    -0.8322      Y:    -1.7320      Z:     0.0434     Total:     1.9220


  Saving occupied orbitals to File 180.

*** tstop() called on cx1-3-4-2.cx1.hpc.ic.ac.uk at Tue Jul  5 17:51:36 2016
Module time:
	user time   =      31.17 seconds =       0.52 minutes
	system time =       0.29 seconds =       0.00 minutes
	total time  =         31 seconds =       0.52 minutes
Total time:
	user time   =      31.17 seconds =       0.52 minutes
	system time =       0.29 seconds =       0.00 minutes
	total time  =         31 seconds =       0.52 minutes


Properties will be evaluated at   0.000000,   0.000000,   0.000000 Bohr

Properties computed using the  density matrix

  Nuclear Dipole Moment: (a.u.)
     X:    -1.1824      Y:     0.4166      Z:    -2.6545

  Electronic Dipole Moment: (a.u.)
     X:     0.8550      Y:    -1.0980      Z:     2.6716

  Dipole Moment: (a.u.)
     X:    -0.3274      Y:    -0.6814      Z:     0.0171     Total:     0.7562

  Dipole Moment: (Debye)
     X:    -0.8322      Y:    -1.7320      Z:     0.0434     Total:     1.9220

  Quadrupole Moment: (Debye Ang)
    XX:   -58.3823     YY:   -59.0369     ZZ:   -62.0977
    XY:    -1.9273     XZ:     1.0131     YZ:     0.1894

  Traceless Quadrupole Moment: (Debye Ang)
    XX:     1.4566     YY:     0.8021     ZZ:    -2.2587
    XY:    -1.9273     XZ:     1.0131     YZ:     0.1894

  Mulliken Charges: (a.u.)
   Center  Symbol    Alpha    Beta     Spin     Total
       1     H     0.29321  0.29321  0.00000  0.41359
       2     O     4.31479  4.31479  0.00000 -0.62958
       3     C     3.06980  3.06980  0.00000 -0.13960
       4     C     3.18855  3.18855  0.00000 -0.37710
       5     H     0.39027  0.39027  0.00000  0.21945
       6     H     0.41083  0.41083  0.00000  0.17834
       7     C     3.15129  3.15129  0.00000 -0.30258
       8     H     0.41325  0.41325  0.00000  0.17350
       9     H     0.40444  0.40444  0.00000  0.19113
      10     C     3.15047  3.15047  0.00000 -0.30094
      11     H     0.41655  0.41655  0.00000  0.16691
      12     H     0.42363  0.42363  0.00000  0.15274
      13     C     3.15685  3.15685  0.00000 -0.31370
      14     H     0.41959  0.41959  0.00000  0.16083
      15     H     0.42343  0.42343  0.00000  0.15314
      16     C     3.17903  3.17903  0.00000 -0.35806
      17     H     0.39668  0.39668  0.00000  0.20663
      18     H     0.44468  0.44468  0.00000  0.11063
      19     C     3.17672  3.17672  0.00000 -0.35345
      20     H     0.40749  0.40749  0.00000  0.18502
      21     H     0.49438  0.49438  0.00000  0.01124
      22     C     3.24728  3.24728  0.00000 -0.49456
      23     H     0.37732  0.37732  0.00000  0.24535
      24     H     0.40614  0.40614  0.00000  0.18771
      25     H     0.41882  0.41882  0.00000  0.16236
      26     H     0.41395  0.41395  0.00000  0.17211
      27     H     0.41056  0.41056  0.00000  0.17888

   Total alpha = 37.00000, Total beta = 37.00000, Total charge =  0.00000


*** PSI4 exiting successfully. Buy a developer a beer!
