    -----------------------------------------------------------------------
          Psi4: An Open-Source Ab Initio Electronic Structure Package
                              Psi4 (no tag) Driver

                          Git: Rev {detached?}  

    J. M. Turney, A. C. Simmonett, R. M. Parrish, E. G. Hohenstein,
    F. A. Evangelista, J. T. Fermann, B. J. Mintz, L. A. Burns, J. J. Wilke,
    M. L. Abrams, N. J. Russ, M. L. Leininger, C. L. Janssen, E. T. Seidl,
    W. D. Allen, H. F. Schaefer, R. A. King, E. F. Valeev, C. D. Sherrill,
    and T. D. Crawford, WIREs Comput. Mol. Sci. 2, 556-565 (2012)
    (doi: 10.1002/wcms.93)

                         Additional Contributions by
    A. E. DePrince, M. Saitow, U. Bozkaya, A. Yu. Sokolov
    -----------------------------------------------------------------------


    Psi4 started on: Tue Jul  5 16:35:01 2016

    Process ID:  17863
    PSI4DATADIR: /export131/home/mjharvey/miniconda3/share
    Memory level set to 256.000 MB

  ==> Input File <==

--------------------------------------------------------------------------
set {
	reference rhf
	basis 6-31G*
}


set_num_threads( 1 )
memory 2 gb

molecule MOL {
0 1

H	 1.470084	 2.230244	 -1.028978
N	 1.449140	 1.245334	 -1.210713
C	 1.267428	 0.496480	 0.024474
H	 2.325354	 1.011104	 -1.637679
C	 -0.016086	 -0.325158	 -0.029487
H	 1.200461	 1.212940	 0.837637
H	 2.109120	 -0.161270	 0.255341
C	 -1.282277	 0.529072	 0.046735
H	 -0.012495	 -0.908639	 -0.945788
H	 -0.015903	 -1.041248	 0.791956
C	 -1.313422	 1.640626	 -1.001683
H	 -1.361066	 0.968841	 1.038895
H	 -2.157618	 -0.105503	 -0.075938
H	 -0.469051	 2.313549	 -0.883644
H	 -2.221045	 2.230972	 -0.922727
H	 -1.270971	 1.231908	 -2.007351

	symmetry c1
}
set optking {
	frozen_dihedral = ("
		6 3 5 9,
		12 8 5 9
	")
}

ee = energy('scf')
oeprop('DIPOLE', 'QUADRUPOLE', 'MULLIKEN_CHARGES')
f=open( 'psi4out.xyz', 'w' )
f.write( "16  " )
f.write( str(ee) + "\n" )
f.write( MOL.save_string_xyz() )
f.close()
--------------------------------------------------------------------------

  Memory set to   2.000 GiB by Python script.

*** tstart() called on cx1-3-16-4.cx1.hpc.ic.ac.uk
*** at Tue Jul  5 16:35:02 2016


         ---------------------------------------------------------
                                   SCF
            by Justin Turney, Rob Parrish, and Andy Simmonett
                              RHF Reference
                        1 Threads,   2000 MiB Core
         ---------------------------------------------------------

  ==> Geometry <==

    Molecular point group: c1
    Full point group: C1

    Geometry (in Angstrom), charge = 0, multiplicity = 1:

       Center              X                  Y                   Z               Mass       
    ------------   -----------------  -----------------  -----------------  -----------------
           H          1.418724171748     1.483430907942    -0.576279655787     1.007825032070
           N          1.397780171748     0.498520907942    -0.758014655787    14.003074004780
           C          1.216068171748    -0.250333092058     0.477172344213    12.000000000000
           H          2.273994171748     0.264290907942    -1.184980655787     1.007825032070
           C         -0.067445828252    -1.071971092058     0.423211344213    12.000000000000
           H          1.149101171748     0.466126907942     1.290335344213     1.007825032070
           H          2.057760171748    -0.908083092058     0.708039344213     1.007825032070
           C         -1.333636828252    -0.217741092058     0.499433344213    12.000000000000
           H         -0.063854828252    -1.655452092058    -0.493089655787     1.007825032070
           H         -0.067262828252    -1.788061092058     1.244654344213     1.007825032070
           C         -1.364781828252     0.893812907942    -0.548984655787    12.000000000000
           H         -1.412425828252     0.222027907942     1.491593344213     1.007825032070
           H         -2.208977828252    -0.852316092058     0.376760344213     1.007825032070
           H         -0.520410828252     1.566735907942    -0.430945655787     1.007825032070
           H         -2.272404828252     1.484158907942    -0.470028655787     1.007825032070
           H         -1.322330828252     0.485094907942    -1.554652655787     1.007825032070

  Running in c1 symmetry.

  Rotational constants: A =      0.23135  B =      0.13194  C =      0.09442 [cm^-1]
  Rotational constants: A =   6935.76490  B =   3955.31246  C =   2830.61385 [MHz]
  Nuclear repulsion =  196.077074633636670

  Charge       = 0
  Multiplicity = 1
  Electrons    = 42
  Nalpha       = 21
  Nbeta        = 21

  ==> Algorithm <==

  SCF Algorithm Type is DF.
  DIIS enabled.
  MOM disabled.
  Fractional occupation disabled.
  Guess Type is CORE.
  Energy threshold   = 1.00e-06
  Density threshold  = 1.00e-06
  Integral threshold = 0.00e+00

  ==> Primary Basis <==

  Basis Set: 6-31G*
    Number of shells: 52
    Number of basis function: 97
    Number of Cartesian functions: 97
    Spherical Harmonics?: false
    Max angular momentum: 2

  ==> Pre-Iterations <==

   -------------------------------------------------------
    Irrep   Nso     Nmo     Nalpha   Nbeta   Ndocc  Nsocc
   -------------------------------------------------------
     A         97      97       0       0       0       0
   -------------------------------------------------------
    Total      97      97      21      21      21       0
   -------------------------------------------------------

 OEINTS: Overlap, kinetic, potential, dipole, and quadrupole integrals
         stored in file 35.

  ==> Integral Setup <==

  ==> DFJK: Density-Fitted J/K Matrices <==

    J tasked:                  Yes
    K tasked:                  Yes
    wK tasked:                  No
    OpenMP threads:              1
    Integrals threads:           1
    Memory (MB):              1430
    Algorithm:                Core
    Integral Cache:           NONE
    Schwarz Cutoff:          1E-12
    Fitting Condition:       1E-12

   => Auxiliary Basis Set <=

  Basis Set: 
    Number of shells: 219
    Number of basis function: 680
    Number of Cartesian functions: 680
    Spherical Harmonics?: false
    Max angular momentum: 3

  Minimum eigenvalue in the overlap matrix is 4.9635226319E-03.
  Using Symmetric Orthogonalization.
  SCF Guess: Core (One-Electron) Hamiltonian.

  ==> Iterations <==

                           Total Energy        Delta E     RMS |[F,P]|

   @DF-RHF iter   1:  -164.12831835405908   -1.64128e+02   7.73908e-02 
   @DF-RHF iter   2:  -128.20192387152949    3.59264e+01   6.80211e-02 DIIS
   @DF-RHF iter   3:  -175.38408300707485   -4.71822e+01   5.02758e-02 DIIS
   @DF-RHF iter   4:  -192.46270272661380   -1.70786e+01   5.17886e-02 DIIS
   @DF-RHF iter   5:  -211.92763413816405   -1.94649e+01   8.60660e-03 DIIS
   @DF-RHF iter   6:  -212.25938230760320   -3.31748e-01   2.93299e-03 DIIS
   @DF-RHF iter   7:  -212.29802615529704   -3.86438e-02   8.15570e-04 DIIS
   @DF-RHF iter   8:  -212.30185960717952   -3.83345e-03   1.85903e-04 DIIS
   @DF-RHF iter   9:  -212.30214136686729   -2.81760e-04   4.20014e-05 DIIS
   @DF-RHF iter  10:  -212.30215579929981   -1.44324e-05   1.39042e-05 DIIS
   @DF-RHF iter  11:  -212.30215775082732   -1.95153e-06   5.36228e-06 DIIS
   @DF-RHF iter  12:  -212.30215795415879   -2.03331e-07   2.09467e-06 DIIS
   @DF-RHF iter  13:  -212.30215798957462   -3.54158e-08   5.14654e-07 DIIS

  ==> Post-Iterations <==

    Orbital Energies (a.u.)
    -----------------------

    Doubly Occupied:                                                      

       1A    -15.531190     2A    -11.241127     3A    -11.206443  
       4A    -11.203004     5A    -11.191665     6A     -1.180372  
       7A     -1.048614     8A     -0.953831     9A     -0.848512  
      10A     -0.769492    11A     -0.680693    12A     -0.635262  
      13A     -0.602539    14A     -0.564546    15A     -0.539180  
      16A     -0.521833    17A     -0.509146    18A     -0.468421  
      19A     -0.457589    20A     -0.448970    21A     -0.373236  

    Virtual:                                                              

      22A      0.219714    23A      0.257789    24A      0.268349  
      25A      0.294876    26A      0.308572    27A      0.328068  
      28A      0.333154    29A      0.340701    30A      0.356539  
      31A      0.362809    32A      0.400292    33A      0.417681  
      34A      0.434290    35A      0.452143    36A      0.481411  
      37A      0.723848    38A      0.740500    39A      0.747308  
      40A      0.779322    41A      0.797684    42A      0.841735  
      43A      0.880703    44A      0.933353    45A      0.956403  
      46A      1.003487    47A      1.018851    48A      1.049253  
      49A      1.086576    50A      1.124242    51A      1.160316  
      52A      1.163471    53A      1.171309    54A      1.195907  
      55A      1.211837    56A      1.222858    57A      1.233648  
      58A      1.250035    59A      1.257143    60A      1.268982  
      61A      1.296414    62A      1.312545    63A      1.357844  
      64A      1.543682    65A      1.664538    66A      1.684337  
      67A      1.751418    68A      1.833780    69A      1.892501  
      70A      1.951892    71A      2.000047    72A      2.133126  
      73A      2.212743    74A      2.229530    75A      2.282029  
      76A      2.330927    77A      2.359782    78A      2.383359  
      79A      2.442842    80A      2.501111    81A      2.553654  
      82A      2.571300    83A      2.654065    84A      2.697721  
      85A      2.722018    86A      2.788473    87A      2.799304  
      88A      2.922536    89A      2.991288    90A      3.022483  
      91A      3.060531    92A      3.116362    93A      4.270703  
      94A      4.599089    95A      4.722212    96A      4.883782  
      97A      4.973809  

    Final Occupation by Irrep:
              A 
    DOCC [    21 ]

  Energy converged.

  @DF-RHF Final Energy:  -212.30215798957462

   => Energetics <=

    Nuclear Repulsion Energy =            196.0770746336366699
    One-Electron Energy =                -674.8069591307973951
    Two-Electron Energy =                 266.4277265075859304
    DFT Exchange-Correlation Energy =       0.0000000000000000
    Empirical Dispersion Energy =           0.0000000000000000
    PCM Polarization Energy =               0.0000000000000000
    EFP Energy =                            0.0000000000000000
    Total Energy =                       -212.3021579895747664

    Alert: EFP and PCM quantities not currently incorporated into SCF psivars.

Properties will be evaluated at   0.000000,   0.000000,   0.000000 Bohr
  ==> Properties <==


Properties computed using the SCF density matrix

  Nuclear Dipole Moment: (a.u.)
     X:    -0.9116      Y:     0.7185      Z:     0.3785

  Electronic Dipole Moment: (a.u.)
     X:     1.4602      Y:    -0.5969      Z:    -0.1036

  Dipole Moment: (a.u.)
     X:     0.5486      Y:     0.1215      Z:     0.2749     Total:     0.6255

  Dipole Moment: (Debye)
     X:     1.3943      Y:     0.3089      Z:     0.6988     Total:     1.5900


  Saving occupied orbitals to File 180.

*** tstop() called on cx1-3-16-4.cx1.hpc.ic.ac.uk at Tue Jul  5 16:35:10 2016
Module time:
	user time   =       7.57 seconds =       0.13 minutes
	system time =       0.05 seconds =       0.00 minutes
	total time  =          8 seconds =       0.13 minutes
Total time:
	user time   =       7.57 seconds =       0.13 minutes
	system time =       0.05 seconds =       0.00 minutes
	total time  =          8 seconds =       0.13 minutes


Properties will be evaluated at   0.000000,   0.000000,   0.000000 Bohr

Properties computed using the  density matrix

  Nuclear Dipole Moment: (a.u.)
     X:    -0.9116      Y:     0.7185      Z:     0.3785

  Electronic Dipole Moment: (a.u.)
     X:     1.4602      Y:    -0.5969      Z:    -0.1036

  Dipole Moment: (a.u.)
     X:     0.5486      Y:     0.1215      Z:     0.2749     Total:     0.6255

  Dipole Moment: (Debye)
     X:     1.3943      Y:     0.3089      Z:     0.6988     Total:     1.5900

  Quadrupole Moment: (Debye Ang)
    XX:   -31.1065     YY:   -32.9696     ZZ:   -35.5646
    XY:     1.1596     XZ:    -0.6660     YZ:     0.4086

  Traceless Quadrupole Moment: (Debye Ang)
    XX:     2.1071     YY:     0.2440     ZZ:    -2.3511
    XY:     1.1596     XZ:    -0.6660     YZ:     0.4086

  Mulliken Charges: (a.u.)
   Center  Symbol    Alpha    Beta     Spin     Total
       1     H     0.33033  0.33033  0.00000  0.33935
       2     N     3.92576  3.92576  0.00000 -0.85152
       3     C     3.07718  3.07718  0.00000 -0.15437
       4     H     0.32997  0.32997  0.00000  0.34006
       5     C     3.13988  3.13988  0.00000 -0.27976
       6     H     0.42591  0.42591  0.00000  0.14818
       7     H     0.42148  0.42148  0.00000  0.15705
       8     C     3.15630  3.15630  0.00000 -0.31260
       9     H     0.41998  0.41998  0.00000  0.16004
      10     H     0.42795  0.42795  0.00000  0.14411
      11     C     3.21998  3.21998  0.00000 -0.43996
      12     H     0.42728  0.42728  0.00000  0.14545
      13     H     0.42215  0.42215  0.00000  0.15570
      14     H     0.43053  0.43053  0.00000  0.13894
      15     H     0.42833  0.42833  0.00000  0.14335
      16     H     0.41700  0.41700  0.00000  0.16599

   Total alpha = 21.00000, Total beta = 21.00000, Total charge =  0.00000


*** PSI4 exiting successfully. Buy a developer a beer!
