    -----------------------------------------------------------------------
          Psi4: An Open-Source Ab Initio Electronic Structure Package
                              Psi4 (no tag) Driver

                          Git: Rev {detached?}  

    J. M. Turney, A. C. Simmonett, R. M. Parrish, E. G. Hohenstein,
    F. A. Evangelista, J. T. Fermann, B. J. Mintz, L. A. Burns, J. J. Wilke,
    M. L. Abrams, N. J. Russ, M. L. Leininger, C. L. Janssen, E. T. Seidl,
    W. D. Allen, H. F. Schaefer, R. A. King, E. F. Valeev, C. D. Sherrill,
    and T. D. Crawford, WIREs Comput. Mol. Sci. 2, 556-565 (2012)
    (doi: 10.1002/wcms.93)

                         Additional Contributions by
    A. E. DePrince, M. Saitow, U. Bozkaya, A. Yu. Sokolov
    -----------------------------------------------------------------------


    Psi4 started on: Tue Jul  5 16:31:30 2016

    Process ID:   7878
    PSI4DATADIR: /export131/home/mjharvey/miniconda3/share
    Memory level set to 256.000 MB

  ==> Input File <==

--------------------------------------------------------------------------
set {
	reference rhf
	basis 6-31G*
}


set_num_threads( 1 )
memory 2 gb

molecule MOL {
0 1

O	 0.074346	 1.262834	 -0.000085
C	 0.028768	 0.075108	 -0.000277
C	 -1.233484	 -0.752752	 0.000328
O	 1.109280	 -0.694564	 -0.000298
C	 -2.501412	 0.091936	 0.000126
H	 -1.193689	 -1.406586	 -0.865785
H	 -1.193398	 -1.405724	 0.867015
H	 -2.545003	 0.729383	 -0.874513
H	 -3.377049	 -0.548442	 0.000561
H	 -2.544700	 0.730190	 0.874258
C	 2.364861	 -0.039503	 0.000150
H	 2.471265	 0.578092	 -0.880002
H	 3.106400	 -0.823073	 -0.000831
H	 2.471741	 0.576379	 0.881477

	symmetry c1
}
ee = energy('scf')
oeprop('DIPOLE', 'QUADRUPOLE', 'MULLIKEN_CHARGES')
oeprop('GRID_ESP')
f=open( 'psi4out.xyz', 'w' )
f.write( "14  " )
f.write( str(ee) + "\n" )
f.write( MOL.save_string_xyz() )
f.close()
--------------------------------------------------------------------------

  Memory set to   2.000 GiB by Python script.

*** tstart() called on cx1-1-4-4.cx1.hpc.ic.ac.uk
*** at Tue Jul  5 16:31:31 2016


         ---------------------------------------------------------
                                   SCF
            by Justin Turney, Rob Parrish, and Andy Simmonett
                              RHF Reference
                        1 Threads,   2000 MiB Core
         ---------------------------------------------------------

  ==> Geometry <==

    Molecular point group: c1
    Full point group: C1

    Geometry (in Angstrom), charge = 0, multiplicity = 1:

       Center              X                  Y                   Z               Mass       
    ------------   -----------------  -----------------  -----------------  -----------------
           O          0.074227717820     1.262779106067    -0.000084943287    15.994914619560
           C          0.028649717820     0.075053106067    -0.000276943287    12.000000000000
           C         -1.233602282180    -0.752806893933     0.000328056713    12.000000000000
           O          1.109161717820    -0.694618893933    -0.000297943287    15.994914619560
           C         -2.501530282180     0.091881106067     0.000126056713    12.000000000000
           H         -1.193807282180    -1.406640893933    -0.865784943287     1.007825032070
           H         -1.193516282180    -1.405778893933     0.867015056713     1.007825032070
           H         -2.545121282180     0.729328106067    -0.874512943287     1.007825032070
           H         -3.377167282180    -0.548496893933     0.000561056713     1.007825032070
           H         -2.544818282180     0.730135106067     0.874258056713     1.007825032070
           C          2.364742717820    -0.039557893933     0.000150056713    12.000000000000
           H          2.471146717820     0.578037106067    -0.880001943287     1.007825032070
           H          3.106281717820    -0.823127893933    -0.000830943287     1.007825032070
           H          2.471622717820     0.576324106067     0.881477056713     1.007825032070

  Running in c1 symmetry.

  Rotational constants: A =      0.32715  B =      0.07194  C =      0.06094 [cm^-1]
  Rotational constants: A =   9807.58246  B =   2156.75350  C =   1826.99217 [MHz]
  Nuclear repulsion =  247.137851064586158

  Charge       = 0
  Multiplicity = 1
  Electrons    = 48
  Nalpha       = 24
  Nbeta        = 24

  ==> Algorithm <==

  SCF Algorithm Type is DF.
  DIIS enabled.
  MOM disabled.
  Fractional occupation disabled.
  Guess Type is CORE.
  Energy threshold   = 1.00e-06
  Density threshold  = 1.00e-06
  Integral threshold = 0.00e+00

  ==> Primary Basis <==

  Basis Set: 6-31G*
    Number of shells: 52
    Number of basis function: 106
    Number of Cartesian functions: 106
    Spherical Harmonics?: false
    Max angular momentum: 2

  ==> Pre-Iterations <==

   -------------------------------------------------------
    Irrep   Nso     Nmo     Nalpha   Nbeta   Ndocc  Nsocc
   -------------------------------------------------------
     A        106     106       0       0       0       0
   -------------------------------------------------------
    Total     106     106      24      24      24       0
   -------------------------------------------------------

 OEINTS: Overlap, kinetic, potential, dipole, and quadrupole integrals
         stored in file 35.

  ==> Integral Setup <==

  ==> DFJK: Density-Fitted J/K Matrices <==

    J tasked:                  Yes
    K tasked:                  Yes
    wK tasked:                  No
    OpenMP threads:              1
    Integrals threads:           1
    Memory (MB):              1430
    Algorithm:                Core
    Integral Cache:           NONE
    Schwarz Cutoff:          1E-12
    Fitting Condition:       1E-12

   => Auxiliary Basis Set <=

  Basis Set: 
    Number of shells: 216
    Number of basis function: 686
    Number of Cartesian functions: 686
    Spherical Harmonics?: false
    Max angular momentum: 3

  Minimum eigenvalue in the overlap matrix is 3.3382930595E-03.
  Using Symmetric Orthogonalization.
  SCF Guess: Core (One-Electron) Hamiltonian.

  ==> Iterations <==

                           Total Energy        Delta E     RMS |[F,P]|

   @DF-RHF iter   1:  -226.32578553683763   -2.26326e+02   8.49864e-02 
   @DF-RHF iter   2:  -204.55787979580313    2.17679e+01   6.83645e-02 DIIS
   @DF-RHF iter   3:  -277.91180565620027   -7.33539e+01   4.60410e-02 DIIS
   @DF-RHF iter   4:  -283.49817547982798   -5.58637e+00   4.93739e-02 DIIS
   @DF-RHF iter   5:  -302.58850004427813   -1.90903e+01   1.93708e-02 DIIS
   @DF-RHF iter   6:  -305.76568488410180   -3.17718e+00   3.79321e-03 DIIS
   @DF-RHF iter   7:  -305.85802735686389   -9.23425e-02   1.53557e-03 DIIS
   @DF-RHF iter   8:  -305.86952830838618   -1.15010e-02   6.18479e-04 DIIS
   @DF-RHF iter   9:  -305.87188848526171   -2.36018e-03   1.68338e-04 DIIS
   @DF-RHF iter  10:  -305.87214917425285   -2.60689e-04   7.07921e-05 DIIS
   @DF-RHF iter  11:  -305.87219309376405   -4.39195e-05   3.11893e-05 DIIS
   @DF-RHF iter  12:  -305.87220218949369   -9.09573e-06   8.67492e-06 DIIS
   @DF-RHF iter  13:  -305.87220297442241   -7.84929e-07   2.62022e-06 DIIS
   @DF-RHF iter  14:  -305.87220302712808   -5.27057e-08   5.90511e-07 DIIS

  ==> Post-Iterations <==

    Orbital Energies (a.u.)
    -----------------------

    Doubly Occupied:                                                      

       1A    -20.604551     2A    -20.546338     3A    -11.372932  
       4A    -11.281500     5A    -11.238768     6A    -11.216682  
       7A     -1.470251     8A     -1.363755     9A     -1.064455  
      10A     -0.980349    11A     -0.878362    12A     -0.768916  
      13A     -0.700782    14A     -0.682922    15A     -0.671743  
      16A     -0.621281    17A     -0.602588    18A     -0.543999  
      19A     -0.537441    20A     -0.522145    21A     -0.514210  
      22A     -0.496385    23A     -0.457345    24A     -0.439399  

    Virtual:                                                              

      25A      0.198708    26A      0.238463    27A      0.264714  
      28A      0.295750    29A      0.306732    30A      0.306747  
      31A      0.319316    32A      0.328840    33A      0.330319  
      34A      0.363464    35A      0.410906    36A      0.444870  
      37A      0.514035    38A      0.555550    39A      0.718717  
      40A      0.720558    41A      0.744336    42A      0.762006  
      43A      0.789337    44A      0.808987    45A      0.812934  
      46A      0.906961    47A      0.916930    48A      0.967724  
      49A      0.986037    50A      0.999986    51A      1.066660  
      52A      1.113493    53A      1.124657    54A      1.132752  
      55A      1.134441    56A      1.176072    57A      1.183812  
      58A      1.192188    59A      1.210468    60A      1.232425  
      61A      1.251191    62A      1.292825    63A      1.321019  
      64A      1.373632    65A      1.398492    66A      1.539500  
      67A      1.625830    68A      1.663624    69A      1.681209  
      70A      1.790304    71A      1.802975    72A      1.817240  
      73A      1.898615    74A      1.979661    75A      2.069350  
      76A      2.075040    77A      2.138755    78A      2.187576  
      79A      2.196916    80A      2.272871    81A      2.294280  
      82A      2.327148    83A      2.388105    84A      2.398834  
      85A      2.443634    86A      2.496549    87A      2.565612  
      88A      2.645062    89A      2.659551    90A      2.670892  
      91A      2.700112    92A      2.764920    93A      2.824157  
      94A      2.867557    95A      3.013195    96A      3.066846  
      97A      3.149425    98A      3.347588    99A      3.442738  
     100A      3.572647   101A      4.408909   102A      4.554685  
     103A      4.618597   104A      4.704482   105A      4.778093  
     106A      4.955434  

    Final Occupation by Irrep:
              A 
    DOCC [    24 ]

  Energy converged.

  @DF-RHF Final Energy:  -305.87220302712808

   => Energetics <=

    Nuclear Repulsion Energy =            247.1378510645861581
    One-Electron Energy =                -906.8659556157891757
    Two-Electron Energy =                 353.8559015240755343
    DFT Exchange-Correlation Energy =       0.0000000000000000
    Empirical Dispersion Energy =           0.0000000000000000
    PCM Polarization Energy =               0.0000000000000000
    EFP Energy =                            0.0000000000000000
    Total Energy =                       -305.8722030271275116

    Alert: EFP and PCM quantities not currently incorporated into SCF psivars.

Properties will be evaluated at   0.000000,   0.000000,   0.000000 Bohr
  ==> Properties <==


Properties computed using the SCF density matrix

  Nuclear Dipole Moment: (a.u.)
     X:    -2.6243      Y:    -1.4693      Z:     0.0020

  Electronic Dipole Moment: (a.u.)
     X:     2.8254      Y:     0.7642      Z:    -0.0018

  Dipole Moment: (a.u.)
     X:     0.2011      Y:    -0.7051      Z:     0.0002     Total:     0.7332

  Dipole Moment: (Debye)
     X:     0.5111      Y:    -1.7922      Z:     0.0005     Total:     1.8636


  Saving occupied orbitals to File 180.

*** tstop() called on cx1-1-4-4.cx1.hpc.ic.ac.uk at Tue Jul  5 16:31:37 2016
Module time:
	user time   =       5.94 seconds =       0.10 minutes
	system time =       0.04 seconds =       0.00 minutes
	total time  =          6 seconds =       0.10 minutes
Total time:
	user time   =       5.94 seconds =       0.10 minutes
	system time =       0.04 seconds =       0.00 minutes
	total time  =          6 seconds =       0.10 minutes


Properties will be evaluated at   0.000000,   0.000000,   0.000000 Bohr

Properties computed using the  density matrix

  Nuclear Dipole Moment: (a.u.)
     X:    -2.6243      Y:    -1.4693      Z:     0.0020

  Electronic Dipole Moment: (a.u.)
     X:     2.8254      Y:     0.7642      Z:    -0.0018

  Dipole Moment: (a.u.)
     X:     0.2011      Y:    -0.7051      Z:     0.0002     Total:     0.7332

  Dipole Moment: (Debye)
     X:     0.5111      Y:    -1.7922      Z:     0.0005     Total:     1.8636

  Quadrupole Moment: (Debye Ang)
    XX:   -30.3604     YY:   -41.4127     ZZ:   -35.4167
    XY:     1.6018     XZ:     0.0005     YZ:    -0.0005

  Traceless Quadrupole Moment: (Debye Ang)
    XX:     5.3696     YY:    -5.6828     ZZ:     0.3132
    XY:     1.6018     XZ:     0.0005     YZ:    -0.0005

  Mulliken Charges: (a.u.)
   Center  Symbol    Alpha    Beta     Spin     Total
       1     O     4.28523  4.28523  0.00000 -0.57047
       2     C     2.60831  2.60831  0.00000  0.78338
       3     C     3.20510  3.20510  0.00000 -0.41021
       4     O     4.30592  4.30592  0.00000 -0.61184
       5     C     3.23895  3.23895  0.00000 -0.47790
       6     H     0.40020  0.40020  0.00000  0.19960
       7     H     0.40018  0.40018  0.00000  0.19964
       8     H     0.40984  0.40984  0.00000  0.18032
       9     H     0.41790  0.41790  0.00000  0.16420
      10     H     0.40983  0.40983  0.00000  0.18033
      11     C     3.09232  3.09232  0.00000 -0.18463
      12     H     0.40890  0.40890  0.00000  0.18219
      13     H     0.40838  0.40838  0.00000  0.18325
      14     H     0.40893  0.40893  0.00000  0.18213

   Total alpha = 24.00000, Total beta = 24.00000, Total charge =  0.00000



Properties will be evaluated at   0.000000,   0.000000,   0.000000 Bohr

Properties computed using the  density matrix


 Electrostatic potential computed on the grid and written to grid_esp.dat

*** PSI4 exiting successfully. Buy a developer a beer!
