    -----------------------------------------------------------------------
          Psi4: An Open-Source Ab Initio Electronic Structure Package
                              Psi4 (no tag) Driver

                          Git: Rev {detached?}  

    J. M. Turney, A. C. Simmonett, R. M. Parrish, E. G. Hohenstein,
    F. A. Evangelista, J. T. Fermann, B. J. Mintz, L. A. Burns, J. J. Wilke,
    M. L. Abrams, N. J. Russ, M. L. Leininger, C. L. Janssen, E. T. Seidl,
    W. D. Allen, H. F. Schaefer, R. A. King, E. F. Valeev, C. D. Sherrill,
    and T. D. Crawford, WIREs Comput. Mol. Sci. 2, 556-565 (2012)
    (doi: 10.1002/wcms.93)

                         Additional Contributions by
    A. E. DePrince, M. Saitow, U. Bozkaya, A. Yu. Sokolov
    -----------------------------------------------------------------------


    Psi4 started on: Tue Jul  5 16:37:59 2016

    Process ID:   5072
    PSI4DATADIR: /export131/home/mjharvey/miniconda3/share
    Memory level set to 256.000 MB

  ==> Input File <==

--------------------------------------------------------------------------
set {
	reference rhf
	basis 6-31G*
}


set_num_threads( 1 )
memory 2 gb

molecule MOL {
0 1

O	 0.851774	 1.883526	 0.444330
C	 0.046903	 1.829983	 1.317460
C	 -1.223986	 1.016308	 1.291573
O	 0.166829	 2.497822	 2.457891
C	 -1.412532	 0.227344	 -0.000452
H	 -1.205549	 0.357857	 2.155782
H	 -2.051184	 1.700691	 1.459256
C	 -2.706999	 -0.587347	 -0.000541
H	 -0.562494	 -0.432264	 -0.144875
H	 -1.408854	 0.912505	 -0.842500
C	 -3.956778	 0.291888	 0.000910
H	 -2.726114	 -1.239230	 -0.871609
H	 -2.725217	 -1.240844	 0.869333
H	 -3.985213	 0.933254	 -0.875158
H	 -4.860123	 -0.309979	 0.000519
H	 -3.984618	 0.931166	 0.878514
C	 1.320543	 3.304233	 2.612116
H	 2.215653	 2.701640	 2.556018
H	 1.235481	 3.757607	 3.587393
H	 1.356731	 4.066124	 1.846793

	symmetry c1
}
set optking {
	frozen_dihedral = ("
		1 2 3 6,
		9 5 3 6,
		1 2 4 17
	")
}

ee = energy('scf')
oeprop('DIPOLE', 'QUADRUPOLE', 'MULLIKEN_CHARGES')
f=open( 'psi4out.xyz', 'w' )
f.write( "20  " )
f.write( str(ee) + "\n" )
f.write( MOL.save_string_xyz() )
f.close()
--------------------------------------------------------------------------

  Memory set to   2.000 GiB by Python script.

*** tstart() called on cx1-3-16-2.cx1.hpc.ic.ac.uk
*** at Tue Jul  5 16:38:00 2016


         ---------------------------------------------------------
                                   SCF
            by Justin Turney, Rob Parrish, and Andy Simmonett
                              RHF Reference
                        1 Threads,   2000 MiB Core
         ---------------------------------------------------------

  ==> Geometry <==

    Molecular point group: c1
    Full point group: C1

    Geometry (in Angstrom), charge = 0, multiplicity = 1:

       Center              X                  Y                   Z               Mass       
    ------------   -----------------  -----------------  -----------------  -----------------
           O          1.693834822352     0.545683848953    -0.587478102239    15.994914619560
           C          0.888963822352     0.492140848953     0.285651897761    12.000000000000
           C         -0.381925177648    -0.321534151047     0.259764897761    12.000000000000
           O          1.008889822352     1.159979848953     1.426082897761    15.994914619560
           C         -0.570471177648    -1.110498151047    -1.032260102239    12.000000000000
           H         -0.363488177648    -0.979985151047     1.123973897761     1.007825032070
           H         -1.209123177648     0.362848848953     0.427447897761     1.007825032070
           C         -1.864938177648    -1.925189151047    -1.032349102239    12.000000000000
           H          0.279566822352    -1.770106151047    -1.176683102239     1.007825032070
           H         -0.566793177648    -0.425337151047    -1.874308102239     1.007825032070
           C         -3.114717177648    -1.045954151047    -1.030898102239    12.000000000000
           H         -1.884053177648    -2.577072151047    -1.903417102239     1.007825032070
           H         -1.883156177648    -2.578686151047    -0.162475102239     1.007825032070
           H         -3.143152177648    -0.404588151047    -1.906966102239     1.007825032070
           H         -4.018062177648    -1.647821151047    -1.031289102239     1.007825032070
           H         -3.142557177648    -0.406676151047    -0.153294102239     1.007825032070
           C          2.162603822352     1.966390848953     1.580307897761    12.000000000000
           H          3.057713822352     1.363797848953     1.524209897761     1.007825032070
           H          2.077541822352     2.419764848953     2.555584897761     1.007825032070
           H          2.198791822352     2.728281848953     0.814984897761     1.007825032070

  Running in c1 symmetry.

  Rotational constants: A =      0.18933  B =      0.02790  C =      0.02578 [cm^-1]
  Rotational constants: A =   5675.92517  B =    836.34095  C =    773.00541 [MHz]
  Nuclear repulsion =  385.818427316001987

  Charge       = 0
  Multiplicity = 1
  Electrons    = 64
  Nalpha       = 32
  Nbeta        = 32

  ==> Algorithm <==

  SCF Algorithm Type is DF.
  DIIS enabled.
  MOM disabled.
  Fractional occupation disabled.
  Guess Type is CORE.
  Energy threshold   = 1.00e-06
  Density threshold  = 1.00e-06
  Integral threshold = 0.00e+00

  ==> Primary Basis <==

  Basis Set: 6-31G*
    Number of shells: 72
    Number of basis function: 144
    Number of Cartesian functions: 144
    Spherical Harmonics?: false
    Max angular momentum: 2

  ==> Pre-Iterations <==

   -------------------------------------------------------
    Irrep   Nso     Nmo     Nalpha   Nbeta   Ndocc  Nsocc
   -------------------------------------------------------
     A        144     144       0       0       0       0
   -------------------------------------------------------
    Total     144     144      32      32      32       0
   -------------------------------------------------------

 OEINTS: Overlap, kinetic, potential, dipole, and quadrupole integrals
         stored in file 35.

  ==> Integral Setup <==

  ==> DFJK: Density-Fitted J/K Matrices <==

    J tasked:                  Yes
    K tasked:                  Yes
    wK tasked:                  No
    OpenMP threads:              1
    Integrals threads:           1
    Memory (MB):              1430
    Algorithm:                Core
    Integral Cache:           NONE
    Schwarz Cutoff:          1E-12
    Fitting Condition:       1E-12

   => Auxiliary Basis Set <=

  Basis Set: 
    Number of shells: 300
    Number of basis function: 948
    Number of Cartesian functions: 948
    Spherical Harmonics?: false
    Max angular momentum: 3

  Minimum eigenvalue in the overlap matrix is 2.6530009441E-03.
  Using Symmetric Orthogonalization.
  SCF Guess: Core (One-Electron) Hamiltonian.

  ==> Iterations <==

                           Total Energy        Delta E     RMS |[F,P]|

   @DF-RHF iter   1:  -251.93092257563688   -2.51931e+02   7.43090e-02 
   @DF-RHF iter   2:   -32.63654994705240    2.19294e+02   8.52990e-02 DIIS
   @DF-RHF iter   3:  -189.96091281399509   -1.57324e+02   6.87690e-02 DIIS
   @DF-RHF iter   4:  -275.51706644587722   -8.55562e+01   6.23138e-02 DIIS
   @DF-RHF iter   5:  -361.49341336752337   -8.59763e+01   3.74405e-02 DIIS
   @DF-RHF iter   6:  -383.29205388040083   -2.17986e+01   7.87175e-03 DIIS
   @DF-RHF iter   7:  -383.81476004431835   -5.22706e-01   3.84672e-03 DIIS
   @DF-RHF iter   8:  -383.91124022299363   -9.64802e-02   1.46891e-03 DIIS
   @DF-RHF iter   9:  -383.93706777700100   -2.58276e-02   4.11959e-04 DIIS
   @DF-RHF iter  10:  -383.93908208903741   -2.01431e-03   1.57352e-04 DIIS
   @DF-RHF iter  11:  -383.93941411964403   -3.32031e-04   5.49096e-05 DIIS
   @DF-RHF iter  12:  -383.93945938091275   -4.52613e-05   1.40065e-05 DIIS
   @DF-RHF iter  13:  -383.93946306678191   -3.68587e-06   4.59443e-06 DIIS
   @DF-RHF iter  14:  -383.93946352207598   -4.55294e-07   1.12831e-06 DIIS
   @DF-RHF iter  15:  -383.93946355160432   -2.95283e-08   3.86274e-07 DIIS

  ==> Post-Iterations <==

    Orbital Energies (a.u.)
    -----------------------

    Doubly Occupied:                                                      

       1A    -20.603696     2A    -20.545381     3A    -11.372345  
       4A    -11.280889     5A    -11.235142     6A    -11.220339  
       7A    -11.219237     8A    -11.212378     9A     -1.469360  
      10A     -1.362783    11A     -1.090890    12A     -1.022358  
      13A     -0.967360    14A     -0.894335    15A     -0.800299  
      16A     -0.764761    17A     -0.702543    18A     -0.682821  
      19A     -0.672188    20A     -0.634685    21A     -0.612699  
      22A     -0.594802    23A     -0.569317    24A     -0.548565  
      25A     -0.534403    26A     -0.522768    27A     -0.509076  
      28A     -0.473973    29A     -0.473020    30A     -0.466900  
      31A     -0.455723    32A     -0.437796  

    Virtual:                                                              

      33A      0.198417    34A      0.226893    35A      0.260064  
      36A      0.269152    37A      0.277998    38A      0.298239  
      39A      0.309227    40A      0.314025    41A      0.318197  
      42A      0.323702    43A      0.338116    44A      0.340650  
      45A      0.350916    46A      0.386904    47A      0.404051  
      48A      0.420286    49A      0.442110    50A      0.481331  
      51A      0.532024    52A      0.573730    53A      0.713573  
      54A      0.719696    55A      0.727210    56A      0.736179  
      57A      0.755337    58A      0.772974    59A      0.789358  
      60A      0.805250    61A      0.829425    62A      0.886638  
      63A      0.911514    64A      0.933519    65A      0.960819  
      66A      0.970476    67A      0.983520    68A      1.014031  
      69A      1.079794    70A      1.107437    71A      1.118123  
      72A      1.124578    73A      1.134868    74A      1.142446  
      75A      1.155414    76A      1.169864    77A      1.180840  
      78A      1.191724    79A      1.205348    80A      1.208228  
      81A      1.219944    82A      1.242079    83A      1.255133  
      84A      1.263082    85A      1.289609    86A      1.307410  
      87A      1.314179    88A      1.380280    89A      1.411633  
      90A      1.518510    91A      1.557878    92A      1.632501  
      93A      1.664843    94A      1.721895    95A      1.733695  
      96A      1.800333    97A      1.838587    98A      1.875771  
      99A      1.888963   100A      1.940036   101A      1.980149  
     102A      2.022361   103A      2.061703   104A      2.119665  
     105A      2.143211   106A      2.165685   107A      2.209567  
     108A      2.236726   109A      2.260746   110A      2.299263  
     111A      2.310804   112A      2.354875   113A      2.364050  
     114A      2.399641   115A      2.435784   116A      2.436192  
     117A      2.458206   118A      2.509386   119A      2.595547  
     120A      2.631512   121A      2.656347   122A      2.681031  
     123A      2.692503   124A      2.740137   125A      2.759030  
     126A      2.816764   127A      2.849295   128A      2.900632  
     129A      2.963482   130A      3.000803   131A      3.067341  
     132A      3.102621   133A      3.161590   134A      3.349482  
     135A      3.451211   136A      3.580242   137A      4.415752  
     138A      4.549605   139A      4.609152   140A      4.664396  
     141A      4.737704   142A      4.819429   143A      4.881476  
     144A      5.012511  

    Final Occupation by Irrep:
              A 
    DOCC [    32 ]

  Energy converged.

  @DF-RHF Final Energy:  -383.93946355160432

   => Energetics <=

    Nuclear Repulsion Energy =            385.8184273160019870
    One-Electron Energy =               -1287.6102368658275736
    Two-Electron Energy =                 517.8523459982213808
    DFT Exchange-Correlation Energy =       0.0000000000000000
    Empirical Dispersion Energy =           0.0000000000000000
    PCM Polarization Energy =               0.0000000000000000
    EFP Energy =                            0.0000000000000000
    Total Energy =                       -383.9394635516041490

    Alert: EFP and PCM quantities not currently incorporated into SCF psivars.

Properties will be evaluated at   0.000000,   0.000000,   0.000000 Bohr
  ==> Properties <==


Properties computed using the SCF density matrix

  Nuclear Dipole Moment: (a.u.)
     X:    -8.0462      Y:    -3.6625      Z:    -1.6480

  Electronic Dipole Moment: (a.u.)
     X:     7.6912      Y:     3.7364      Z:     2.2432

  Dipole Moment: (a.u.)
     X:    -0.3550      Y:     0.0739      Z:     0.5952     Total:     0.6970

  Dipole Moment: (Debye)
     X:    -0.9023      Y:     0.1878      Z:     1.5129     Total:     1.7716


  Saving occupied orbitals to File 180.

*** tstop() called on cx1-3-16-2.cx1.hpc.ic.ac.uk at Tue Jul  5 16:38:15 2016
Module time:
	user time   =      14.92 seconds =       0.25 minutes
	system time =       0.18 seconds =       0.00 minutes
	total time  =         15 seconds =       0.25 minutes
Total time:
	user time   =      14.92 seconds =       0.25 minutes
	system time =       0.18 seconds =       0.00 minutes
	total time  =         15 seconds =       0.25 minutes


Properties will be evaluated at   0.000000,   0.000000,   0.000000 Bohr

Properties computed using the  density matrix

  Nuclear Dipole Moment: (a.u.)
     X:    -8.0462      Y:    -3.6625      Z:    -1.6480

  Electronic Dipole Moment: (a.u.)
     X:     7.6912      Y:     3.7364      Z:     2.2432

  Dipole Moment: (a.u.)
     X:    -0.3550      Y:     0.0739      Z:     0.5952     Total:     0.6970

  Dipole Moment: (Debye)
     X:    -0.9023      Y:     0.1878      Z:     1.5129     Total:     1.7716

  Quadrupole Moment: (Debye Ang)
    XX:   -50.4030     YY:   -46.3528     ZZ:   -50.6803
    XY:     2.4708     XZ:     5.5429     YZ:     2.1144

  Traceless Quadrupole Moment: (Debye Ang)
    XX:    -1.2576     YY:     2.7926     ZZ:    -1.5349
    XY:     2.4708     XZ:     5.5429     YZ:     2.1144

  Mulliken Charges: (a.u.)
   Center  Symbol    Alpha    Beta     Spin     Total
       1     O     4.28587  4.28587  0.00000 -0.57174
       2     C     2.60458  2.60458  0.00000  0.79084
       3     C     3.21061  3.21061  0.00000 -0.42122
       4     O     4.30715  4.30715  0.00000 -0.61430
       5     C     3.15291  3.15291  0.00000 -0.30582
       6     H     0.40086  0.40086  0.00000  0.19828
       7     H     0.39908  0.39908  0.00000  0.20184
       8     C     3.15623  3.15623  0.00000 -0.31247
       9     H     0.40992  0.40992  0.00000  0.18017
      10     H     0.41210  0.41210  0.00000  0.17579
      11     C     3.24312  3.24312  0.00000 -0.48623
      12     H     0.41667  0.41667  0.00000  0.16666
      13     H     0.42310  0.42310  0.00000  0.15379
      14     H     0.41971  0.41971  0.00000  0.16059
      15     H     0.41724  0.41724  0.00000  0.16551
      16     H     0.42188  0.42188  0.00000  0.15624
      17     C     3.09244  3.09244  0.00000 -0.18488
      18     H     0.40905  0.40905  0.00000  0.18190
      19     H     0.40844  0.40844  0.00000  0.18312
      20     H     0.40904  0.40904  0.00000  0.18191

   Total alpha = 32.00000, Total beta = 32.00000, Total charge = -0.00000


*** PSI4 exiting successfully. Buy a developer a beer!
