    -----------------------------------------------------------------------
          Psi4: An Open-Source Ab Initio Electronic Structure Package
                              Psi4 (no tag) Driver

                          Git: Rev {detached?}  

    J. M. Turney, A. C. Simmonett, R. M. Parrish, E. G. Hohenstein,
    F. A. Evangelista, J. T. Fermann, B. J. Mintz, L. A. Burns, J. J. Wilke,
    M. L. Abrams, N. J. Russ, M. L. Leininger, C. L. Janssen, E. T. Seidl,
    W. D. Allen, H. F. Schaefer, R. A. King, E. F. Valeev, C. D. Sherrill,
    and T. D. Crawford, WIREs Comput. Mol. Sci. 2, 556-565 (2012)
    (doi: 10.1002/wcms.93)

                         Additional Contributions by
    A. E. DePrince, M. Saitow, U. Bozkaya, A. Yu. Sokolov
    -----------------------------------------------------------------------


    Psi4 started on: Tue Jul  5 16:29:02 2016

    Process ID:   9368
    PSI4DATADIR: /export131/home/mjharvey/miniconda3/share
    Memory level set to 256.000 MB

  ==> Input File <==

--------------------------------------------------------------------------
set {
	reference rhf
	basis 6-31G*
}


set_num_threads( 1 )
memory 2 gb

molecule MOL {
0 1

O	 3.341000	 0.980000	 -0.604000
C	 2.817000	 0.067000	 -0.052000
C	 1.361000	 -0.005000	 0.341000
O	 3.463000	 -1.038000	 0.299000
C	 0.571000	 1.240000	 -0.055000
H	 0.954000	 -0.905000	 -0.109000
H	 1.323000	 -0.167000	 1.415000
C	 -0.884000	 1.228000	 0.428000
H	 0.598000	 1.355000	 -1.135000
H	 1.073000	 2.112000	 0.351000
C	 -1.768000	 0.155000	 -0.212000
H	 -1.316000	 2.204000	 0.220000
H	 -0.905000	 1.115000	 1.511000
C	 -3.232000	 0.255000	 0.220000
H	 -1.706000	 0.240000	 -1.296000
H	 -1.395000	 -0.836000	 0.038000
C	 -4.125000	 -0.817000	 -0.409000
H	 -3.618000	 1.240000	 -0.040000
H	 -3.294000	 0.181000	 1.305000
C	 -5.586000	 -0.708000	 0.025000
H	 -4.064000	 -0.745000	 -1.493000
H	 -3.744000	 -1.802000	 -0.147000
H	 -6.193000	 -1.480000	 -0.437000
H	 -6.007000	 0.254000	 -0.255000
H	 -5.684000	 -0.810000	 1.102000
C	 4.843000	 -1.100000	 -0.011000
H	 4.997000	 -1.024000	 -1.077000
H	 5.184000	 -2.059000	 0.349000
H	 5.380000	 -0.303000	 0.483000

	symmetry c1
}
ee = optimize('scf')
oeprop('DIPOLE', 'QUADRUPOLE', 'MULLIKEN_CHARGES')
f=open( 'psi4out.xyz', 'w' )
f.write( "29  " )
f.write( str(ee) + "\n" )
f.write( MOL.save_string_xyz() )
f.close()
--------------------------------------------------------------------------

  Memory set to   2.000 GiB by Python script.
gradient() will perform analytic gradient computation.

*** tstart() called on cx1-3-14-1.cx1.hpc.ic.ac.uk
*** at Tue Jul  5 16:29:02 2016


         ---------------------------------------------------------
                                   SCF
            by Justin Turney, Rob Parrish, and Andy Simmonett
                              RHF Reference
                        1 Threads,   2000 MiB Core
         ---------------------------------------------------------

  ==> Geometry <==

    Molecular point group: c1
    Full point group: C1

    Geometry (in Angstrom), charge = 0, multiplicity = 1:

       Center              X                  Y                   Z               Mass       
    ------------   -----------------  -----------------  -----------------  -----------------
           O          3.225701150485     0.971076335359    -0.599021166609    15.994914619560
           C          2.701701150485     0.058076335359    -0.047021166609    12.000000000000
           C          1.245701150485    -0.013923664641     0.345978833391    12.000000000000
           O          3.347701150485    -1.046923664641     0.303978833391    15.994914619560
           C          0.455701150485     1.231076335359    -0.050021166609    12.000000000000
           H          0.838701150485    -0.913923664641    -0.104021166609     1.007825032070
           H          1.207701150485    -0.175923664641     1.419978833391     1.007825032070
           C         -0.999298849515     1.219076335359     0.432978833391    12.000000000000
           H          0.482701150485     1.346076335359    -1.130021166609     1.007825032070
           H          0.957701150485     2.103076335359     0.355978833391     1.007825032070
           C         -1.883298849515     0.146076335359    -0.207021166609    12.000000000000
           H         -1.431298849515     2.195076335359     0.224978833391     1.007825032070
           H         -1.020298849515     1.106076335359     1.515978833391     1.007825032070
           C         -3.347298849515     0.246076335359     0.224978833391    12.000000000000
           H         -1.821298849515     0.231076335359    -1.291021166609     1.007825032070
           H         -1.510298849515    -0.844923664641     0.042978833391     1.007825032070
           C         -4.240298849515    -0.825923664641    -0.404021166609    12.000000000000
           H         -3.733298849515     1.231076335359    -0.035021166609     1.007825032070
           H         -3.409298849515     0.172076335359     1.309978833391     1.007825032070
           C         -5.701298849515    -0.716923664641     0.029978833391    12.000000000000
           H         -4.179298849515    -0.753923664641    -1.488021166609     1.007825032070
           H         -3.859298849515    -1.810923664641    -0.142021166609     1.007825032070
           H         -6.308298849515    -1.488923664641    -0.432021166609     1.007825032070
           H         -6.122298849515     0.245076335359    -0.250021166609     1.007825032070
           H         -5.799298849515    -0.818923664641     1.106978833391     1.007825032070
           C          4.727701150485    -1.108923664641    -0.006021166609    12.000000000000
           H          4.881701150485    -1.032923664641    -1.072021166609     1.007825032070
           H          5.068701150485    -2.067923664641     0.353978833391     1.007825032070
           H          5.264701150485    -0.311923664641     0.487978833391     1.007825032070

  Running in c1 symmetry.

  Rotational constants: A =      0.10860  B =      0.00933  C =      0.00885 [cm^-1]
  Rotational constants: A =   3255.74162  B =    279.83244  C =    265.39572 [MHz]
  Nuclear repulsion =  610.189854349361553

  Charge       = 0
  Multiplicity = 1
  Electrons    = 88
  Nalpha       = 44
  Nbeta        = 44

  ==> Algorithm <==

  SCF Algorithm Type is DF.
  DIIS enabled.
  MOM disabled.
  Fractional occupation disabled.
  Guess Type is CORE.
  Energy threshold   = 1.00e-08
  Density threshold  = 1.00e-08
  Integral threshold = 0.00e+00

  ==> Primary Basis <==

  Basis Set: 6-31G*
    Number of shells: 102
    Number of basis function: 201
    Number of Cartesian functions: 201
    Spherical Harmonics?: false
    Max angular momentum: 2

  ==> Pre-Iterations <==

   -------------------------------------------------------
    Irrep   Nso     Nmo     Nalpha   Nbeta   Ndocc  Nsocc
   -------------------------------------------------------
     A        201     201       0       0       0       0
   -------------------------------------------------------
    Total     201     201      44      44      44       0
   -------------------------------------------------------

 OEINTS: Overlap, kinetic, potential, dipole, and quadrupole integrals
         stored in file 35.

  ==> Integral Setup <==

  ==> DFJK: Density-Fitted J/K Matrices <==

    J tasked:                  Yes
    K tasked:                  Yes
    wK tasked:                  No
    OpenMP threads:              1
    Integrals threads:           1
    Memory (MB):              1430
    Algorithm:                Core
    Integral Cache:           NONE
    Schwarz Cutoff:          1E-12
    Fitting Condition:       1E-12

   => Auxiliary Basis Set <=

  Basis Set: 
    Number of shells: 426
    Number of basis function: 1341
    Number of Cartesian functions: 1341
    Spherical Harmonics?: false
    Max angular momentum: 3

  Minimum eigenvalue in the overlap matrix is 2.4511327404E-03.
  Using Symmetric Orthogonalization.
  SCF Guess: Core (One-Electron) Hamiltonian.

  ==> Iterations <==

                           Total Energy        Delta E     RMS |[F,P]|

   @DF-RHF iter   1:  -322.90462451456301   -3.22905e+02   5.93538e-02 
   @DF-RHF iter   2:   125.37640829777695    4.48281e+02   7.83181e-02 DIIS
   @DF-RHF iter   3:  -189.62108317107015   -3.14997e+02   5.74095e-02 DIIS
   @DF-RHF iter   4:  -291.51166591155823   -1.01891e+02   5.77714e-02 DIIS
   @DF-RHF iter   5:  -432.64354220987900   -1.41132e+02   4.11683e-02 DIIS
   @DF-RHF iter   6:  -441.58458085403925   -8.94104e+00   3.07672e-02 DIIS
   @DF-RHF iter   7:  -469.29327242396687   -2.77087e+01   1.96738e-02 DIIS
   @DF-RHF iter   8:  -436.17807226096431    3.31152e+01   2.88227e-02 DIIS
   @DF-RHF iter   9:  -491.35043040857306   -5.51724e+01   1.32746e-02 DIIS
   @DF-RHF iter  10:  -500.90572532060526   -9.55529e+00   2.42175e-03 DIIS
   @DF-RHF iter  11:  -501.01295259585720   -1.07227e-01   1.08679e-03 DIIS
   @DF-RHF iter  12:  -501.03369926667449   -2.07467e-02   5.84593e-04 DIIS
   @DF-RHF iter  13:  -501.04025688707873   -6.55762e-03   3.56434e-04 DIIS
   @DF-RHF iter  14:  -501.04283319870785   -2.57631e-03   2.00697e-04 DIIS
   @DF-RHF iter  15:  -501.04403481952602   -1.20162e-03   4.61752e-05 DIIS
   @DF-RHF iter  16:  -501.04410215569135   -6.73362e-05   1.24835e-05 DIIS
   @DF-RHF iter  17:  -501.04410778404451   -5.62835e-06   3.94300e-06 DIIS
   @DF-RHF iter  18:  -501.04410835440251   -5.70358e-07   1.27998e-06 DIIS
   @DF-RHF iter  19:  -501.04410841318384   -5.87813e-08   2.62789e-07 DIIS
   @DF-RHF iter  20:  -501.04410841676724   -3.58341e-09   7.75845e-08 DIIS
   @DF-RHF iter  21:  -501.04410841709284   -3.25599e-10   2.87701e-08 DIIS
   @DF-RHF iter  22:  -501.04410841713241   -3.95630e-11   1.13954e-08 DIIS
   @DF-RHF iter  23:  -501.04410841714105   -8.64020e-12   2.96581e-09 DIIS

  ==> Post-Iterations <==

    Orbital Energies (a.u.)
    -----------------------

    Doubly Occupied:                                                      

       1A    -20.603513     2A    -20.545306     3A    -11.372062  
       4A    -11.280665     5A    -11.234734     6A    -11.219165  
       7A    -11.217591     8A    -11.216028     9A    -11.215896  
      10A    -11.214611    11A    -11.209050    12A     -1.469200  
      13A     -1.362730    14A     -1.098055    15A     -1.066727  
      16A     -1.019548    17A     -0.977257    18A     -0.928501  
      19A     -0.861512    20A     -0.799228    21A     -0.790413  
      22A     -0.763879    23A     -0.700772    24A     -0.682416  
      25A     -0.672284    26A     -0.650812    27A     -0.628762  
      28A     -0.604636    29A     -0.594958    30A     -0.580888  
      31A     -0.567042    32A     -0.549158    33A     -0.531866  
      34A     -0.530464    35A     -0.516069    36A     -0.511781  
      37A     -0.496387    38A     -0.477650    39A     -0.470116  
      40A     -0.462330    41A     -0.458795    42A     -0.455880  
      43A     -0.441248    44A     -0.435408  

    Virtual:                                                              

      45A      0.199191    46A      0.225649    47A      0.236853  
      48A      0.257934    49A      0.262773    50A      0.268217  
      51A      0.277699    52A      0.297431    53A      0.303556  
      54A      0.309706    55A      0.317246    56A      0.322083  
      57A      0.326694    58A      0.336203    59A      0.340960  
      60A      0.343736    61A      0.351742    62A      0.353057  
      63A      0.365960    64A      0.375493    65A      0.391546  
      66A      0.407245    67A      0.428055    68A      0.449063  
      69A      0.459229    70A      0.468674    71A      0.497971  
      72A      0.538957    73A      0.583546    74A      0.692087  
      75A      0.704033    76A      0.726316    77A      0.733714  
      78A      0.738699    79A      0.752691    80A      0.765312  
      81A      0.775550    82A      0.789184    83A      0.798773  
      84A      0.817989    85A      0.828195    86A      0.863351  
      87A      0.865177    88A      0.916296    89A      0.936723  
      90A      0.949609    91A      0.962824    92A      0.974601  
      93A      0.987301    94A      1.008021    95A      1.032616  
      96A      1.049069    97A      1.080197    98A      1.102189  
      99A      1.113808   100A      1.122259   101A      1.126749  
     102A      1.130355   103A      1.138326   104A      1.143205  
     105A      1.163319   106A      1.174419   107A      1.178906  
     108A      1.182685   109A      1.196560   110A      1.200178  
     111A      1.209885   112A      1.213449   113A      1.218109  
     114A      1.226093   115A      1.228216   116A      1.242238  
     117A      1.255599   118A      1.262181   119A      1.281247  
     120A      1.283379   121A      1.304493   122A      1.325702  
     123A      1.377574   124A      1.410901   125A      1.444665  
     126A      1.472139   127A      1.558705   128A      1.608345  
     129A      1.643470   130A      1.664876   131A      1.685679  
     132A      1.693756   133A      1.735889   134A      1.762424  
     135A      1.801193   136A      1.816981   137A      1.866267  
     138A      1.886643   139A      1.891601   140A      1.940357  
     141A      2.000496   142A      2.022557   143A      2.063838  
     144A      2.102234   145A      2.116988   146A      2.126064  
     147A      2.171699   148A      2.181096   149A      2.207304  
     150A      2.230213   151A      2.235637   152A      2.260421  
     153A      2.272829   154A      2.288507   155A      2.304668  
     156A      2.324388   157A      2.338617   158A      2.353821  
     159A      2.377666   160A      2.398116   161A      2.404171  
     162A      2.414904   163A      2.448158   164A      2.459906  
     165A      2.518172   166A      2.571971   167A      2.587512  
     168A      2.626467   169A      2.644692   170A      2.668635  
     171A      2.686525   172A      2.698060   173A      2.732509  
     174A      2.764909   175A      2.789566   176A      2.793012  
     177A      2.827714   178A      2.848534   179A      2.905871  
     180A      2.935135   181A      2.964744   182A      3.003604  
     183A      3.049118   184A      3.067781   185A      3.149730  
     186A      3.165414   187A      3.204917   188A      3.349951  
     189A      3.451109   190A      3.581300   191A      4.417139  
     192A      4.541997   193A      4.588149   194A      4.626061  
     195A      4.678808   196A      4.731492   197A      4.785736  
     198A      4.838821   199A      4.876217   200A      4.968155  
     201A      5.034819  

    Final Occupation by Irrep:
              A 
    DOCC [    44 ]

  Energy converged.

  @DF-RHF Final Energy:  -501.04410841714105

   => Energetics <=

    Nuclear Repulsion Energy =            610.1898543493615534
    One-Electron Energy =               -1891.4971347860885089
    Two-Electron Energy =                 780.2631720195869320
    DFT Exchange-Correlation Energy =       0.0000000000000000
    Empirical Dispersion Energy =           0.0000000000000000
    PCM Polarization Energy =               0.0000000000000000
    EFP Energy =                            0.0000000000000000
    Total Energy =                       -501.0441084171401371

    Alert: EFP and PCM quantities not currently incorporated into SCF psivars.

Properties will be evaluated at   0.000000,   0.000000,   0.000000 Bohr
  ==> Properties <==


Properties computed using the SCF density matrix

  Nuclear Dipole Moment: (a.u.)
     X:   -19.1794      Y:    -1.4915      Z:     0.8185

  Electronic Dipole Moment: (a.u.)
     X:    19.0330      Y:     0.8767      Z:    -0.5121

  Dipole Moment: (a.u.)
     X:    -0.1464      Y:    -0.6148      Z:     0.3064     Total:     0.7024

  Dipole Moment: (Debye)
     X:    -0.3721      Y:    -1.5628      Z:     0.7789     Total:     1.7853


  Saving occupied orbitals to File 180.

*** tstop() called on cx1-3-14-1.cx1.hpc.ic.ac.uk at Tue Jul  5 16:29:55 2016
Module time:
	user time   =      51.61 seconds =       0.86 minutes
	system time =       0.53 seconds =       0.01 minutes
	total time  =         53 seconds =       0.88 minutes
Total time:
	user time   =      51.61 seconds =       0.86 minutes
	system time =       0.53 seconds =       0.01 minutes
	total time  =         53 seconds =       0.88 minutes

*** tstart() called on cx1-3-14-1.cx1.hpc.ic.ac.uk
*** at Tue Jul  5 16:29:55 2016


         ------------------------------------------------------------
                                   SCF GRAD                          
                          Rob Parrish, Justin Turney,                
                       Andy Simmonett, and Alex Sokolov              
         ------------------------------------------------------------

  ==> Geometry <==

    Molecular point group: c1
    Full point group: C1

    Geometry (in Angstrom), charge = 0, multiplicity = 1:

       Center              X                  Y                   Z               Mass       
    ------------   -----------------  -----------------  -----------------  -----------------
           O          3.225701150485     0.971076335359    -0.599021166609    15.994914619560
           C          2.701701150485     0.058076335359    -0.047021166609    12.000000000000
           C          1.245701150485    -0.013923664641     0.345978833391    12.000000000000
           O          3.347701150485    -1.046923664641     0.303978833391    15.994914619560
           C          0.455701150485     1.231076335359    -0.050021166609    12.000000000000
           H          0.838701150485    -0.913923664641    -0.104021166609     1.007825032070
           H          1.207701150485    -0.175923664641     1.419978833391     1.007825032070
           C         -0.999298849515     1.219076335359     0.432978833391    12.000000000000
           H          0.482701150485     1.346076335359    -1.130021166609     1.007825032070
           H          0.957701150485     2.103076335359     0.355978833391     1.007825032070
           C         -1.883298849515     0.146076335359    -0.207021166609    12.000000000000
           H         -1.431298849515     2.195076335359     0.224978833391     1.007825032070
           H         -1.020298849515     1.106076335359     1.515978833391     1.007825032070
           C         -3.347298849515     0.246076335359     0.224978833391    12.000000000000
           H         -1.821298849515     0.231076335359    -1.291021166609     1.007825032070
           H         -1.510298849515    -0.844923664641     0.042978833391     1.007825032070
           C         -4.240298849515    -0.825923664641    -0.404021166609    12.000000000000
           H         -3.733298849515     1.231076335359    -0.035021166609     1.007825032070
           H         -3.409298849515     0.172076335359     1.309978833391     1.007825032070
           C         -5.701298849515    -0.716923664641     0.029978833391    12.000000000000
           H         -4.179298849515    -0.753923664641    -1.488021166609     1.007825032070
           H         -3.859298849515    -1.810923664641    -0.142021166609     1.007825032070
           H         -6.308298849515    -1.488923664641    -0.432021166609     1.007825032070
           H         -6.122298849515     0.245076335359    -0.250021166609     1.007825032070
           H         -5.799298849515    -0.818923664641     1.106978833391     1.007825032070
           C          4.727701150485    -1.108923664641    -0.006021166609    12.000000000000
           H          4.881701150485    -1.032923664641    -1.072021166609     1.007825032070
           H          5.068701150485    -2.067923664641     0.353978833391     1.007825032070
           H          5.264701150485    -0.311923664641     0.487978833391     1.007825032070

  Nuclear repulsion =  610.189854349361553

  ==> Basis Set <==

  Basis Set: 6-31G*
    Number of shells: 102
    Number of basis function: 201
    Number of Cartesian functions: 201
    Spherical Harmonics?: false
    Max angular momentum: 2

  ==> DFJKGrad: Density-Fitted SCF Gradients <==

    Gradient:                    1
    J tasked:                  Yes
    K tasked:                  Yes
    wK tasked:                  No
    OpenMP threads:              1
    Integrals threads:           1
    Memory (MB):              1430
    Schwarz Cutoff:          0E+00
    Fitting Condition:       1E-12

   => Auxiliary Basis Set <=

  Basis Set: 
    Number of shells: 426
    Number of basis function: 1341
    Number of Cartesian functions: 1341
    Spherical Harmonics?: false
    Max angular momentum: 3


  -Total Gradient:
     Atom            X                  Y                   Z
    ------   -----------------  -----------------  -----------------
       1       -0.000258413944     0.000049531468    -0.000010366183
       2        0.000660274944     0.000134376190    -0.000137113960
       3        0.000047006953     0.000306542555     0.000393668469
       4       -0.000151543391    -0.000227115211     0.000089799695
       5        0.000428815291    -0.000517578855     0.000330254752
       6       -0.000147275419    -0.000229319595    -0.000133441516
       7       -0.000067120658     0.000019481421    -0.000158513065
       8       -0.000637467941    -0.000351413182    -0.000373393402
       9       -0.000116697744     0.000140051943    -0.000382258855
      10        0.000154738171     0.000212600400     0.000063331445
      11       -0.000048293802     0.000574955235     0.000257706543
      12        0.000004471529    -0.000075937346     0.000119849092
      13        0.000017506992     0.000089188646     0.000004822404
      14        0.000775703944    -0.000171107546    -0.000006289414
      15        0.000060724285    -0.000024647227    -0.000086414907
      16        0.000093730291    -0.000194507147     0.000023158379
      17       -0.000492220453    -0.000041018923    -0.000036997368
      18       -0.000236297841     0.000415804655    -0.000149193317
      19       -0.000088509998    -0.000048218458     0.000272180808
      20        0.000147328894    -0.000585293147     0.000185495823
      21        0.000046334203     0.000024583201    -0.000107628209
      22       -0.000005619648    -0.000063960025     0.000049068149
      23        0.000066231342     0.000252673937     0.000059731390
      24       -0.000101369302     0.000198313443    -0.000170964700
      25        0.000019651983     0.000001128407    -0.000085398032
      26       -0.000368826167     0.000576764711    -0.000780648130
      27       -0.000042811259    -0.000014846937     0.000554490931
      28        0.000195050593    -0.000431491766     0.000211298292
      29        0.000044898138    -0.000019540854     0.000003764882


*** tstop() called on cx1-3-14-1.cx1.hpc.ic.ac.uk at Tue Jul  5 16:30:50 2016
Module time:
	user time   =      55.20 seconds =       0.92 minutes
	system time =       0.28 seconds =       0.00 minutes
	total time  =         55 seconds =       0.92 minutes
Total time:
	user time   =     106.82 seconds =       1.78 minutes
	system time =       0.81 seconds =       0.01 minutes
	total time  =        108 seconds =       1.80 minutes
CURRENT ENERGY: -501.0441084171

			-----------------------------------------
			 OPTKING 2.0: for geometry optimizations 
			  - R.A. King,  Bethel University        
			-----------------------------------------

	Internal coordinates to be generated automatically.
	Detected frag with atoms:  1 2 3 4 5 6 7 8 9 10 11 12 13 14 15 16 17 18 19 20
	 21 22 23 24 25 26 27 28 29
	---Fragment 1 Bond Connectivity---
	 1 : 2
	 2 : 1 3 4
	 3 : 2 5 6 7
	 4 : 2 26
	 5 : 3 8 9 10
	 6 : 3
	 7 : 3
	 8 : 5 11 12 13
	 9 : 5
	 10 : 5
	 11 : 8 14 15 16
	 12 : 8
	 13 : 8
	 14 : 11 17 18 19
	 15 : 11
	 16 : 11
	 17 : 14 20 21 22
	 18 : 14
	 19 : 14
	 20 : 17 23 24 25
	 21 : 17
	 22 : 17
	 23 : 20
	 24 : 20
	 25 : 20
	 26 : 4 27 28 29
	 27 : 26
	 28 : 26
	 29 : 26

	---Fragment 1 Geometry and Gradient---
	 O           6.0956917610        1.8350683280       -1.1319859527
	 C           5.1054752673        0.1097483686       -0.0888571273
	 C           2.3540340178       -0.0263119129        0.6538052429
	 O           6.3262383492       -1.9783990082        0.5744367453
	 C           0.8611503729        2.3263971225       -0.0945263057
	 H           1.5849154818       -1.7270654325       -0.1965715169
	 H           2.2822244248       -0.3324475465        2.6833711096
	 C          -1.8884011505        2.3037204089        0.8182114164
	 H           0.9121729784        2.5437156278       -2.1354305293
	 H           1.8097928916        3.9742383104        0.6727025042
	 C          -3.5589190520        0.2760442683       -0.3912133086
	 H          -2.7047628399        4.1480931146        0.4251483808
	 H          -1.9280853993        2.0901813559        2.8647848184
	 C          -6.3254781105        0.4650168816        0.4251483808
	 H          -3.4417560317        0.4366709896       -2.4396764366
	 H          -2.8540512044       -1.5966743294        0.0812182246
	 C          -8.0130035472       -1.5607695328       -0.7634893568
	 H          -7.0549123978        2.3263971225       -0.0661804137
	 H          -6.4426411307        0.3251771478        2.4755012350
	 C         -10.7738934273       -1.3547893844        0.0566517849
	 H          -7.8977302531       -1.4247092513       -2.8119524848
	 H          -7.2930178905       -3.4221497737       -0.2683811100
	 H         -11.9209571900       -2.8136579589       -0.8164016885
	 H         -11.5694681293        0.4631271555       -0.4724715323
	 H         -10.9590865883       -1.5475414499        2.0918868300
	 C           8.9340604125       -2.0955620284       -0.0113783559
	 H           9.2250782370       -1.9519428423       -2.0258264135
	 H           9.5784570239       -3.9078093899        0.6689230519
	 H           9.9488433459       -0.5894503005        0.9221463538
	            -0.0002584139        0.0000495315       -0.0000103662
	             0.0006602749        0.0001343762       -0.0001371140
	             0.0000470070        0.0003065426        0.0003936685
	            -0.0001515434       -0.0002271152        0.0000897997
	             0.0004288153       -0.0005175789        0.0003302548
	            -0.0001472754       -0.0002293196       -0.0001334415
	            -0.0000671207        0.0000194814       -0.0001585131
	            -0.0006374679       -0.0003514132       -0.0003733934
	            -0.0001166977        0.0001400519       -0.0003822589
	             0.0001547382        0.0002126004        0.0000633314
	            -0.0000482938        0.0005749552        0.0002577065
	             0.0000044715       -0.0000759373        0.0001198491
	             0.0000175070        0.0000891886        0.0000048224
	             0.0007757039       -0.0001711075       -0.0000062894
	             0.0000607243       -0.0000246472       -0.0000864149
	             0.0000937303       -0.0001945071        0.0000231584
	            -0.0004922205       -0.0000410189       -0.0000369974
	            -0.0002362978        0.0004158047       -0.0001491933
	            -0.0000885100       -0.0000482185        0.0002721808
	             0.0001473289       -0.0005852931        0.0001854958
	             0.0000463342        0.0000245832       -0.0001076282
	            -0.0000056196       -0.0000639600        0.0000490681
	             0.0000662313        0.0002526739        0.0000597314
	            -0.0001013693        0.0001983134       -0.0001709647
	             0.0000196520        0.0000011284       -0.0000853980
	            -0.0003688262        0.0005767647       -0.0007806481
	            -0.0000428113       -0.0000148469        0.0005544909
	             0.0001950506       -0.0004314918        0.0002112983
	             0.0000448981       -0.0000195409        0.0000037649

	Previous optimization step data not found.  Starting new optimization.

	---Fragment 1 Intrafragment Coordinates---
	 - Coordinate -           - BOHR/RAD -       - ANG/DEG -
	 R(1,2)           =         2.246191	       1.188633
	 R(2,3)           =         2.853154	       1.509824
	 R(2,4)           =         2.508103	       1.327231
	 R(3,5)           =         2.885124	       1.526742
	 R(3,6)           =         2.051157	       1.085426
	 R(3,7)           =         2.053780	       1.086814
	 R(4,26)          =         2.675377	       1.415749
	 R(5,8)           =         2.897178	       1.533120
	 R(5,9)           =         2.053076	       1.086441
	 R(5,10)          =         2.050352	       1.085000
	 R(8,11)          =         2.892198	       1.530485
	 R(8,12)          =         2.054910	       1.087412
	 R(8,13)          =         2.058066	       1.089082
	 R(11,14)         =         2.890676	       1.529680
	 R(11,15)         =         2.058089	       1.089094
	 R(11,16)         =         2.055993	       1.087984
	 R(14,17)         =         2.892129	       1.530449
	 R(14,18)         =         2.058692	       1.089413
	 R(14,19)         =         2.058453	       1.089287
	 R(17,20)         =         2.887485	       1.527992
	 R(17,21)         =         2.056210	       1.088100
	 R(17,22)         =         2.056270	       1.088132
	 R(20,23)         =         2.050921	       1.085301
	 R(20,24)         =         2.053712	       1.086777
	 R(20,25)         =         2.052713	       1.086249
	 R(26,27)         =         2.040421	       1.079744
	 R(26,28)         =         2.040171	       1.079612
	 R(26,29)         =         2.041966	       1.080562
	 B(1,2,3)         =         2.192766	     125.636222
	 B(1,2,4)         =         2.150459	     123.212253
	 B(2,3,5)         =         1.974246	     113.115973
	 B(2,3,6)         =         1.868397	     107.051288
	 B(2,3,7)         =         1.873448	     107.340683
	 B(2,4,26)        =         2.040913	     116.935693
	 B(3,2,4)         =         1.939960	     111.151517
	 B(3,5,8)         =         1.985565	     113.764475
	 B(3,5,9)         =         1.908473	     109.347432
	 B(3,5,10)        =         1.895379	     108.597202
	 B(4,26,27)       =         1.930632	     110.617077
	 B(4,26,28)       =         1.848101	     105.888406
	 B(4,26,29)       =         1.930514	     110.610294
	 B(5,3,6)         =         1.954759	     111.999443
	 B(5,3,7)         =         1.938826	     111.086567
	 B(5,8,11)        =         2.006347	     114.955199
	 B(5,8,12)        =         1.885720	     108.043789
	 B(5,8,13)        =         1.909640	     109.414290
	 B(6,3,7)         =         1.847296	     105.842259
	 B(8,5,9)         =         1.915152	     109.730111
	 B(8,5,10)        =         1.904453	     109.117145
	 B(8,11,14)       =         1.970197	     112.883997
	 B(8,11,15)       =         1.905632	     109.184653
	 B(8,11,16)       =         1.922483	     110.150137
	 B(9,5,10)        =         1.849809	     105.986247
	 B(11,8,12)       =         1.896319	     108.651095
	 B(11,8,13)       =         1.909170	     109.387356
	 B(11,14,17)      =         1.978581	     113.364334
	 B(11,14,18)      =         1.907961	     109.318115
	 B(11,14,19)      =         1.908513	     109.349750
	 B(12,8,13)       =         1.850091	     106.002424
	 B(14,11,15)      =         1.907601	     109.297477
	 B(14,11,16)      =         1.899449	     108.830393
	 B(14,17,20)      =         1.972737	     113.029526
	 B(14,17,21)      =         1.907505	     109.291967
	 B(14,17,22)      =         1.907946	     109.317265
	 B(15,11,16)      =         1.854883	     106.276942
	 B(17,14,18)      =         1.905497	     109.176914
	 B(17,14,19)      =         1.905594	     109.182470
	 B(17,20,23)      =         1.942409	     111.291866
	 B(17,20,24)      =         1.939457	     111.122678
	 B(17,20,25)      =         1.940329	     111.172641
	 B(18,14,19)      =         1.853526	     106.199196
	 B(20,17,21)      =         1.909056	     109.380840
	 B(20,17,22)      =         1.908133	     109.327986
	 B(21,17,22)      =         1.854738	     106.268687
	 B(23,20,24)      =         1.878969	     107.656975
	 B(23,20,25)      =         1.880537	     107.746810
	 B(24,20,25)      =         1.879285	     107.675123
	 B(27,26,28)      =         1.924829	     110.284561
	 B(27,26,29)      =         1.905568	     109.181031
	 B(28,26,29)      =         1.923851	     110.228546
	 D(1,2,3,5)       =         0.009423	       0.539910
	 D(1,2,3,6)       =         2.170928	     124.385012
	 D(1,2,3,7)       =        -2.135496	    -122.354883
	 D(1,2,4,26)      =         0.002197	       0.125889
	 D(2,3,5,8)       =        -3.066911	    -175.721062
	 D(2,3,5,9)       =         1.068434	      61.216784
	 D(2,3,5,10)      =        -0.942560	     -54.004730
	 D(2,4,26,27)     =        -1.057445	     -60.587115
	 D(2,4,26,28)     =         3.140324	     179.927339
	 D(2,4,26,29)     =         1.056142	      60.512490
	 D(3,2,4,26)      =        -3.139976	    -179.907385
	 D(3,5,8,11)      =        -1.156005	     -66.234206
	 D(3,5,8,12)      =         3.006512	     172.260450
	 D(3,5,8,13)      =         0.999814	      57.285110
	 D(4,2,3,5)       =        -3.131572	    -179.425838
	 D(4,2,3,6)       =        -0.970067	     -55.580736
	 D(4,2,3,7)       =         1.006695	      57.679369
	 D(5,8,11,14)     =        -3.062817	    -175.486469
	 D(5,8,11,15)     =        -0.937357	     -53.706613
	 D(5,8,11,16)     =         1.093253	      62.638780
	 D(6,3,5,8)       =         1.102926	      63.193006
	 D(6,3,5,9)       =        -1.044914	     -59.869148
	 D(6,3,5,10)      =        -3.055909	    -175.090662
	 D(7,3,5,8)       =        -0.958687	     -54.928692
	 D(7,3,5,9)       =        -3.106526	    -177.990845
	 D(7,3,5,10)      =         1.165664	      66.787641
	 D(8,11,14,17)    =        -3.137191	    -179.747825
	 D(8,11,14,18)    =         1.015873	      58.205234
	 D(8,11,14,19)    =        -1.006543	     -57.670657
	 D(9,5,8,11)      =         0.988179	      56.618484
	 D(9,5,8,12)      =        -1.132489	     -64.886859
	 D(9,5,8,13)      =        -3.139188	    -179.862199
	 D(10,5,8,11)     =         3.007873	     172.338436
	 D(10,5,8,12)     =         0.887205	      50.833093
	 D(10,5,8,13)     =        -1.119493	     -64.142247
	 D(11,14,17,20)   =        -3.139196	    -179.862708
	 D(11,14,17,21)   =        -1.008820	     -57.801133
	 D(11,14,17,22)   =         1.014476	      58.125214
	 D(12,8,11,14)    =        -0.947921	     -54.311862
	 D(12,8,11,15)    =         1.177539	      67.467995
	 D(12,8,11,16)    =        -3.075036	    -176.186612
	 D(13,8,11,14)    =         1.064300	      60.979897
	 D(13,8,11,15)    =        -3.093426	    -177.240246
	 D(13,8,11,16)    =        -1.062816	     -60.894853
	 D(14,17,20,23)   =         3.141272	     179.981637
	 D(14,17,20,24)   =         1.047404	      60.011824
	 D(14,17,20,25)   =        -1.045472	     -59.901108
	 D(15,11,14,17)   =         1.021645	      58.535962
	 D(15,11,14,18)   =        -1.108476	     -63.510979
	 D(15,11,14,19)   =        -3.130892	    -179.386871
	 D(16,11,14,17)   =        -0.997152	     -57.132610
	 D(16,11,14,18)   =        -3.127273	    -179.179551
	 D(16,11,14,19)   =         1.133496	      64.944558
	 D(18,14,17,20)   =        -1.007703	     -57.737129
	 D(18,14,17,21)   =         1.122673	      64.324445
	 D(18,14,17,22)   =        -3.137215	    -179.749207
	 D(19,14,17,20)   =         1.011715	      57.967002
	 D(19,14,17,21)   =        -3.141094	    -179.971423
	 D(19,14,17,22)   =        -1.117797	     -64.045076
	 D(21,17,20,23)   =         1.011766	      57.969900
	 D(21,17,20,24)   =        -1.082103	     -61.999914
	 D(21,17,20,25)   =         3.108207	     178.087155
	 D(22,17,20,23)   =        -1.012506	     -58.012298
	 D(22,17,20,24)   =        -3.106374	    -177.982112
	 D(22,17,20,25)   =         1.083936	      62.104957

	Current energy   :      -501.0441084171

	Generating empirical Hessian (Schlegel '84) for each fragment.
	Taking RFO optimization step.
	Going to follow RFO solution 1.
	Using RFO vector 1.
	Norm of target step-size    0.01498
	Projected energy change by RFO approximation:        -0.0000107932

	Back-transformation to cartesian coordinates...
	Successfully converged to displaced geometry.

	--- Internal Coordinate Step in ANG or DEG, aJ/ANG or AJ/DEG ---
	 ---------------------------------------------------------------------------
	   Coordinate                Previous        Force       Change         New 
	   ----------                --------       ------       ------       ------
	    1 R(1,2)          =      1.188633     0.000585     0.000034     1.188667
	    2 R(2,3)          =      1.509824    -0.000799    -0.000164     1.509661
	    3 R(2,4)          =      1.327231     0.000327     0.000035     1.327266
	    4 R(3,5)          =      1.526742     0.001412     0.000305     1.527047
	    5 R(3,6)          =      1.085426    -0.002477    -0.000450     1.084976
	    6 R(3,7)          =      1.086814     0.001295     0.000236     1.087050
	    7 R(4,26)         =      1.415749     0.001399     0.000208     1.415957
	    8 R(5,8)          =      1.533120    -0.002841    -0.000626     1.532494
	    9 R(5,9)          =      1.086441    -0.003229    -0.000589     1.085852
	   10 R(5,10)         =      1.085000    -0.002193    -0.000398     1.084602
	   11 R(8,11)         =      1.530485     0.003790     0.000829     1.531314
	   12 R(8,12)         =      1.087412     0.000765     0.000140     1.087552
	   13 R(8,13)         =      1.089082     0.000040     0.000007     1.089089
	   14 R(11,14)        =      1.529680     0.001021     0.000223     1.529902
	   15 R(11,15)        =      1.089094    -0.000721    -0.000133     1.088961
	   16 R(11,16)        =      1.087984    -0.001768    -0.000324     1.087660
	   17 R(14,17)        =      1.530449    -0.003130    -0.000684     1.529765
	   18 R(14,18)        =      1.089413    -0.004081    -0.000751     1.088662
	   19 R(14,19)        =      1.089287    -0.002302    -0.000424     1.088863
	   20 R(17,20)        =      1.527992     0.001143     0.000248     1.528240
	   21 R(17,21)        =      1.088100    -0.000918    -0.000168     1.087931
	   22 R(17,22)        =      1.088132    -0.000558    -0.000102     1.088029
	   23 R(20,23)        =      1.085301     0.001995     0.000362     1.085663
	   24 R(20,24)        =      1.086777    -0.002133    -0.000389     1.086388
	   25 R(20,25)        =      1.086249     0.000713     0.000130     1.086379
	   26 R(26,27)        =      1.079744     0.004569     0.000815     1.080559
	   27 R(26,28)        =      1.079612    -0.004246    -0.000757     1.078855
	   28 R(26,29)        =      1.080562    -0.000079    -0.000014     1.080548
	   29 B(1,2,3)        =    125.636222     0.000013     0.039995   125.676217
	   30 B(1,2,4)        =    123.212253    -0.000029    -0.088404   123.123848
	   31 B(2,3,5)        =    113.115973     0.000007     0.022497   113.138470
	   32 B(2,3,6)        =    107.051288    -0.000003    -0.004477   107.046810
	   33 B(2,3,7)        =    107.340683    -0.000006    -0.053179   107.287504
	   34 B(2,4,26)       =    116.935693     0.000021     0.063440   116.999132
	   35 B(3,2,4)        =    111.151517     0.000016     0.047472   111.198989
	   36 B(3,5,8)        =    113.764475    -0.000003    -0.016558   113.747916
	   37 B(3,5,9)        =    109.347432    -0.000008    -0.058976   109.288457
	   38 B(3,5,10)       =    108.597202     0.000004     0.003974   108.601176
	   39 B(4,26,27)      =    110.617077    -0.000004    -0.022524   110.594553
	   40 B(4,26,28)      =    105.888406    -0.000001    -0.005338   105.883068
	   41 B(4,26,29)      =    110.610294    -0.000003    -0.009436   110.600857
	   42 B(5,3,6)        =    111.999443     0.000001     0.028983   112.028426
	   43 B(5,3,7)        =    111.086567     0.000000    -0.001851   111.084716
	   44 B(5,8,11)       =    114.955199    -0.000005    -0.032626   114.922573
	   45 B(5,8,12)       =    108.043789    -0.000001    -0.027087   108.016702
	   46 B(5,8,13)       =    109.414290     0.000005     0.030599   109.444889
	   47 B(6,3,7)        =    105.842259     0.000001     0.003646   105.845905
	   48 B(8,5,9)        =    109.730111     0.000010     0.071496   109.801607
	   49 B(8,5,10)       =    109.117145    -0.000003    -0.019971   109.097174
	   50 B(8,11,14)      =    112.883997     0.000003     0.005260   112.889258
	   51 B(8,11,15)      =    109.184653     0.000000    -0.000251   109.184402
	   52 B(8,11,16)      =    110.150137    -0.000000     0.010280   110.160417
	   53 B(9,5,10)       =    105.986247     0.000001     0.022218   106.008465
	   54 B(11,8,12)      =    108.651095     0.000002    -0.011478   108.639617
	   55 B(11,8,13)      =    109.387356    -0.000002    -0.012319   109.375037
	   56 B(11,14,17)     =    113.364334    -0.000006    -0.020348   113.343987
	   57 B(11,14,18)     =    109.318115    -0.000001    -0.013271   109.304844
	   58 B(11,14,19)     =    109.349750    -0.000002    -0.035868   109.313881
	   59 B(12,8,13)      =    106.002424     0.000003     0.060255   106.062679
	   60 B(14,11,15)     =    109.297477    -0.000004    -0.032553   109.264924
	   61 B(14,11,16)     =    108.830393    -0.000001    -0.004440   108.825953
	   62 B(14,17,20)     =    113.029526    -0.000008    -0.026256   113.003270
	   63 B(14,17,21)     =    109.291967     0.000005     0.012205   109.304172
	   64 B(14,17,22)     =    109.317265     0.000001     0.011927   109.329192
	   65 B(15,11,16)     =    106.276942     0.000002     0.022412   106.299354
	   66 B(17,14,18)     =    109.176914     0.000005     0.044384   109.221298
	   67 B(17,14,19)     =    109.182470     0.000005     0.029939   109.212409
	   68 B(17,20,23)     =    111.291866    -0.000007    -0.028033   111.263834
	   69 B(17,20,24)     =    111.122678     0.000006     0.040136   111.162814
	   70 B(17,20,25)     =    111.172641    -0.000000    -0.018431   111.154210
	   71 B(18,14,19)     =    106.199196    -0.000001    -0.003690   106.195505
	   72 B(20,17,21)     =    109.380840    -0.000001    -0.023702   109.357138
	   73 B(20,17,22)     =    109.327986     0.000005     0.032794   109.360780
	   74 B(21,17,22)     =    106.268687    -0.000002    -0.005747   106.262939
	   75 B(23,20,24)     =    107.656975     0.000005     0.058859   107.715834
	   76 B(23,20,25)     =    107.746810     0.000000    -0.023019   107.723790
	   77 B(24,20,25)     =    107.675123    -0.000004    -0.029097   107.646026
	   78 B(27,26,28)     =    110.284561    -0.000001    -0.009916   110.274645
	   79 B(27,26,29)     =    109.181031     0.000003     0.014252   109.195283
	   80 B(28,26,29)     =    110.228546     0.000005     0.032399   110.260945
	   81 D(1,2,3,5)      =      0.539910     0.000000     0.122895     0.662805
	   82 D(1,2,3,6)      =    124.385012     0.000001     0.171235   124.556247
	   83 D(1,2,3,7)      =   -122.354883     0.000000     0.148437  -122.206446
	   84 D(1,2,4,26)     =      0.125889    -0.000001    -0.221765    -0.095877
	   85 D(2,3,5,8)      =   -175.721062     0.000001     0.085013  -175.636049
	   86 D(2,3,5,9)      =     61.216784    -0.000000     0.048166    61.264950
	   87 D(2,3,5,10)     =    -54.004730     0.000000     0.051276   -53.953453
	   88 D(2,4,26,27)    =    -60.587115    -0.000000     0.067439   -60.519676
	   89 D(2,4,26,28)    =    179.927339     0.000001     0.094619   180.021959
	   90 D(2,4,26,29)    =     60.512490    -0.000000     0.064099    60.576588
	   91 D(3,2,4,26)     =   -179.907385     0.000000     0.147334  -179.760050
	   92 D(3,5,8,11)     =    -66.234206     0.000000    -0.154974   -66.389181
	   93 D(3,5,8,12)     =    172.260450     0.000001    -0.098277   172.162173
	   94 D(3,5,8,13)     =     57.285110    -0.000000    -0.170909    57.114201
	   95 D(4,2,3,5)      =   -179.425838    -0.000001    -0.257587  -179.683425
	   96 D(4,2,3,6)      =    -55.580736     0.000000    -0.209248   -55.789983
	   97 D(4,2,3,7)      =     57.679369    -0.000001    -0.232045    57.447324
	   98 D(5,8,11,14)    =   -175.486469     0.000001     0.035232  -175.451238
	   99 D(5,8,11,15)    =    -53.706613     0.000000    -0.002953   -53.709566
	  100 D(5,8,11,16)    =     62.638780     0.000001     0.029842    62.668622
	  101 D(6,3,5,8)      =     63.193006     0.000001     0.052931    63.245937
	  102 D(6,3,5,9)      =    -59.869148    -0.000000     0.016084   -59.853064
	  103 D(6,3,5,10)     =   -175.090662    -0.000000     0.019195  -175.071467
	  104 D(7,3,5,8)      =    -54.928692     0.000000     0.030625   -54.898067
	  105 D(7,3,5,9)      =   -177.990845    -0.000001    -0.006222  -177.997068
	  106 D(7,3,5,10)     =     66.787641    -0.000001    -0.003112    66.784529
	  107 D(8,11,14,17)   =   -179.747825     0.000000    -0.067882  -179.815707
	  108 D(8,11,14,18)   =     58.205234    -0.000001    -0.101376    58.103858
	  109 D(8,11,14,19)   =    -57.670657     0.000000    -0.069459   -57.740116
	  110 D(9,5,8,11)     =     56.618484    -0.000001    -0.189628    56.428856
	  111 D(9,5,8,12)     =    -64.886859    -0.000000    -0.132931   -65.019790
	  112 D(9,5,8,13)     =   -179.862199    -0.000001    -0.205563  -180.067762
	  113 D(10,5,8,11)    =    172.338436     0.000000    -0.134379   172.204057
	  114 D(10,5,8,12)    =     50.833093     0.000001    -0.077681    50.755411
	  115 D(10,5,8,13)    =    -64.142247    -0.000000    -0.150314   -64.292561
	  116 D(11,14,17,20)  =   -179.862708     0.000000     0.004965  -179.857742
	  117 D(11,14,17,21)  =    -57.801133    -0.000000    -0.034437   -57.835571
	  118 D(11,14,17,22)  =     58.125214    -0.000000    -0.027812    58.097402
	  119 D(12,8,11,14)   =    -54.311862    -0.000000    -0.030400   -54.342262
	  120 D(12,8,11,15)   =     67.467995    -0.000001    -0.068585    67.399410
	  121 D(12,8,11,16)   =   -176.186612    -0.000000    -0.035790  -176.222402
	  122 D(13,8,11,14)   =     60.979897     0.000000     0.028329    61.008226
	  123 D(13,8,11,15)   =   -177.240246    -0.000000    -0.009856  -177.250102
	  124 D(13,8,11,16)   =    -60.894853     0.000000     0.022940   -60.871913
	  125 D(14,17,20,23)  =    179.981637     0.000001     0.003926   179.985563
	  126 D(14,17,20,24)  =     60.011824    -0.000001    -0.078779    59.933045
	  127 D(14,17,20,25)  =    -59.901108    -0.000000    -0.056531   -59.957639
	  128 D(15,11,14,17)  =     58.535962     0.000000    -0.047908    58.488053
	  129 D(15,11,14,18)  =    -63.510979    -0.000000    -0.081402   -63.592382
	  130 D(15,11,14,19)  =   -179.386871     0.000000    -0.049486  -179.436356
	  131 D(16,11,14,17)  =    -57.132610     0.000000    -0.054385   -57.186995
	  132 D(16,11,14,18)  =   -179.179551    -0.000000    -0.087879  -179.267430
	  133 D(16,11,14,19)  =     64.944558     0.000000    -0.055962    64.888596
	  134 D(18,14,17,20)  =    -57.737129    -0.000000     0.006360   -57.730770
	  135 D(18,14,17,21)  =     64.324445    -0.000001    -0.033043    64.291402
	  136 D(18,14,17,22)  =   -179.749207    -0.000000    -0.026418  -179.775625
	  137 D(19,14,17,20)  =     57.967002     0.000001     0.043143    58.010145
	  138 D(19,14,17,21)  =   -179.971423     0.000000     0.003740  -179.967683
	  139 D(19,14,17,22)  =    -64.045076     0.000000     0.010365   -64.034710
	  140 D(21,17,20,23)  =     57.969900     0.000001     0.023217    57.993118
	  141 D(21,17,20,24)  =    -61.999914    -0.000001    -0.059487   -62.059401
	  142 D(21,17,20,25)  =    178.087155    -0.000000    -0.037240   178.049915
	  143 D(22,17,20,23)  =    -58.012298     0.000001     0.024994   -57.987304
	  144 D(22,17,20,24)  =   -177.982112    -0.000001    -0.057710  -178.039822
	  145 D(22,17,20,25)  =     62.104957    -0.000000    -0.035463    62.069494
	 ---------------------------------------------------------------------------

  ==> Convergence Check <==

  Measures of convergence in internal coordinates in au.
  Criteria marked as inactive (o), active & met (*), and active & unmet ( ).
  --------------------------------------------------------------------------------------------- ~
   Step     Total Energy     Delta E     MAX Force     RMS Force      MAX Disp      RMS Disp    ~
  --------------------------------------------------------------------------------------------- ~
    Convergence Criteria    1.00e-06 *    3.00e-04 *             o    1.20e-03 *             o  ~
  --------------------------------------------------------------------------------------------- ~
      1    -501.04410842   -5.01e+02      5.55e-04      1.32e-04 o    4.50e-03      1.24e-03 o  ~
  ---------------------------------------------------------------------------------------------

	Writing optimization data to binary file.
	Structure for next step:
	Cartesian Geometry (in Angstrom)
	    O     3.2262025810   0.9697049745  -0.6012686319
	    C     2.7012851977   0.0564041822  -0.0505660471
	    C     1.2456305332  -0.0154849727   0.3431050522
	    O     3.3496307507  -1.0458072277   0.3049801735
	    C     0.4547723025   1.2293912486  -0.0527481270
	    H     0.8388892044  -0.9157284384  -0.1055544626
	    H     1.2091388299  -0.1767268217   1.4175107359
	    C    -0.9986727549   1.2175179338   0.4329418414
	    H     0.4809342698   1.3426962294  -1.1323558574
	    H     0.9569793447   2.1014583169   0.3517862235
	    C    -1.8844353419   0.1452819193  -0.2078835224
	    H    -1.4303803666   2.1940855438   0.2262711333
	    H    -1.0181690754   1.1024711658   1.5157618386
	    C    -3.3481105476   0.2452611508   0.2260063500
	    H    -1.8242345388   0.2322414154  -1.2916962964
	    H    -1.5118089916  -0.8460386164   0.0399840763
	    C    -4.2417509434  -0.8241680681  -0.4047933108
	    H    -3.7329926561   1.2308071420  -0.0304102662
	    H    -3.4083055574   0.1684336232   1.3104861026
	    C    -5.7024278750  -0.7149940889   0.0311195250
	    H    -4.1822741277  -0.7491099528  -1.4885016035
	    H    -3.8609084330  -1.8100390102  -0.1462880960
	    H    -6.3103471084  -1.4857932768  -0.4325256452
	    H    -6.1230116383   0.2480498108  -0.2443708621
	    H    -5.7991321996  -0.8206670395   1.1080136536
	    C     4.7305479126  -1.1066430342  -0.0021049485
	    H     4.8863206430  -1.0327989353  -1.0688241655
	    H     5.0716792462  -2.0638979824   0.3601399391
	    H     5.2652831035  -0.3076935754   0.4911714345
			--------------------------
			 OPTKING Finished Execution 
			--------------------------

    Structure for next step:
    Molecular point group: c1
    Full point group: C1

    Geometry (in Angstrom), charge = 0, multiplicity = 1:

    O            3.226143767777     0.969876481935    -0.600821498494
    C            2.701226424529     0.056575759378    -0.050118955765
    C            1.245571871188    -0.015313389957     0.343552113494
    O            3.349571928042    -1.045635566280     0.305427237723
    C            0.454713700861     1.229562736239    -0.052301035524
    H            0.838830573453    -0.915556786972    -0.105107367045
    H            1.209080170675    -0.176555226695     1.417957715154
    C           -0.998731245515     1.217689422342     0.433388895803
    H            0.480875666203     1.342867708406    -1.131908683494
    H            0.956920704718     2.101629737970     0.352233284061
    C           -1.884493764906     0.145453489719    -0.207436419025
    H           -1.430438824290     2.194256957824     0.226718203512
    H           -1.018227564578     1.102642663170     1.516208810335
    C           -3.348168858773     0.245432713628     0.226453420212
    H           -1.824292966358     0.232412979208    -1.291249110249
    H           -1.511867443018    -0.845866970234     0.040431160756
    C           -4.241809186371    -0.823996423678    -0.404346192407
    H           -3.733050937896     1.230978629571    -0.029963176379
    H           -3.408363863994     0.168605191826     1.310933089968
    C           -5.702486006430    -0.714822452816     0.031566610078
    H           -4.182332375175    -0.748938314104    -1.488054402330
    H           -3.860966705038    -1.809867290470    -0.145840997363
    H           -6.310405193405    -1.485621581814    -0.432078524703
    H           -6.123069737565     0.248221373390    -0.243923755969
    H           -5.799190323657    -0.820495395330     1.108460656481
    C            4.730488984442    -1.106471368147    -0.001657860901
    H            4.886261702977    -1.032627274903    -1.068376996381
    H            5.071620291988    -2.063726243230     0.360586999069
    H            5.265224134578    -0.307521970349     0.491618484456

gradient() will perform analytic gradient computation.

*** tstart() called on cx1-3-14-1.cx1.hpc.ic.ac.uk
*** at Tue Jul  5 16:30:52 2016


         ---------------------------------------------------------
                                   SCF
            by Justin Turney, Rob Parrish, and Andy Simmonett
                              RHF Reference
                        1 Threads,   2000 MiB Core
         ---------------------------------------------------------

  ==> Geometry <==

    Molecular point group: c1
    Full point group: C1

    Geometry (in Angstrom), charge = 0, multiplicity = 1:

       Center              X                  Y                   Z               Mass       
    ------------   -----------------  -----------------  -----------------  -----------------
           O          3.226143767777     0.969876481935    -0.600821498494    15.994914619560
           C          2.701226424529     0.056575759378    -0.050118955765    12.000000000000
           C          1.245571871188    -0.015313389957     0.343552113494    12.000000000000
           O          3.349571928042    -1.045635566280     0.305427237723    15.994914619560
           C          0.454713700861     1.229562736239    -0.052301035524    12.000000000000
           H          0.838830573453    -0.915556786972    -0.105107367045     1.007825032070
           H          1.209080170675    -0.176555226695     1.417957715154     1.007825032070
           C         -0.998731245515     1.217689422342     0.433388895803    12.000000000000
           H          0.480875666203     1.342867708406    -1.131908683494     1.007825032070
           H          0.956920704718     2.101629737970     0.352233284061     1.007825032070
           C         -1.884493764906     0.145453489719    -0.207436419025    12.000000000000
           H         -1.430438824290     2.194256957824     0.226718203512     1.007825032070
           H         -1.018227564578     1.102642663170     1.516208810335     1.007825032070
           C         -3.348168858773     0.245432713628     0.226453420212    12.000000000000
           H         -1.824292966358     0.232412979208    -1.291249110249     1.007825032070
           H         -1.511867443018    -0.845866970234     0.040431160756     1.007825032070
           C         -4.241809186371    -0.823996423678    -0.404346192407    12.000000000000
           H         -3.733050937896     1.230978629571    -0.029963176379     1.007825032070
           H         -3.408363863994     0.168605191826     1.310933089968     1.007825032070
           C         -5.702486006430    -0.714822452816     0.031566610078    12.000000000000
           H         -4.182332375175    -0.748938314104    -1.488054402330     1.007825032070
           H         -3.860966705038    -1.809867290470    -0.145840997363     1.007825032070
           H         -6.310405193405    -1.485621581814    -0.432078524703     1.007825032070
           H         -6.123069737565     0.248221373390    -0.243923755969     1.007825032070
           H         -5.799190323657    -0.820495395330     1.108460656481     1.007825032070
           C          4.730488984442    -1.106471368147    -0.001657860901    12.000000000000
           H          4.886261702977    -1.032627274903    -1.068376996381     1.007825032070
           H          5.071620291988    -2.063726243230     0.360586999069     1.007825032070
           H          5.265224134578    -0.307521970349     0.491618484456     1.007825032070

  Running in c1 symmetry.

  Rotational constants: A =      0.10882  B =      0.00933  C =      0.00885 [cm^-1]
  Rotational constants: A =   3262.40420  B =    279.65521  C =    265.29334 [MHz]
  Nuclear repulsion =  610.164611277788140

  Charge       = 0
  Multiplicity = 1
  Electrons    = 88
  Nalpha       = 44
  Nbeta        = 44

  ==> Algorithm <==

  SCF Algorithm Type is DF.
  DIIS enabled.
  MOM disabled.
  Fractional occupation disabled.
  Guess Type is READ.
  Energy threshold   = 1.00e-08
  Density threshold  = 1.00e-08
  Integral threshold = 0.00e+00

  ==> Primary Basis <==

  Basis Set: 6-31G*
    Number of shells: 102
    Number of basis function: 201
    Number of Cartesian functions: 201
    Spherical Harmonics?: false
    Max angular momentum: 2

  ==> Pre-Iterations <==

   -------------------------------------------------------
    Irrep   Nso     Nmo     Nalpha   Nbeta   Ndocc  Nsocc
   -------------------------------------------------------
     A        201     201       0       0       0       0
   -------------------------------------------------------
    Total     201     201      44      44      44       0
   -------------------------------------------------------

 OEINTS: Overlap, kinetic, potential, dipole, and quadrupole integrals
         stored in file 35.

  ==> Integral Setup <==

  ==> DFJK: Density-Fitted J/K Matrices <==

    J tasked:                  Yes
    K tasked:                  Yes
    wK tasked:                  No
    OpenMP threads:              1
    Integrals threads:           1
    Memory (MB):              1430
    Algorithm:                Core
    Integral Cache:           NONE
    Schwarz Cutoff:          1E-12
    Fitting Condition:       1E-12

   => Auxiliary Basis Set <=

  Basis Set: 
    Number of shells: 426
    Number of basis function: 1341
    Number of Cartesian functions: 1341
    Spherical Harmonics?: false
    Max angular momentum: 3

  Minimum eigenvalue in the overlap matrix is 2.4509993496E-03.
  Using Symmetric Orthogonalization.
  SCF Guess: Reading in previously saved MOs, projecting if necessary.

  Using orbitals from previous SCF, no projection.
  Recomputing DOCC and SOCC from number of alpha and beta electrons from previous calculation.
              A 
    DOCC [    44 ]

  ==> Iterations <==

                           Total Energy        Delta E     RMS |[F,P]|

   @DF-RHF iter   0:  -501.04488253381021   -5.01045e+02   4.95762e-05 
   @DF-RHF iter   1:  -501.04410730974826    7.75224e-04   8.49688e-06 
   @DF-RHF iter   2:  -501.04411007274336   -2.76300e-06   3.11028e-06 DIIS
   @DF-RHF iter   3:  -501.04411048847794   -4.15735e-07   1.39116e-06 DIIS
   @DF-RHF iter   4:  -501.04411054500849   -5.65306e-08   3.63749e-07 DIIS
   @DF-RHF iter   5:  -501.04411055300068   -7.99218e-09   1.89591e-07 DIIS
   @DF-RHF iter   6:  -501.04411055607227   -3.07159e-09   8.83825e-08 DIIS
   @DF-RHF iter   7:  -501.04411055673802   -6.65750e-10   3.07504e-08 DIIS
   @DF-RHF iter   8:  -501.04411055679782   -5.97993e-11   9.58457e-09 DIIS

  ==> Post-Iterations <==

    Orbital Energies (a.u.)
    -----------------------

    Doubly Occupied:                                                      

       1A    -20.603328     2A    -20.545165     3A    -11.371993  
       4A    -11.280657     5A    -11.234768     6A    -11.219095  
       7A    -11.217654     8A    -11.215993     9A    -11.215851  
      10A    -11.214434    11A    -11.209070    12A     -1.469060  
      13A     -1.362480    14A     -1.098094    15A     -1.066830  
      16A     -1.019500    17A     -0.977234    18A     -0.928578  
      19A     -0.861590    20A     -0.799277    21A     -0.790502  
      22A     -0.763790    23A     -0.700739    24A     -0.682286  
      25A     -0.672157    26A     -0.650897    27A     -0.628799  
      28A     -0.604683    29A     -0.594949    30A     -0.580920  
      31A     -0.567079    32A     -0.549190    33A     -0.531907  
      34A     -0.530395    35A     -0.516033    36A     -0.511815  
      37A     -0.496346    38A     -0.477839    39A     -0.470212  
      40A     -0.462403    41A     -0.458844    42A     -0.455778  
      43A     -0.441145    44A     -0.435368  

    Virtual:                                                              

      45A      0.199238    46A      0.225647    47A      0.236851  
      48A      0.257935    49A      0.262815    50A      0.268238  
      51A      0.277661    52A      0.297474    53A      0.303524  
      54A      0.309673    55A      0.317307    56A      0.322073  
      57A      0.326666    58A      0.336211    59A      0.340957  
      60A      0.343699    61A      0.351751    62A      0.353202  
      63A      0.366053    64A      0.375589    65A      0.391549  
      66A      0.407334    67A      0.428037    68A      0.448990  
      69A      0.459081    70A      0.468738    71A      0.497812  
      72A      0.539122    73A      0.583322    74A      0.692079  
      75A      0.704215    76A      0.726422    77A      0.733698  
      78A      0.738513    79A      0.752538    80A      0.765254  
      81A      0.775587    82A      0.789046    83A      0.798801  
      84A      0.817982    85A      0.828257    86A      0.863356  
      87A      0.865211    88A      0.916232    89A      0.936635  
      90A      0.949395    91A      0.962867    92A      0.974633  
      93A      0.987243    94A      1.008006    95A      1.032583  
      96A      1.049218    97A      1.080333    98A      1.102187  
      99A      1.113866   100A      1.122441   101A      1.126666  
     102A      1.130480   103A      1.138437   104A      1.143385  
     105A      1.163278   106A      1.174502   107A      1.179261  
     108A      1.182679   109A      1.196478   110A      1.200220  
     111A      1.209971   112A      1.213611   113A      1.218232  
     114A      1.226186   115A      1.228411   116A      1.242572  
     117A      1.255647   118A      1.262247   119A      1.281460  
     120A      1.283542   121A      1.304540   122A      1.325803  
     123A      1.377479   124A      1.411149   125A      1.444729  
     126A      1.471969   127A      1.558578   128A      1.608429  
     129A      1.643521   130A      1.664810   131A      1.685449  
     132A      1.693762   133A      1.736055   134A      1.762159  
     135A      1.801442   136A      1.817192   137A      1.866662  
     138A      1.886694   139A      1.892088   140A      1.940492  
     141A      2.000732   142A      2.022385   143A      2.063862  
     144A      2.102246   145A      2.117234   146A      2.126240  
     147A      2.171403   148A      2.181260   149A      2.207315  
     150A      2.230033   151A      2.235597   152A      2.260224  
     153A      2.273296   154A      2.288525   155A      2.304733  
     156A      2.324350   157A      2.338513   158A      2.353616  
     159A      2.378139   160A      2.397994   161A      2.404205  
     162A      2.415129   163A      2.448208   164A      2.459795  
     165A      2.518298   166A      2.571914   167A      2.587717  
     168A      2.626131   169A      2.644896   170A      2.669090  
     171A      2.686341   172A      2.698067   173A      2.732900  
     174A      2.765118   175A      2.789924   176A      2.793190  
     177A      2.828304   178A      2.848179   179A      2.905679  
     180A      2.934913   181A      2.964604   182A      3.003585  
     183A      3.049097   184A      3.067530   185A      3.149697  
     186A      3.165398   187A      3.204916   188A      3.349960  
     189A      3.450930   190A      3.581417   191A      4.417138  
     192A      4.542046   193A      4.588093   194A      4.625777  
     195A      4.678806   196A      4.731574   197A      4.785775  
     198A      4.838960   199A      4.876291   200A      4.968308  
     201A      5.034793  

    Final Occupation by Irrep:
              A 
    DOCC [    44 ]

  Energy converged.

  @DF-RHF Final Energy:  -501.04411055679782

   => Energetics <=

    Nuclear Repulsion Energy =            610.1646112777881399
    One-Electron Energy =               -1891.4479849974341050
    Two-Electron Energy =                 780.2392631628516710
    DFT Exchange-Correlation Energy =       0.0000000000000000
    Empirical Dispersion Energy =           0.0000000000000000
    PCM Polarization Energy =               0.0000000000000000
    EFP Energy =                            0.0000000000000000
    Total Energy =                       -501.0441105567944078

    Alert: EFP and PCM quantities not currently incorporated into SCF psivars.

Properties will be evaluated at   0.000000,   0.000000,   0.000000 Bohr
  ==> Properties <==


Properties computed using the SCF density matrix

  Nuclear Dipole Moment: (a.u.)
     X:   -19.1803      Y:    -1.4864      Z:     0.8317

  Electronic Dipole Moment: (a.u.)
     X:    19.0323      Y:     0.8722      Z:    -0.5249

  Dipole Moment: (a.u.)
     X:    -0.1481      Y:    -0.6142      Z:     0.3068     Total:     0.7024

  Dipole Moment: (Debye)
     X:    -0.3764      Y:    -1.5612      Z:     0.7798     Total:     1.7852


  Saving occupied orbitals to File 180.

*** tstop() called on cx1-3-14-1.cx1.hpc.ic.ac.uk at Tue Jul  5 16:31:25 2016
Module time:
	user time   =      32.39 seconds =       0.54 minutes
	system time =       0.25 seconds =       0.00 minutes
	total time  =         33 seconds =       0.55 minutes
Total time:
	user time   =     139.38 seconds =       2.32 minutes
	system time =       1.09 seconds =       0.02 minutes
	total time  =        143 seconds =       2.38 minutes

*** tstart() called on cx1-3-14-1.cx1.hpc.ic.ac.uk
*** at Tue Jul  5 16:31:25 2016


         ------------------------------------------------------------
                                   SCF GRAD                          
                          Rob Parrish, Justin Turney,                
                       Andy Simmonett, and Alex Sokolov              
         ------------------------------------------------------------

  ==> Geometry <==

    Molecular point group: c1
    Full point group: C1

    Geometry (in Angstrom), charge = 0, multiplicity = 1:

       Center              X                  Y                   Z               Mass       
    ------------   -----------------  -----------------  -----------------  -----------------
           O          3.226143767777     0.969876481935    -0.600821498494    15.994914619560
           C          2.701226424529     0.056575759378    -0.050118955765    12.000000000000
           C          1.245571871188    -0.015313389957     0.343552113494    12.000000000000
           O          3.349571928042    -1.045635566280     0.305427237723    15.994914619560
           C          0.454713700861     1.229562736239    -0.052301035524    12.000000000000
           H          0.838830573453    -0.915556786972    -0.105107367045     1.007825032070
           H          1.209080170675    -0.176555226695     1.417957715154     1.007825032070
           C         -0.998731245515     1.217689422342     0.433388895803    12.000000000000
           H          0.480875666203     1.342867708406    -1.131908683494     1.007825032070
           H          0.956920704718     2.101629737970     0.352233284061     1.007825032070
           C         -1.884493764906     0.145453489719    -0.207436419025    12.000000000000
           H         -1.430438824290     2.194256957824     0.226718203512     1.007825032070
           H         -1.018227564578     1.102642663170     1.516208810335     1.007825032070
           C         -3.348168858773     0.245432713628     0.226453420212    12.000000000000
           H         -1.824292966358     0.232412979208    -1.291249110249     1.007825032070
           H         -1.511867443018    -0.845866970234     0.040431160756     1.007825032070
           C         -4.241809186371    -0.823996423678    -0.404346192407    12.000000000000
           H         -3.733050937896     1.230978629571    -0.029963176379     1.007825032070
           H         -3.408363863994     0.168605191826     1.310933089968     1.007825032070
           C         -5.702486006430    -0.714822452816     0.031566610078    12.000000000000
           H         -4.182332375175    -0.748938314104    -1.488054402330     1.007825032070
           H         -3.860966705038    -1.809867290470    -0.145840997363     1.007825032070
           H         -6.310405193405    -1.485621581814    -0.432078524703     1.007825032070
           H         -6.123069737565     0.248221373390    -0.243923755969     1.007825032070
           H         -5.799190323657    -0.820495395330     1.108460656481     1.007825032070
           C          4.730488984442    -1.106471368147    -0.001657860901    12.000000000000
           H          4.886261702977    -1.032627274903    -1.068376996381     1.007825032070
           H          5.071620291988    -2.063726243230     0.360586999069     1.007825032070
           H          5.265224134578    -0.307521970349     0.491618484456     1.007825032070

  Nuclear repulsion =  610.164611277788140

  ==> Basis Set <==

  Basis Set: 6-31G*
    Number of shells: 102
    Number of basis function: 201
    Number of Cartesian functions: 201
    Spherical Harmonics?: false
    Max angular momentum: 2

  ==> DFJKGrad: Density-Fitted SCF Gradients <==

    Gradient:                    1
    J tasked:                  Yes
    K tasked:                  Yes
    wK tasked:                  No
    OpenMP threads:              1
    Integrals threads:           1
    Memory (MB):              1430
    Schwarz Cutoff:          0E+00
    Fitting Condition:       1E-12

   => Auxiliary Basis Set <=

  Basis Set: 
    Number of shells: 426
    Number of basis function: 1341
    Number of Cartesian functions: 1341
    Spherical Harmonics?: false
    Max angular momentum: 3


  -Total Gradient:
     Atom            X                  Y                   Z
    ------   -----------------  -----------------  -----------------
       1        0.000104356850    -0.000000461016     0.000393821824
       2       -0.000277742174    -0.000365221720    -0.000920350704
       3       -0.000035896508     0.000183057167     0.000261080051
       4        0.000133928345     0.000216446324     0.000198474871
       5        0.000033691588    -0.000025349121     0.000009473760
       6        0.000088779092     0.000011851060    -0.000012706005
       7       -0.000070622854    -0.000000907192     0.000015828975
       8       -0.000057982532    -0.000040802178     0.000009036826
       9        0.000006347048    -0.000007773590     0.000017647441
      10       -0.000052242513     0.000018416334    -0.000015306220
      11       -0.000005155862     0.000047752550     0.000054206172
      12        0.000043067528     0.000035257836    -0.000001689093
      13        0.000011215429     0.000001182729     0.000035820341
      14        0.000076315169     0.000011164686    -0.000033066636
      15       -0.000022806471    -0.000029404076    -0.000008577912
      16       -0.000020007919    -0.000015076914    -0.000017827199
      17       -0.000066783700    -0.000058496986     0.000004842517
      18       -0.000009513151    -0.000016170973     0.000014537497
      19       -0.000004042893     0.000000700540    -0.000027999423
      20        0.000049834668     0.000039934555     0.000008806352
      21        0.000009103861     0.000010025458     0.000017442084
      22        0.000040132587     0.000001264368    -0.000002868134
      23       -0.000002236464    -0.000008102684    -0.000016466535
      24       -0.000028412642     0.000010210404     0.000010809570
      25        0.000006319427     0.000009580947    -0.000016885460
      26        0.000008341819    -0.000043673955     0.000037140441
      27       -0.000009539676    -0.000008064943    -0.000035745663
      28        0.000023388881     0.000035015431    -0.000003548369
      29        0.000028163049    -0.000012355038     0.000024068636


*** tstop() called on cx1-3-14-1.cx1.hpc.ic.ac.uk at Tue Jul  5 16:32:21 2016
Module time:
	user time   =      55.36 seconds =       0.92 minutes
	system time =       0.28 seconds =       0.00 minutes
	total time  =         56 seconds =       0.93 minutes
Total time:
	user time   =     194.75 seconds =       3.25 minutes
	system time =       1.37 seconds =       0.02 minutes
	total time  =        199 seconds =       3.32 minutes
CURRENT ENERGY: -501.0441105568

			-----------------------------------------
			 OPTKING 2.0: for geometry optimizations 
			  - R.A. King,  Bethel University        
			-----------------------------------------

	Previous internal coordinate definitions found.
	---Fragment 1 Geometry and Gradient---
	 O           6.0965281864        1.8328009336       -1.1353880869
	 C           5.1045781653        0.1069126910       -0.0947111005
	 C           2.3537897154       -0.0289381132        0.6492194069
	 O           6.3297736064       -1.9759648551        0.5771738328
	 C           0.8592843635        2.3235368347       -0.0988346336
	 H           1.5851600557       -1.7301515865       -0.1986241383
	 H           2.2848303953       -0.3336410258        2.6795517497
	 C          -1.8873285344        2.3010995231        0.8189863221
	 H           0.9087233131        2.5376522016       -2.1389974192
	 H           1.8083180628        3.9715046375        0.6656244418
	 C          -3.5611771148        0.2748672606       -0.3919980219
	 H          -2.7031376278        4.1465447155        0.4284353140
	 H          -1.9241712380        2.0836926558        2.8652194118
	 C          -6.3271221897        0.4638006128        0.4279349461
	 H          -3.4474140926        0.4391968804       -2.4401071877
	 H          -2.8570154165       -1.5984569186        0.0764038211
	 C          -8.0158576702       -1.5571275752       -0.7641035665
	 H          -7.0544439127        2.3262124853       -0.0566221974
	 H          -6.4408742642        0.3186176371        2.4773045186
	 C         -10.7761368288       -1.3508186695        0.0596522480
	 H          -7.9034627858       -1.4152883041       -2.8120152912
	 H          -7.2961696807       -3.4201535159       -0.2755995440
	 H         -11.9249376031       -2.8074179267       -0.8165100796
	 H         -11.5709248966        0.4690704160       -0.4609490961
	 H         -10.9588815042       -1.5505115905        2.0946870698
	 C           8.9393286552       -2.0909278597       -0.0031329031
	 H           9.2336964322       -1.9513827469       -2.0189399298
	 H           9.5839734018       -3.8998774130        0.6814106753
	 H           9.9498316426       -0.5811323038        0.9290242975
	             0.0001043568       -0.0000004610        0.0003938218
	            -0.0002777422       -0.0003652217       -0.0009203507
	            -0.0000358965        0.0001830572        0.0002610801
	             0.0001339283        0.0002164463        0.0001984749
	             0.0000336916       -0.0000253491        0.0000094738
	             0.0000887791        0.0000118511       -0.0000127060
	            -0.0000706229       -0.0000009072        0.0000158290
	            -0.0000579825       -0.0000408022        0.0000090368
	             0.0000063470       -0.0000077736        0.0000176474
	            -0.0000522425        0.0000184163       -0.0000153062
	            -0.0000051559        0.0000477525        0.0000542062
	             0.0000430675        0.0000352578       -0.0000016891
	             0.0000112154        0.0000011827        0.0000358203
	             0.0000763152        0.0000111647       -0.0000330666
	            -0.0000228065       -0.0000294041       -0.0000085779
	            -0.0000200079       -0.0000150769       -0.0000178272
	            -0.0000667837       -0.0000584970        0.0000048425
	            -0.0000095132       -0.0000161710        0.0000145375
	            -0.0000040429        0.0000007005       -0.0000279994
	             0.0000498347        0.0000399346        0.0000088064
	             0.0000091039        0.0000100255        0.0000174421
	             0.0000401326        0.0000012644       -0.0000028681
	            -0.0000022365       -0.0000081027       -0.0000164665
	            -0.0000284126        0.0000102104        0.0000108096
	             0.0000063194        0.0000095809       -0.0000168855
	             0.0000083418       -0.0000436740        0.0000371404
	            -0.0000095397       -0.0000080649       -0.0000357457
	             0.0000233889        0.0000350154       -0.0000035484
	             0.0000281630       -0.0000123550        0.0000240686

	---Fragment 1 Intrafragment Coordinates---
	 - Coordinate -           - BOHR/RAD -       - ANG/DEG -
	 R(1,2)           =         2.246255	       1.188667
	 R(2,3)           =         2.852845	       1.509661
	 R(2,4)           =         2.508169	       1.327266
	 R(3,5)           =         2.885701	       1.527047
	 R(3,6)           =         2.050307	       1.084976
	 R(3,7)           =         2.054227	       1.087050
	 R(4,26)          =         2.675771	       1.415957
	 R(5,8)           =         2.895994	       1.532494
	 R(5,9)           =         2.051963	       1.085852
	 R(5,10)          =         2.049600	       1.084602
	 R(8,11)          =         2.893764	       1.531314
	 R(8,12)          =         2.055175	       1.087552
	 R(8,13)          =         2.058080	       1.089089
	 R(11,14)         =         2.891096	       1.529902
	 R(11,15)         =         2.057838	       1.088961
	 R(11,16)         =         2.055380	       1.087660
	 R(14,17)         =         2.890836	       1.529765
	 R(14,18)         =         2.057273	       1.088662
	 R(14,19)         =         2.057652	       1.088863
	 R(17,20)         =         2.887954	       1.528240
	 R(17,21)         =         2.055892	       1.087931
	 R(17,22)         =         2.056077	       1.088029
	 R(20,23)         =         2.051605	       1.085663
	 R(20,24)         =         2.052976	       1.086388
	 R(20,25)         =         2.052959	       1.086379
	 R(26,27)         =         2.041961	       1.080559
	 R(26,28)         =         2.038741	       1.078855
	 R(26,29)         =         2.041939	       1.080548
	 B(1,2,3)         =         2.193464	     125.676217
	 B(1,2,4)         =         2.148917	     123.123848
	 B(2,3,5)         =         1.974639	     113.138470
	 B(2,3,6)         =         1.868319	     107.046810
	 B(2,3,7)         =         1.872520	     107.287504
	 B(2,4,26)        =         2.042020	     116.999132
	 B(3,2,4)         =         1.940788	     111.198989
	 B(3,5,8)         =         1.985276	     113.747916
	 B(3,5,9)         =         1.907443	     109.288457
	 B(3,5,10)        =         1.895448	     108.601176
	 B(4,26,27)       =         1.930239	     110.594553
	 B(4,26,28)       =         1.848008	     105.883068
	 B(4,26,29)       =         1.930349	     110.600857
	 B(5,3,6)         =         1.955265	     112.028426
	 B(5,3,7)         =         1.938794	     111.084716
	 B(5,8,11)        =         2.005777	     114.922573
	 B(5,8,12)        =         1.885247	     108.016702
	 B(5,8,13)        =         1.910174	     109.444889
	 B(6,3,7)         =         1.847360	     105.845905
	 B(8,5,9)         =         1.916400	     109.801607
	 B(8,5,10)        =         1.904105	     109.097174
	 B(8,11,14)       =         1.970289	     112.889258
[...]
	    4 R(3,5)          =      1.527126     0.000012     0.000005     1.527131
	    5 R(3,6)          =      1.084985    -0.000018    -0.000003     1.084982
	    6 R(3,7)          =      1.087059     0.000005     0.000001     1.087060
	    7 R(4,26)         =      1.415939     0.000000     0.000002     1.415941
	    8 R(5,8)          =      1.532480    -0.000041    -0.000010     1.532470
	    9 R(5,9)          =      1.085873    -0.000012    -0.000002     1.085871
	   10 R(5,10)         =      1.084631    -0.000017    -0.000002     1.084628
	   11 R(8,11)         =      1.531376     0.000033     0.000009     1.531385
	   12 R(8,12)         =      1.087531    -0.000000    -0.000000     1.087531
	   13 R(8,13)         =      1.089040     0.000011     0.000002     1.089041
	   14 R(11,14)        =      1.530032     0.000017     0.000004     1.530037
	   15 R(11,15)        =      1.088952    -0.000017    -0.000003     1.088949
	   16 R(11,16)        =      1.087645    -0.000014    -0.000003     1.087642
	   17 R(14,17)        =      1.529750    -0.000026    -0.000007     1.529743
	   18 R(14,18)        =      1.088686    -0.000029    -0.000004     1.088682
	   19 R(14,19)        =      1.088898    -0.000022    -0.000004     1.088894
	   20 R(17,20)        =      1.528300     0.000013     0.000004     1.528304
	   21 R(17,21)        =      1.087953    -0.000006    -0.000001     1.087952
	   22 R(17,22)        =      1.088016    -0.000003    -0.000000     1.088016
	   23 R(20,23)        =      1.085637     0.000013     0.000002     1.085639
	   24 R(20,24)        =      1.086368    -0.000015    -0.000002     1.086366
	   25 R(20,25)        =      1.086404     0.000001     0.000000     1.086404
	   26 R(26,27)        =      1.080511     0.000031     0.000004     1.080515
	   27 R(26,28)        =      1.078891    -0.000034    -0.000005     1.078886
	   28 R(26,29)        =      1.080527     0.000000    -0.000000     1.080526
	   29 B(1,2,3)        =    125.669778    -0.000000    -0.000682   125.669096
	   30 B(1,2,4)        =    123.147052     0.000000     0.000880   123.147932
	   31 B(2,3,5)        =    113.129709    -0.000000    -0.000463   113.129245
	   32 B(2,3,6)        =    107.057515    -0.000000     0.000162   107.057677
	   33 B(2,3,7)        =    107.287339    -0.000000    -0.000610   107.286729
	   34 B(2,4,26)       =    116.986332     0.000000     0.000437   116.986768
	   35 B(3,2,4)        =    111.183169    -0.000000    -0.000198   111.182972
	   36 B(3,5,8)        =    113.747933    -0.000000    -0.000442   113.747491
	   37 B(3,5,9)        =    109.284343     0.000000    -0.000145   109.284197
	   38 B(3,5,10)       =    108.586026     0.000000    -0.000298   108.585728
	   39 B(4,26,27)      =    110.595206     0.000000     0.000414   110.595620
	   40 B(4,26,28)      =    105.877027    -0.000000    -0.001352   105.875675
	   41 B(4,26,29)      =    110.598810    -0.000000    -0.000492   110.598317
	   42 B(5,3,6)        =    112.021024     0.000000     0.000649   112.021672
	   43 B(5,3,7)        =    111.090870     0.000000    -0.000187   111.090683
	   44 B(5,8,11)       =    114.924772     0.000000    -0.000048   114.924724
	   45 B(5,8,12)       =    108.039949    -0.000000    -0.000678   108.039272
	   46 B(5,8,13)       =    109.445673     0.000000     0.000841   109.446514
	   47 B(6,3,7)        =    105.846321     0.000000     0.000473   105.846794
	   48 B(8,5,9)        =    109.800103     0.000000     0.000898   109.801002
	   49 B(8,5,10)       =    109.115078     0.000000     0.000158   109.115237
	   50 B(8,11,14)      =    112.882817     0.000000    -0.000249   112.882568
	   51 B(8,11,15)      =    109.175464     0.000000     0.000030   109.175494
	   52 B(8,11,16)      =    110.150367     0.000000     0.000328   110.150695
	   53 B(9,5,10)       =    106.011463    -0.000000    -0.000167   106.011296
	   54 B(11,8,12)      =    108.625973    -0.000000    -0.000941   108.625031
	   55 B(11,8,13)      =    109.363211    -0.000000     0.000395   109.363607
	   56 B(11,14,17)     =    113.342252     0.000000     0.000157   113.342409
	   57 B(11,14,18)     =    109.295760     0.000000     0.000625   109.296384
	   58 B(11,14,19)     =    109.311237    -0.000000    -0.001218   109.310019
	   59 B(12,8,13)      =    106.062029     0.000000     0.000441   106.062469
	   60 B(14,11,15)     =    109.275695    -0.000000    -0.000318   109.275377
	   61 B(14,11,16)     =    108.829170    -0.000000     0.000013   108.829183
	   62 B(14,17,20)     =    113.011601     0.000000     0.000166   113.011767
	   63 B(14,17,21)     =    109.312929     0.000000     0.000728   109.313657
	   64 B(14,17,22)     =    109.335442    -0.000000    -0.000663   109.334778
	   65 B(15,11,16)     =    106.312174     0.000000     0.000219   106.312394
	   66 B(17,14,18)     =    109.226013     0.000000     0.000733   109.226747
	   67 B(17,14,19)     =    109.216068     0.000000    -0.000215   109.215853
	   68 B(17,20,23)     =    111.266599    -0.000000    -0.000547   111.266052
	   69 B(17,20,24)     =    111.152075    -0.000000    -0.000177   111.151898
	   70 B(17,20,25)     =    111.156310     0.000000     0.000165   111.156475
	   71 B(18,14,19)     =    106.201105    -0.000000    -0.000097   106.201008
	   72 B(20,17,21)     =    109.353410     0.000000     0.000432   109.353842
	   73 B(20,17,22)     =    109.341249    -0.000000    -0.000693   109.340557
	   74 B(21,17,22)     =    106.262327     0.000000     0.000022   106.262350
	   75 B(23,20,24)     =    107.719167     0.000000     0.000529   107.719696
	   76 B(23,20,25)     =    107.720764     0.000000     0.000169   107.720933
	   77 B(24,20,25)     =    107.651952    -0.000000    -0.000104   107.651848
	   78 B(27,26,28)     =    110.277055     0.000000     0.000315   110.277369
	   79 B(27,26,29)     =    109.186227     0.000000     0.000723   109.186949
	   80 B(28,26,29)     =    110.275446     0.000000     0.000342   110.275788
	   81 D(1,2,3,5)      =      0.522782     0.000000     0.003446     0.526228
	   82 D(1,2,3,6)      =    124.408785     0.000000     0.004082   124.412867
	   83 D(1,2,3,7)      =   -122.348473     0.000000     0.004415  -122.344058
	   84 D(1,2,4,26)     =      0.070930    -0.000000    -0.002588     0.068342
	   85 D(2,3,5,8)      =   -175.671814     0.000000     0.001074  -175.670740
	   86 D(2,3,5,9)      =     61.234228    -0.000000     0.000327    61.234554
	   87 D(2,3,5,10)     =    -53.977270     0.000000     0.000766   -53.976504
	   88 D(2,4,26,27)    =    -60.559118    -0.000000    -0.002751   -60.561870
	   89 D(2,4,26,28)    =    179.982859    -0.000000    -0.002550   179.980309
	   90 D(2,4,26,29)    =     60.524819     0.000000    -0.001894    60.522926
	   91 D(3,2,4,26)     =   -179.919542    -0.000000    -0.002229  -179.921772
	   92 D(3,5,8,11)     =    -66.274557    -0.000000    -0.011978   -66.286535
	   93 D(3,5,8,12)     =    172.275619     0.000000    -0.010229   172.265390
	   94 D(3,5,8,13)     =     57.215408    -0.000000    -0.010824    57.204583
	   95 D(4,2,3,5)      =   -179.487037    -0.000000     0.003076  -179.483961
	   96 D(4,2,3,6)      =    -55.601034    -0.000000     0.003712   -55.597322
	   97 D(4,2,3,7)      =     57.641708    -0.000000     0.004045    57.645754
	   98 D(5,8,11,14)    =   -175.474479     0.000000     0.012570  -175.461908
	   99 D(5,8,11,15)    =    -53.729744     0.000000     0.012019   -53.717725
	  100 D(5,8,11,16)    =     62.653000     0.000000     0.012488    62.665488
	  101 D(6,3,5,8)      =     63.208051     0.000000     0.000718    63.208769
	  102 D(6,3,5,9)      =    -59.885907     0.000000    -0.000029   -59.885936
	  103 D(6,3,5,10)     =   -175.097404     0.000000     0.000410  -175.096994
	  104 D(7,3,5,8)      =    -54.935731    -0.000000    -0.000178   -54.935909
	  105 D(7,3,5,9)      =   -178.029689    -0.000000    -0.000925  -178.030614
	  106 D(7,3,5,10)     =     66.758814    -0.000000    -0.000486    66.758328
	  107 D(8,11,14,17)   =   -179.784488     0.000000     0.036911  -179.747577
	  108 D(8,11,14,18)   =     58.136820     0.000000     0.035406    58.172226
	  109 D(8,11,14,19)   =    -57.707306     0.000000     0.035854   -57.671453
	  110 D(9,5,8,11)     =     56.536990    -0.000000    -0.011803    56.525187
	  111 D(9,5,8,12)     =    -64.912834     0.000000    -0.010055   -64.922889
	  112 D(9,5,8,13)     =   -179.973045    -0.000000    -0.010650  -179.983695
	  113 D(10,5,8,11)    =    172.325106    -0.000000    -0.011412   172.313694
	  114 D(10,5,8,12)    =     50.875282     0.000000    -0.009663    50.865619
	  115 D(10,5,8,13)    =    -64.184929     0.000000    -0.010259   -64.195188
	  116 D(11,14,17,20)  =   -179.842325    -0.000000    -0.068546  -179.910871
	  117 D(11,14,17,21)  =    -57.812967    -0.000000    -0.067356   -57.880323
	  118 D(11,14,17,22)  =     58.127683    -0.000000    -0.067293    58.060389
	  119 D(12,8,11,14)   =    -54.344155    -0.000000     0.010960   -54.333196
	  120 D(12,8,11,15)   =     67.400579    -0.000000     0.010408    67.410988
	  121 D(12,8,11,16)   =   -176.216677    -0.000000     0.010878  -176.205799
	  122 D(13,8,11,14)   =     60.991692     0.000000     0.011180    61.002872
	  123 D(13,8,11,15)   =   -177.263573    -0.000000     0.010629  -177.252944
	  124 D(13,8,11,16)   =    -60.880830     0.000000     0.011098   -60.869731
	  125 D(14,17,20,23)  =   -179.996937     0.000000     0.020975  -179.975963
	  126 D(14,17,20,24)  =     59.951698     0.000000     0.020792    59.972490
	  127 D(14,17,20,25)  =    -59.940698     0.000000     0.020932   -59.919766
	  128 D(15,11,14,17)  =     58.527337     0.000000     0.037267    58.564603
	  129 D(15,11,14,18)  =    -63.551355     0.000000     0.035761   -63.515594
	  130 D(15,11,14,19)  =   -179.395482     0.000000     0.036209  -179.359272
	  131 D(16,11,14,17)  =    -57.170655     0.000000     0.037172   -57.133483
	  132 D(16,11,14,18)  =   -179.249347     0.000000     0.035667  -179.213680
	  133 D(16,11,14,19)  =     64.906526     0.000000     0.036115    64.942641
	  134 D(18,14,17,20)  =    -57.724779    -0.000000    -0.067103   -57.791881
	  135 D(18,14,17,21)  =     64.304579    -0.000000    -0.065913    64.238667
	  136 D(18,14,17,22)  =   -179.754771    -0.000000    -0.065849  -179.820621
	  137 D(19,14,17,20)  =     58.027481    -0.000000    -0.066931    57.960549
	  138 D(19,14,17,21)  =   -179.943162    -0.000000    -0.065741  -180.008903
	  139 D(19,14,17,22)  =    -64.002512    -0.000000    -0.065678   -64.068190
	  140 D(21,17,20,23)  =     57.996418     0.000000     0.019619    58.016036
	  141 D(21,17,20,24)  =    -62.054947    -0.000000     0.019436   -62.035511
	  142 D(21,17,20,25)  =    178.052657     0.000000     0.019575   178.072233
	  143 D(22,17,20,23)  =    -57.970203     0.000000     0.019738   -57.950465
	  144 D(22,17,20,24)  =   -178.021568     0.000000     0.019555  -178.002013
	  145 D(22,17,20,25)  =     62.086037     0.000000     0.019695    62.105732
	 ---------------------------------------------------------------------------

  ==> Convergence Check <==

  Measures of convergence in internal coordinates in au.
  Criteria marked as inactive (o), active & met (*), and active & unmet ( ).
  ---------------------------------------------------------------------------------------------
   Step     Total Energy     Delta E     MAX Force     RMS Force      MAX Disp      RMS Disp   
  ---------------------------------------------------------------------------------------------
    Convergence Criteria    1.00e-06 *    3.00e-04 *             o    1.20e-03 *             o
  ---------------------------------------------------------------------------------------------
      6    -501.04411293   -3.26e-06      5.87e-06 *    1.49e-06 o    1.20e-03 *    3.49e-04 o  ~
  ---------------------------------------------------------------------------------------------


  **** Optimization is complete! (in 6 steps) ****

  ==> Optimization Summary <==

  Measures of convergence in internal coordinates in au.
  --------------------------------------------------------------------------------------------------------------- ~
   Step         Total Energy             Delta E       MAX Force       RMS Force        MAX Disp        RMS Disp  ~
  --------------------------------------------------------------------------------------------------------------- ~
      1    -501.044108417141   -501.044108417141      0.00055458      0.00013211      0.00449575      0.00124383  ~
      2    -501.044110556798     -0.000002139657      0.00020117      0.00005227      0.01380253      0.00331286  ~
      3    -501.044075574273      0.000034982525      0.00096698      0.00027275      0.01114556      0.00266251  ~
      4    -501.044112756026     -0.000037181753      0.00004563      0.00001164      0.01430424      0.00374865  ~
      5    -501.044109662408      0.000003093618      0.00022015      0.00004514      0.01158243      0.00304447  ~
      6    -501.044112925908     -0.000003263500      0.00000587      0.00000149      0.00119636      0.00034868  ~
  --------------------------------------------------------------------------------------------------------------- ~

	Writing optimization data to binary file.
	Final energy is   -501.0441129259078
	Final (previous) structure:
	Cartesian Geometry (in Angstrom)
	    O     3.2259792125   0.9703548038  -0.5996474847
	    C     2.7011883930   0.0578849650  -0.0473303377
	    C     1.2453751972  -0.0138430564   0.3454195429
	    O     3.3479028981  -1.0463866192   0.3047724688
	    C     0.4551114486   1.2313993636  -0.0507727798
	    H     0.8385418941  -0.9138257813  -0.1037018968
	    H     1.2082094907  -0.1753338782   1.4197740492
	    C    -0.9988934073   1.2194844099   0.4331930246
	    H     0.4825304537   1.3451202498  -1.1303259906
	    H     0.9572896782   2.1030696381   0.3547287179
	    C    -1.8834385506   0.1458832074  -0.2071757531
	    H    -1.4312073858   2.1954013822   0.2248316190
	    H    -1.0196467485   1.1057159356   1.5160752047
	    C    -3.3476472373   0.2455821691   0.2254350800
	    H    -1.8221836817   0.2316973683  -1.2910121202
	    H    -1.5103413275  -0.8448140703   0.0424001790
	    C    -4.2399930775  -0.8255708323  -0.4042349532
	    H    -3.7328886665   1.2304661498  -0.0330792480
	    H    -3.4085854112   0.1706012437   1.3100379271
	    C    -5.7012759426  -0.7166580123   0.0299208665
	    H    -4.1794972296  -0.7527148342  -1.4880582327
	    H    -3.8590415069  -1.8107592799  -0.1433528780
	    H    -6.3081029473  -1.4889083031  -0.4326787600
	    H    -6.1221757734   0.2454780720  -0.2481675141
	    H    -5.7990732675  -0.8201143464   1.1069564104
	    C     4.7281186171  -1.1091074740  -0.0049936060
	    H     4.8820181622  -1.0339652725  -1.0718450415
	    H     5.0682114815  -2.0675272159   0.3552496374
	    H     5.2650562628  -0.3116634919   0.4882800246
	Saving final (previous) structure.
			--------------------------
			 OPTKING Finished Execution 
			--------------------------

    Final optimized geometry and variables:
    Molecular point group: c1
    Full point group: C1

    Geometry (in Angstrom), charge = 0, multiplicity = 1:

    O            3.225978966131     0.970354729689    -0.599647438952
    C            2.701188186771     0.057884960559    -0.047330334133
    C            1.245375102120    -0.013843055321     0.345419516518
    O            3.347902642466    -1.046386539310     0.304772445553
    C            0.455111413867     1.231399269556    -0.050772775950
    H            0.838541830101    -0.913825711512    -0.103701888834
    H            1.208209398416    -0.175333864836     1.419773940732
    C           -0.998893330997     1.219484316754     0.433192991503
    H            0.482530416824     1.345120147069    -1.130325904287
    H            0.957289605048     2.103069477508     0.354728690777
    C           -1.883438406751     0.145883196222    -0.207175737248
    H           -1.431207276471     2.195401214534     0.224831601834
    H           -1.019646670661     1.105715851125     1.516075088904
    C           -3.347646981634     0.245582150373     0.225435062824
    H           -1.822183542504     0.231697350611    -1.291012021610
    H           -1.510341212191    -0.844814005785     0.042400175733
    C           -4.239992753731    -0.825570769241    -0.404234922314
    H           -3.732888381469     1.230466055883    -0.033079245470
    H           -3.408585150936     0.170601230636     1.310037827066
    C           -5.701275507255    -0.716657957554     0.029920864216
    H           -4.179496910405    -0.752714776724    -1.488058119056
    H           -3.859041212166    -1.810759141597    -0.143352867032
    H           -6.308102465543    -1.488908189372    -0.432678726923
    H           -6.122175305848     0.245478053264    -0.248167495195
    H           -5.799072824674    -0.820114283803     1.106956325908
    C            4.728118256045    -1.109107389345    -0.004993605608
    H            4.882017789434    -1.033965193510    -1.071844959637
    H            5.068211094454    -2.067527057994     0.355249610306
    H            5.265055860692    -0.311663468081     0.488279987275

	Cleaning optimization helper files.


Properties will be evaluated at   0.000000,   0.000000,   0.000000 Bohr

Properties computed using the  density matrix

  Nuclear Dipole Moment: (a.u.)
     X:   -19.1780      Y:    -1.4929      Z:     0.8199

  Electronic Dipole Moment: (a.u.)
     X:    19.0301      Y:     0.8784      Z:    -0.5131

  Dipole Moment: (a.u.)
     X:    -0.1479      Y:    -0.6145      Z:     0.3069     Total:     0.7026

  Dipole Moment: (Debye)
     X:    -0.3758      Y:    -1.5619      Z:     0.7800     Total:     1.7858

  Quadrupole Moment: (Debye Ang)
    XX:   -67.3562     YY:   -72.5468     ZZ:   -70.1261
    XY:    -7.7606     XZ:     3.0716     YZ:     2.1631

  Traceless Quadrupole Moment: (Debye Ang)
    XX:     2.6535     YY:    -2.5371     ZZ:    -0.1164
    XY:    -7.7606     XZ:     3.0716     YZ:     2.1631

  Mulliken Charges: (a.u.)
   Center  Symbol    Alpha    Beta     Spin     Total
       1     O     4.28596  4.28596  0.00000 -0.57192
       2     C     2.60483  2.60483  0.00000  0.79033
       3     C     3.20974  3.20974  0.00000 -0.41947
       4     O     4.30746  4.30746  0.00000 -0.61493
       5     C     3.15378  3.15378  0.00000 -0.30756
       6     H     0.39879  0.39879  0.00000  0.20243
       7     H     0.40125  0.40125  0.00000  0.19751
       8     C     3.15663  3.15663  0.00000 -0.31326
       9     H     0.41308  0.41308  0.00000  0.17384
      10     H     0.40874  0.40874  0.00000  0.18251
      11     C     3.15507  3.15507  0.00000 -0.31015
      12     H     0.41823  0.41823  0.00000  0.16355
      13     H     0.42386  0.42386  0.00000  0.15227
      14     C     3.15029  3.15029  0.00000 -0.30059
      15     H     0.42261  0.42261  0.00000  0.15478
      16     H     0.42361  0.42361  0.00000  0.15278
      17     C     3.15146  3.15146  0.00000 -0.30291
      18     H     0.42332  0.42332  0.00000  0.15336
      19     H     0.42397  0.42397  0.00000  0.15205
      20     C     3.23935  3.23935  0.00000 -0.47870
      21     H     0.42280  0.42280  0.00000  0.15440
      22     H     0.42343  0.42343  0.00000  0.15314
      23     H     0.41923  0.41923  0.00000  0.16154
      24     H     0.42154  0.42154  0.00000  0.15691
      25     H     0.42183  0.42183  0.00000  0.15634
      26     C     3.09241  3.09241  0.00000 -0.18481
      27     H     0.40908  0.40908  0.00000  0.18184
      28     H     0.40852  0.40852  0.00000  0.18296
      29     H     0.40913  0.40913  0.00000  0.18175

   Total alpha = 44.00000, Total beta = 44.00000, Total charge = -0.00000


*** PSI4 exiting successfully. Buy a developer a beer!
