    -----------------------------------------------------------------------
          Psi4: An Open-Source Ab Initio Electronic Structure Package
                              Psi4 (no tag) Driver

                          Git: Rev {detached?}  

    J. M. Turney, A. C. Simmonett, R. M. Parrish, E. G. Hohenstein,
    F. A. Evangelista, J. T. Fermann, B. J. Mintz, L. A. Burns, J. J. Wilke,
    M. L. Abrams, N. J. Russ, M. L. Leininger, C. L. Janssen, E. T. Seidl,
    W. D. Allen, H. F. Schaefer, R. A. King, E. F. Valeev, C. D. Sherrill,
    and T. D. Crawford, WIREs Comput. Mol. Sci. 2, 556-565 (2012)
    (doi: 10.1002/wcms.93)

                         Additional Contributions by
    A. E. DePrince, M. Saitow, U. Bozkaya, A. Yu. Sokolov
    -----------------------------------------------------------------------


    Psi4 started on: Tue Jul  5 17:03:41 2016

    Process ID:  16879
    PSI4DATADIR: /export131/home/mjharvey/miniconda3/share
    Memory level set to 256.000 MB

  ==> Input File <==

--------------------------------------------------------------------------
set {
	reference rhf
	basis 6-31G*
}


set_num_threads( 1 )
memory 2 gb

molecule MOL {
0 1

H	 -0.000158	 1.970498	 0.756846
O	 -0.000074	 1.880206	 -0.189275
C	 -0.000015	 0.544847	 -0.545111
C	 -1.146713	 -0.178430	 0.153418
C	 1.372058	 -0.064025	 -0.275501
H	 -0.178470	 0.486751	 -1.608540
F	 -0.840113	 -1.448887	 0.306646
F	 -1.403627	 0.324928	 1.342108
F	 -2.253254	 -0.114431	 -0.569817
F	 2.283717	 0.570380	 -0.981153
F	 1.423530	 -1.339565	 -0.596012
F	 1.696156	 0.053849	 1.002248

	symmetry c1
}
set optking {
	frozen_dihedral = ("
		6 3 2 1
	")
}

ee = energy('scf')
oeprop('DIPOLE', 'QUADRUPOLE', 'MULLIKEN_CHARGES')
f=open( 'psi4out.xyz', 'w' )
f.write( "12  " )
f.write( str(ee) + "\n" )
f.write( MOL.save_string_xyz() )
f.close()
--------------------------------------------------------------------------

  Memory set to   2.000 GiB by Python script.

*** tstart() called on cx1-3-4-4.cx1.hpc.ic.ac.uk
*** at Tue Jul  5 17:03:41 2016


         ---------------------------------------------------------
                                   SCF
            by Justin Turney, Rob Parrish, and Andy Simmonett
                              RHF Reference
                        1 Threads,   2000 MiB Core
         ---------------------------------------------------------

  ==> Geometry <==

    Molecular point group: c1
    Full point group: C1

    Geometry (in Angstrom), charge = 0, multiplicity = 1:

       Center              X                  Y                   Z               Mass       
    ------------   -----------------  -----------------  -----------------  -----------------
           H         -0.117675610915     1.976085817555     0.770634900213     1.007825032070
           O         -0.117591610915     1.885793817555    -0.175486099787    15.994914619560
           C         -0.117532610915     0.550434817555    -0.531322099787    12.000000000000
           C         -1.264230610915    -0.172842182445     0.167206900213    12.000000000000
           C          1.254540389085    -0.058437182445    -0.261712099787    12.000000000000
           H         -0.295987610915     0.492338817555    -1.594751099787     1.007825032070
           F         -0.957630610915    -1.443299182445     0.320434900213    18.998403224000
           F         -1.521144610915     0.330515817555     1.355896900213    18.998403224000
           F         -2.370771610915    -0.108843182445    -0.556028099787    18.998403224000
           F          2.166199389085     0.575967817555    -0.967364099787    18.998403224000
           F          1.306012389085    -1.333977182445    -0.582223099787    18.998403224000
           F          1.578638389085     0.059436817555     1.016036900213    18.998403224000

  Running in c1 symmetry.

  Rotational constants: A =      0.07230  B =      0.03580  C =      0.03175 [cm^-1]
  Rotational constants: A =   2167.38535  B =   1073.14763  C =    951.75561 [MHz]
  Nuclear repulsion =  671.409788754566762

  Charge       = 0
  Multiplicity = 1
  Electrons    = 82
  Nalpha       = 41
  Nbeta        = 41

  ==> Algorithm <==

  SCF Algorithm Type is DF.
  DIIS enabled.
  MOM disabled.
  Fractional occupation disabled.
  Guess Type is CORE.
  Energy threshold   = 1.00e-06
  Density threshold  = 1.00e-06
  Integral threshold = 0.00e+00

  ==> Primary Basis <==

  Basis Set: 6-31G*
    Number of shells: 64
    Number of basis function: 154
    Number of Cartesian functions: 154
    Spherical Harmonics?: false
    Max angular momentum: 2

  ==> Pre-Iterations <==

   -------------------------------------------------------
    Irrep   Nso     Nmo     Nalpha   Nbeta   Ndocc  Nsocc
   -------------------------------------------------------
     A        154     154       0       0       0       0
   -------------------------------------------------------
    Total     154     154      41      41      41       0
   -------------------------------------------------------

 OEINTS: Overlap, kinetic, potential, dipole, and quadrupole integrals
         stored in file 35.

  ==> Integral Setup <==

  ==> DFJK: Density-Fitted J/K Matrices <==

    J tasked:                  Yes
    K tasked:                  Yes
    wK tasked:                  No
    OpenMP threads:              1
    Integrals threads:           1
    Memory (MB):              1430
    Algorithm:                Core
    Integral Cache:           NONE
    Schwarz Cutoff:          1E-12
    Fitting Condition:       1E-12

   => Auxiliary Basis Set <=

  Basis Set: 
    Number of shells: 258
    Number of basis function: 860
    Number of Cartesian functions: 860
    Spherical Harmonics?: false
    Max angular momentum: 3

  Minimum eigenvalue in the overlap matrix is 1.4084487894E-03.
  Using Symmetric Orthogonalization.
  SCF Guess: Core (One-Electron) Hamiltonian.

  ==> Iterations <==

                           Total Energy        Delta E     RMS |[F,P]|

   @DF-RHF iter   1:  -700.91964849662213   -7.00920e+02   6.77237e-02 
   @DF-RHF iter   2:  -557.24921029220241    1.43670e+02   8.87558e-02 DIIS
   @DF-RHF iter   3:  -730.42828199669157   -1.73179e+02   4.96069e-02 DIIS
   @DF-RHF iter   4:  -695.33780563305436    3.50905e+01   5.82078e-02 DIIS
   @DF-RHF iter   5:  -775.03817057795686   -7.97004e+01   2.90358e-02 DIIS
   @DF-RHF iter   6:  -785.37995629941770   -1.03418e+01   1.00061e-02 DIIS
   @DF-RHF iter   7:  -786.16955293243745   -7.89597e-01   3.16923e-03 DIIS
   @DF-RHF iter   8:  -786.25581349733261   -8.62606e-02   1.28881e-03 DIIS
   @DF-RHF iter   9:  -786.27045730512236   -1.46438e-02   4.79887e-04 DIIS
   @DF-RHF iter  10:  -786.27319519756566   -2.73789e-03   1.42797e-04 DIIS
   @DF-RHF iter  11:  -786.27347741009953   -2.82213e-04   5.57845e-05 DIIS
   @DF-RHF iter  12:  -786.27351513234362   -3.77222e-05   1.47715e-05 DIIS
   @DF-RHF iter  13:  -786.27351852148809   -3.38914e-06   3.37833e-06 DIIS
   @DF-RHF iter  14:  -786.27351876530929   -2.43821e-07   9.78629e-07 DIIS

  ==> Post-Iterations <==

    Orbital Energies (a.u.)
    -----------------------

    Doubly Occupied:                                                      

       1A    -26.370996     2A    -26.360454     3A    -26.360395  
       4A    -26.360157     5A    -26.356875     6A    -26.355810  
       7A    -20.614834     8A    -11.528634     9A    -11.522869  
      10A    -11.348195    11A     -1.766906    12A     -1.757292  
      13A     -1.666145    14A     -1.658839    15A     -1.655604  
      16A     -1.652230    17A     -1.434042    18A     -1.101577  
      19A     -0.997273    20A     -0.938409    21A     -0.866141  
      22A     -0.861237    23A     -0.853100    24A     -0.844230  
      25A     -0.833225    26A     -0.816034    27A     -0.741748  
      28A     -0.729556    29A     -0.723121    30A     -0.719999  
      31A     -0.689541    32A     -0.688431    33A     -0.682006  
      34A     -0.675894    35A     -0.666608    36A     -0.662543  
      37A     -0.654352    38A     -0.651145    39A     -0.622028  
      40A     -0.550313    41A     -0.504372  

    Virtual:                                                              

      42A      0.217831    43A      0.239695    44A      0.293706  
      45A      0.348725    46A      0.355171    47A      0.397189  
      48A      0.452462    49A      0.463177    50A      0.487986  
      51A      0.526738    52A      0.544749    53A      0.667447  
      54A      0.672995    55A      0.709351    56A      0.737761  
      57A      0.751018    58A      0.778784    59A      0.797755  
      60A      0.839687    61A      0.906264    62A      0.957198  
      63A      1.054420    64A      1.088918    65A      1.110625  
      66A      1.165587    67A      1.236729    68A      1.255321  
      69A      1.280469    70A      1.308683    71A      1.346656  
      72A      1.368886    73A      1.372984    74A      1.389080  
      75A      1.434830    76A      1.465040    77A      1.525476  
      78A      1.567026    79A      1.587042    80A      1.601508  
      81A      1.604783    82A      1.615954    83A      1.628050  
      84A      1.639560    85A      1.643312    86A      1.654257  
      87A      1.656408    88A      1.666893    89A      1.685409  
      90A      1.733691    91A      1.747487    92A      1.784594  
      93A      1.882307    94A      1.904848    95A      1.914967  
      96A      1.930371    97A      1.983600    98A      1.985254  
      99A      1.999793   100A      2.087139   101A      2.090861  
     102A      2.108647   103A      2.118439   104A      2.135353  
     105A      2.142840   106A      2.166976   107A      2.189300  
     108A      2.206761   109A      2.285358   110A      2.309097  
     111A      2.314178   112A      2.325731   113A      2.349586  
     114A      2.358133   115A      2.391263   116A      2.401124  
     117A      2.404671   118A      2.421508   119A      2.453407  
     120A      2.489090   121A      2.521327   122A      2.551554  
     123A      2.559033   124A      2.633583   125A      2.652756  
     126A      2.697668   127A      2.738910   128A      2.797149  
     129A      2.838368   130A      2.908159   131A      2.960215  
     132A      3.067028   133A      3.144315   134A      3.147051  
     135A      3.206503   136A      3.220927   137A      3.256478  
     138A      3.329882   139A      3.405367   140A      3.411839  
     141A      3.423347   142A      3.447310   143A      3.457949  
     144A      3.469816   145A      4.163102   146A      4.595003  
     147A      4.739181   148A      4.899243   149A      5.096420  
     150A      5.110975   151A      5.222702   152A      5.558815  
     153A      5.823129   154A      6.114161  

    Final Occupation by Irrep:
              A 
    DOCC [    41 ]

  Energy converged.

  @DF-RHF Final Energy:  -786.27351876530929

   => Energetics <=

    Nuclear Repulsion Energy =            671.4097887545667618
    One-Electron Energy =               -2429.6802255809839153
    Two-Electron Energy =                 971.9969180611083175
    DFT Exchange-Correlation Energy =       0.0000000000000000
    Empirical Dispersion Energy =           0.0000000000000000
    PCM Polarization Energy =               0.0000000000000000
    EFP Energy =                            0.0000000000000000
    Total Energy =                       -786.2735187653088360

    Alert: EFP and PCM quantities not currently incorporated into SCF psivars.

Properties will be evaluated at   0.000000,   0.000000,   0.000000 Bohr
  ==> Properties <==


Properties computed using the SCF density matrix

  Nuclear Dipole Moment: (a.u.)
     X:    -0.5783      Y:     4.1346      Z:    -1.3269

  Electronic Dipole Moment: (a.u.)
     X:     0.4380      Y:    -3.9579      Z:     1.3588

  Dipole Moment: (a.u.)
     X:    -0.1403      Y:     0.1767      Z:     0.0318     Total:     0.2278

  Dipole Moment: (Debye)
     X:    -0.3565      Y:     0.4490      Z:     0.0809     Total:     0.5791


  Saving occupied orbitals to File 180.

*** tstop() called on cx1-3-4-4.cx1.hpc.ic.ac.uk at Tue Jul  5 17:03:57 2016
Module time:
	user time   =      15.02 seconds =       0.25 minutes
	system time =       0.18 seconds =       0.00 minutes
	total time  =         16 seconds =       0.27 minutes
Total time:
	user time   =      15.02 seconds =       0.25 minutes
	system time =       0.18 seconds =       0.00 minutes
	total time  =         16 seconds =       0.27 minutes


Properties will be evaluated at   0.000000,   0.000000,   0.000000 Bohr

Properties computed using the  density matrix

  Nuclear Dipole Moment: (a.u.)
     X:    -0.5783      Y:     4.1346      Z:    -1.3269

  Electronic Dipole Moment: (a.u.)
     X:     0.4380      Y:    -3.9579      Z:     1.3588

  Dipole Moment: (a.u.)
     X:    -0.1403      Y:     0.1767      Z:     0.0318     Total:     0.2278

  Dipole Moment: (Debye)
     X:    -0.3565      Y:     0.4490      Z:     0.0809     Total:     0.5791

  Quadrupole Moment: (Debye Ang)
    XX:   -56.6001     YY:   -55.1048     ZZ:   -50.0286
    XY:    -0.2152     XZ:     0.5788     YZ:     2.9551

  Traceless Quadrupole Moment: (Debye Ang)
    XX:    -2.6889     YY:    -1.1937     ZZ:     3.8826
    XY:    -0.2152     XZ:     0.5788     YZ:     2.9551

  Mulliken Charges: (a.u.)
   Center  Symbol    Alpha    Beta     Spin     Total
       1     H     0.26459  0.26459  0.00000  0.47081
       2     O     4.36413  4.36413  0.00000 -0.72826
       3     C     3.06321  3.06321  0.00000 -0.12643
       4     C     2.43547  2.43547  0.00000  1.12905
       5     C     2.44006  2.44006  0.00000  1.11988
       6     H     0.37243  0.37243  0.00000  0.25513
       7     F     4.67426  4.67426  0.00000 -0.34852
       8     F     4.67655  4.67655  0.00000 -0.35311
       9     F     4.67841  4.67841  0.00000 -0.35681
      10     F     4.67539  4.67539  0.00000 -0.35078
      11     F     4.67386  4.67386  0.00000 -0.34773
      12     F     4.68162  4.68162  0.00000 -0.36325

   Total alpha = 41.00000, Total beta = 41.00000, Total charge = -0.00000


*** PSI4 exiting successfully. Buy a developer a beer!
