    -----------------------------------------------------------------------
          Psi4: An Open-Source Ab Initio Electronic Structure Package
                              Psi4 (no tag) Driver

                          Git: Rev {detached?}  

    J. M. Turney, A. C. Simmonett, R. M. Parrish, E. G. Hohenstein,
    F. A. Evangelista, J. T. Fermann, B. J. Mintz, L. A. Burns, J. J. Wilke,
    M. L. Abrams, N. J. Russ, M. L. Leininger, C. L. Janssen, E. T. Seidl,
    W. D. Allen, H. F. Schaefer, R. A. King, E. F. Valeev, C. D. Sherrill,
    and T. D. Crawford, WIREs Comput. Mol. Sci. 2, 556-565 (2012)
    (doi: 10.1002/wcms.93)

                         Additional Contributions by
    A. E. DePrince, M. Saitow, U. Bozkaya, A. Yu. Sokolov
    -----------------------------------------------------------------------


    Psi4 started on: Tue Jul  5 16:34:47 2016

    Process ID:  11037
    PSI4DATADIR: /export131/home/mjharvey/miniconda3/share
    Memory level set to 256.000 MB

  ==> Input File <==

--------------------------------------------------------------------------
set {
	reference rhf
	basis 6-31G*
}


set_num_threads( 1 )
memory 2 gb

molecule MOL {
0 1

H	 2.332609	 0.878551	 -1.051851
C	 2.357710	 0.000000	 -0.417167
C	 1.175432	 0.000000	 0.532082
H	 3.291263	 0.000000	 0.136880
H	 2.332609	 -0.878551	 -1.051851
O	 0.000000	 0.000000	 -0.221444
H	 1.206604	 0.877321	 1.177902
H	 1.206604	 -0.877321	 1.177902
C	 -1.175432	 0.000000	 0.532082
C	 -0.848745	 -0.468223	 1.936680
H	 -1.914036	 -0.657809	 0.074372
H	 -1.605528	 1.001105	 0.555616
H	 -0.431339	 -1.468504	 1.913956
H	 -1.743036	 -0.480406	 2.551973
H	 -0.122399	 0.192736	 2.395876

	symmetry c1
}
ee = energy('scf')
oeprop('DIPOLE', 'QUADRUPOLE', 'MULLIKEN_CHARGES')
f=open( 'psi4out.xyz', 'w' )
f.write( "15  " )
f.write( str(ee) + "\n" )
f.write( MOL.save_string_xyz() )
f.close()
--------------------------------------------------------------------------

  Memory set to   2.000 GiB by Python script.

*** tstart() called on cx1-3-15-4.cx1.hpc.ic.ac.uk
*** at Tue Jul  5 16:34:47 2016


         ---------------------------------------------------------
                                   SCF
            by Justin Turney, Rob Parrish, and Andy Simmonett
                              RHF Reference
                        1 Threads,   2000 MiB Core
         ---------------------------------------------------------

  ==> Geometry <==

    Molecular point group: c1
    Full point group: C1

    Geometry (in Angstrom), charge = 0, multiplicity = 1:

       Center              X                  Y                   Z               Mass       
    ------------   -----------------  -----------------  -----------------  -----------------
           H          2.026201664281     0.973627399413    -1.529818810241     1.007825032070
           C          2.051302664281     0.095076399413    -0.895134810241    12.000000000000
           C          0.869024664281     0.095076399413     0.054114189759    12.000000000000
           H          2.984855664281     0.095076399413    -0.341087810241     1.007825032070
           H          2.026201664281    -0.783474600587    -1.529818810241     1.007825032070
           O         -0.306407335719     0.095076399413    -0.699411810241    15.994914619560
           H          0.900196664281     0.972397399413     0.699934189759     1.007825032070
           H          0.900196664281    -0.782244600587     0.699934189759     1.007825032070
           C         -1.481839335719     0.095076399413     0.054114189759    12.000000000000
           C         -1.155152335719    -0.373146600587     1.458712189759    12.000000000000
           H         -2.220443335719    -0.562732600587    -0.403595810241     1.007825032070
           H         -1.911935335719     1.096181399413     0.077648189759     1.007825032070
           H         -0.737746335719    -1.373427600587     1.435988189759     1.007825032070
           H         -2.049443335719    -0.385329600587     2.074005189759     1.007825032070
           H         -0.428806335719     0.287812399413     1.917908189759     1.007825032070

  Running in c1 symmetry.

  Rotational constants: A =      0.40123  B =      0.09988  C =      0.08544 [cm^-1]
  Rotational constants: A =  12028.64310  B =   2994.33253  C =   2561.55918 [MHz]
  Nuclear repulsion =  197.207596487710276

  Charge       = 0
  Multiplicity = 1
  Electrons    = 42
  Nalpha       = 21
  Nbeta        = 21

  ==> Algorithm <==

  SCF Algorithm Type is DF.
  DIIS enabled.
  MOM disabled.
  Fractional occupation disabled.
  Guess Type is CORE.
  Energy threshold   = 1.00e-06
  Density threshold  = 1.00e-06
  Integral threshold = 0.00e+00

  ==> Primary Basis <==

  Basis Set: 6-31G*
    Number of shells: 50
    Number of basis function: 95
    Number of Cartesian functions: 95
    Spherical Harmonics?: false
    Max angular momentum: 2

  ==> Pre-Iterations <==

   -------------------------------------------------------
    Irrep   Nso     Nmo     Nalpha   Nbeta   Ndocc  Nsocc
   -------------------------------------------------------
     A         95      95       0       0       0       0
   -------------------------------------------------------
    Total      95      95      21      21      21       0
   -------------------------------------------------------

 OEINTS: Overlap, kinetic, potential, dipole, and quadrupole integrals
         stored in file 35.

  ==> Integral Setup <==

  ==> DFJK: Density-Fitted J/K Matrices <==

    J tasked:                  Yes
    K tasked:                  Yes
    wK tasked:                  No
    OpenMP threads:              1
    Integrals threads:           1
    Memory (MB):              1430
    Algorithm:                Core
    Integral Cache:           NONE
    Schwarz Cutoff:          1E-12
    Fitting Condition:       1E-12

   => Auxiliary Basis Set <=

  Basis Set: 
    Number of shells: 210
    Number of basis function: 655
    Number of Cartesian functions: 655
    Spherical Harmonics?: false
    Max angular momentum: 3

  Minimum eigenvalue in the overlap matrix is 4.3023657871E-03.
  Using Symmetric Orthogonalization.
  SCF Guess: Core (One-Electron) Hamiltonian.

  ==> Iterations <==

                           Total Energy        Delta E     RMS |[F,P]|

   @DF-RHF iter   1:  -177.78931629285765   -1.77789e+02   8.09002e-02 
   @DF-RHF iter   2:  -163.42962199884423    1.43597e+01   6.53103e-02 DIIS
   @DF-RHF iter   3:  -203.52249064772869   -4.00929e+01   5.03651e-02 DIIS
   @DF-RHF iter   4:  -220.40425667225387   -1.68818e+01   4.23772e-02 DIIS
   @DF-RHF iter   5:  -231.88749469606293   -1.14832e+01   6.89593e-03 DIIS
   @DF-RHF iter   6:  -232.08852666098116   -2.01032e-01   2.36611e-03 DIIS
   @DF-RHF iter   7:  -232.11560471123860   -2.70781e-02   9.27924e-04 DIIS
   @DF-RHF iter   8:  -232.12013208683808   -4.52738e-03   2.26430e-04 DIIS
   @DF-RHF iter   9:  -232.12041825515436   -2.86168e-04   9.45159e-05 DIIS
   @DF-RHF iter  10:  -232.12047412461570   -5.58695e-05   3.81931e-05 DIIS
   @DF-RHF iter  11:  -232.12048452324277   -1.03986e-05   9.28684e-06 DIIS
   @DF-RHF iter  12:  -232.12048510024542   -5.77003e-07   1.54003e-06 DIIS
   @DF-RHF iter  13:  -232.12048512391979   -2.36744e-08   2.85102e-07 DIIS

  ==> Post-Iterations <==

    Orbital Energies (a.u.)
    -----------------------

    Doubly Occupied:                                                      

       1A    -20.547910     2A    -11.268650     3A    -11.265318  
       4A    -11.212714     5A    -11.206436     6A     -1.378712  
       7A     -1.035909     8A     -0.996712     9A     -0.878344  
      10A     -0.791466    11A     -0.682570    12A     -0.670448  
      13A     -0.619767    14A     -0.596926    15A     -0.549292  
      16A     -0.534033    17A     -0.516953    18A     -0.507513  
      19A     -0.500819    20A     -0.449523    21A     -0.400211  

    Virtual:                                                              

      22A      0.230707    23A      0.265767    24A      0.284643  
      25A      0.285118    26A      0.311253    27A      0.319791  
      28A      0.327640    29A      0.339737    30A      0.344401  
      31A      0.373297    32A      0.407622    33A      0.413150  
      34A      0.445149    35A      0.464104    36A      0.717949  
      37A      0.740313    38A      0.749257    39A      0.764406  
      40A      0.775236    41A      0.844151    42A      0.861678  
      43A      0.875767    44A      0.919376    45A      0.964221  
      46A      0.998361    47A      1.112282    48A      1.118309  
      49A      1.123814    50A      1.147978    51A      1.169783  
      52A      1.178777    53A      1.198764    54A      1.201941  
      55A      1.210430    56A      1.225814    57A      1.252838  
      58A      1.297237    59A      1.363982    60A      1.420952  
      61A      1.473866    62A      1.609054    63A      1.650543  
      64A      1.672311    65A      1.738820    66A      1.776873  
      67A      1.846863    68A      1.936272    69A      2.085328  
      70A      2.120226    71A      2.216403    72A      2.239092  
      73A      2.255773    74A      2.292843    75A      2.348996  
      76A      2.452846    77A      2.492048    78A      2.520703  
      79A      2.568536    80A      2.616818    81A      2.653500  
      82A      2.665294    83A      2.682588    84A      2.776331  
      85A      2.837183    86A      2.853514    87A      2.983666  
      88A      3.017498    89A      3.230643    90A      3.355510  
      91A      4.435794    92A      4.626321    93A      4.631139  
      94A      4.825005    95A      4.898536  

    Final Occupation by Irrep:
              A 
    DOCC [    21 ]

  Energy converged.

  @DF-RHF Final Energy:  -232.12048512391979

   => Energetics <=

    Nuclear Repulsion Energy =            197.2075964877102763
    One-Electron Energy =                -705.4357146793340689
    Two-Electron Energy =                 276.1076330677045689
    DFT Exchange-Correlation Energy =       0.0000000000000000
    Empirical Dispersion Energy =           0.0000000000000000
    PCM Polarization Energy =               0.0000000000000000
    EFP Energy =                            0.0000000000000000
    Total Energy =                       -232.1204851239192521

    Alert: EFP and PCM quantities not currently incorporated into SCF psivars.

Properties will be evaluated at   0.000000,   0.000000,   0.000000 Bohr
  ==> Properties <==


Properties computed using the SCF density matrix

  Nuclear Dipole Moment: (a.u.)
     X:     1.3947      Y:    -0.4328      Z:     2.9038

  Electronic Dipole Moment: (a.u.)
     X:    -1.3968      Y:     0.3916      Z:    -2.2968

  Dipole Moment: (a.u.)
     X:    -0.0021      Y:    -0.0411      Z:     0.6070     Total:     0.6084

  Dipole Moment: (Debye)
     X:    -0.0053      Y:    -0.1045      Z:     1.5428     Total:     1.5463


  Saving occupied orbitals to File 180.

*** tstop() called on cx1-3-15-4.cx1.hpc.ic.ac.uk at Tue Jul  5 16:34:53 2016
Module time:
	user time   =       5.86 seconds =       0.10 minutes
	system time =       0.04 seconds =       0.00 minutes
	total time  =          6 seconds =       0.10 minutes
Total time:
	user time   =       5.86 seconds =       0.10 minutes
	system time =       0.04 seconds =       0.00 minutes
	total time  =          6 seconds =       0.10 minutes


Properties will be evaluated at   0.000000,   0.000000,   0.000000 Bohr

Properties computed using the  density matrix

  Nuclear Dipole Moment: (a.u.)
     X:     1.3947      Y:    -0.4328      Z:     2.9038

  Electronic Dipole Moment: (a.u.)
     X:    -1.3968      Y:     0.3916      Z:    -2.2968

  Dipole Moment: (a.u.)
     X:    -0.0021      Y:    -0.0411      Z:     0.6070     Total:     0.6084

  Dipole Moment: (Debye)
     X:    -0.0053      Y:    -0.1045      Z:     1.5428     Total:     1.5463

  Quadrupole Moment: (Debye Ang)
    XX:   -30.8464     YY:   -32.9744     ZZ:   -35.0879
    XY:     0.0946     XZ:    -0.3902     YZ:     0.3029

  Traceless Quadrupole Moment: (Debye Ang)
    XX:     2.1232     YY:    -0.0048     ZZ:    -2.1183
    XY:     0.0946     XZ:    -0.3902     YZ:     0.3029

  Mulliken Charges: (a.u.)
   Center  Symbol    Alpha    Beta     Spin     Total
       1     H     0.41424  0.41424  0.00000  0.17152
       2     C     3.24003  3.24003  0.00000 -0.48005
       3     C     2.99681  2.99681  0.00000  0.00638
       4     H     0.42367  0.42367  0.00000  0.15265
       5     H     0.41446  0.41446  0.00000  0.17107
       6     O     4.31288  4.31288  0.00000 -0.62576
       7     H     0.43042  0.43042  0.00000  0.13917
       8     H     0.42656  0.42656  0.00000  0.14688
       9     C     2.97686  2.97686  0.00000  0.04628
      10     C     3.27730  3.27730  0.00000 -0.55460
      11     H     0.42017  0.42017  0.00000  0.15967
      12     H     0.42825  0.42825  0.00000  0.14350
      13     H     0.41153  0.41153  0.00000  0.17694
      14     H     0.41465  0.41465  0.00000  0.17070
      15     H     0.41218  0.41218  0.00000  0.17563

   Total alpha = 21.00000, Total beta = 21.00000, Total charge =  0.00000


*** PSI4 exiting successfully. Buy a developer a beer!
