    -----------------------------------------------------------------------
          Psi4: An Open-Source Ab Initio Electronic Structure Package
                              Psi4 (no tag) Driver

                          Git: Rev {detached?}  

    J. M. Turney, A. C. Simmonett, R. M. Parrish, E. G. Hohenstein,
    F. A. Evangelista, J. T. Fermann, B. J. Mintz, L. A. Burns, J. J. Wilke,
    M. L. Abrams, N. J. Russ, M. L. Leininger, C. L. Janssen, E. T. Seidl,
    W. D. Allen, H. F. Schaefer, R. A. King, E. F. Valeev, C. D. Sherrill,
    and T. D. Crawford, WIREs Comput. Mol. Sci. 2, 556-565 (2012)
    (doi: 10.1002/wcms.93)

                         Additional Contributions by
    A. E. DePrince, M. Saitow, U. Bozkaya, A. Yu. Sokolov
    -----------------------------------------------------------------------


    Psi4 started on: Tue Jul  5 16:34:45 2016

    Process ID:  26029
    PSI4DATADIR: /export131/home/mjharvey/miniconda3/share
    Memory level set to 256.000 MB

  ==> Input File <==

--------------------------------------------------------------------------
set {
	reference rhf
	basis 6-31G*
}


set_num_threads( 1 )
memory 2 gb

molecule MOL {
0 1

H	 2.379470	 3.118164	 0.000000
O	 1.433208	 3.083591	 0.000000
C	 0.995201	 1.805882	 0.000000
C	 1.863319	 0.721596	 0.000000
C	 -0.372909	 1.596824	 0.000000
H	 2.927672	 0.886484	 -0.000000
C	 1.363327	 -0.569790	 0.000000
H	 -1.044560	 2.433460	 0.000000
C	 -0.865228	 0.300799	 0.000000
H	 2.044955	 -1.400911	 -0.000000
C	 -0.002512	 -0.788004	 0.000000
C	 -2.333960	 0.069074	 0.000000
H	 -0.393055	 -1.790242	 -0.000000
O	 -2.847347	 -1.003763	 0.000000
H	 -2.943845	 0.977528	 0.000000

	symmetry c1
}
set optking {
	frozen_dihedral = ("
		4 3 2 1
	")
}

ee = energy('scf')
oeprop('DIPOLE', 'QUADRUPOLE', 'MULLIKEN_CHARGES')
f=open( 'psi4out.xyz', 'w' )
f.write( "15  " )
f.write( str(ee) + "\n" )
f.write( MOL.save_string_xyz() )
f.close()
--------------------------------------------------------------------------

  Memory set to   2.000 GiB by Python script.

*** tstart() called on cx1-3-16-3.cx1.hpc.ic.ac.uk
*** at Tue Jul  5 16:34:46 2016


         ---------------------------------------------------------
                                   SCF
            by Justin Turney, Rob Parrish, and Andy Simmonett
                              RHF Reference
                        1 Threads,   2000 MiB Core
         ---------------------------------------------------------

  ==> Geometry <==

    Molecular point group: c1
    Full point group: Cs

    Geometry (in Angstrom), charge = 0, multiplicity = 1:

       Center              X                  Y                   Z               Mass       
    ------------   -----------------  -----------------  -----------------  -----------------
           H          2.476639839213     2.502277679921     0.000000000000     1.007825032070
           O          1.530377839213     2.467704679921     0.000000000000    15.994914619560
           C          1.092370839213     1.189995679921     0.000000000000    12.000000000000
           C          1.960488839213     0.105709679921     0.000000000000    12.000000000000
           C         -0.275739160787     0.980937679921     0.000000000000    12.000000000000
           H          3.024841839213     0.270597679921     0.000000000000     1.007825032070
           C          1.460496839213    -1.185676320079     0.000000000000    12.000000000000
           H         -0.947390160787     1.817573679921     0.000000000000     1.007825032070
           C         -0.768058160787    -0.315087320079     0.000000000000    12.000000000000
           H          2.142124839213    -2.016797320079     0.000000000000     1.007825032070
           C          0.094657839213    -1.403890320079     0.000000000000    12.000000000000
           C         -2.236790160787    -0.546812320079     0.000000000000    12.000000000000
           H         -0.295885160787    -2.406128320079     0.000000000000     1.007825032070
           O         -2.750177160787    -1.619649320079     0.000000000000    15.994914619560
           H         -2.846675160787     0.361641679921     0.000000000000     1.007825032070

  Running in c1 symmetry.

  Rotational constants: A =      0.12480  B =      0.03833  C =      0.02932 [cm^-1]
  Rotational constants: A =   3741.36307  B =   1149.01401  C =    879.04849 [MHz]
  Nuclear repulsion =  402.404696052611996

  Charge       = 0
  Multiplicity = 1
  Electrons    = 64
  Nalpha       = 32
  Nbeta        = 32

  ==> Algorithm <==

  SCF Algorithm Type is DF.
  DIIS enabled.
  MOM disabled.
  Fractional occupation disabled.
  Guess Type is CORE.
  Energy threshold   = 1.00e-06
  Density threshold  = 1.00e-06
  Integral threshold = 0.00e+00

  ==> Primary Basis <==

  Basis Set: 6-31G*
    Number of shells: 66
    Number of basis function: 147
    Number of Cartesian functions: 147
    Spherical Harmonics?: false
    Max angular momentum: 2

  ==> Pre-Iterations <==

   -------------------------------------------------------
    Irrep   Nso     Nmo     Nalpha   Nbeta   Ndocc  Nsocc
   -------------------------------------------------------
     A        147     147       0       0       0       0
   -------------------------------------------------------
    Total     147     147      32      32      32       0
   -------------------------------------------------------

 OEINTS: Overlap, kinetic, potential, dipole, and quadrupole integrals
         stored in file 35.

  ==> Integral Setup <==

  ==> DFJK: Density-Fitted J/K Matrices <==

    J tasked:                  Yes
    K tasked:                  Yes
    wK tasked:                  No
    OpenMP threads:              1
    Integrals threads:           1
    Memory (MB):              1430
    Algorithm:                Core
    Integral Cache:           NONE
    Schwarz Cutoff:          1E-12
    Fitting Condition:       1E-12

   => Auxiliary Basis Set <=

  Basis Set: 
    Number of shells: 270
    Number of basis function: 879
    Number of Cartesian functions: 879
    Spherical Harmonics?: false
    Max angular momentum: 3

  Minimum eigenvalue in the overlap matrix is 4.1716356189E-04.
  Using Symmetric Orthogonalization.
  SCF Guess: Core (One-Electron) Hamiltonian.

  ==> Iterations <==

                           Total Energy        Delta E     RMS |[F,P]|

   @DF-RHF iter   1:  -337.48151290389040   -3.37482e+02   6.26903e-02 
   @DF-RHF iter   2:  -237.26647881077309    1.00215e+02   7.47468e-02 DIIS
   @DF-RHF iter   3:  -324.71162048298567   -8.74451e+01   5.16651e-02 DIIS
   @DF-RHF iter   4:  -317.01924793876350    7.69237e+00   5.85238e-02 DIIS
   @DF-RHF iter   5:  -417.12511084352690   -1.00106e+02   1.07365e-02 DIIS
   @DF-RHF iter   6:  -417.82200584711364   -6.96895e-01   7.33457e-03 DIIS
   @DF-RHF iter   7:  -418.26629786653160   -4.44292e-01   1.16200e-03 DIIS
   @DF-RHF iter   8:  -418.28178356762311   -1.54857e-02   5.41398e-04 DIIS
   @DF-RHF iter   9:  -418.28545999586385   -3.67643e-03   1.91686e-04 DIIS
   @DF-RHF iter  10:  -418.28624131328723   -7.81317e-04   6.60760e-05 DIIS
   @DF-RHF iter  11:  -418.28633924927482   -9.79360e-05   2.49599e-05 DIIS
   @DF-RHF iter  12:  -418.28636261911930   -2.33698e-05   1.53274e-05 DIIS
   @DF-RHF iter  13:  -418.28637316191003   -1.05428e-05   5.55702e-06 DIIS
   @DF-RHF iter  14:  -418.28637561182285   -2.44991e-06   2.04728e-06 DIIS
   @DF-RHF iter  15:  -418.28637587904797   -2.67225e-07   8.32246e-07 DIIS

  ==> Post-Iterations <==

    Orbital Energies (a.u.)
    -----------------------

    Doubly Occupied:                                                      

       1A    -20.604175     2A    -20.564861     3A    -11.332771  
       4A    -11.314964     5A    -11.252009     6A    -11.250944  
       7A    -11.249216     8A    -11.246828     9A    -11.239063  
      10A     -1.424018    11A     -1.405536    12A     -1.169365  
      13A     -1.051186    14A     -1.024274    15A     -0.901296  
      16A     -0.846222    17A     -0.813479    18A     -0.737825  
      19A     -0.701961    20A     -0.673450    21A     -0.660476  
      22A     -0.627584    23A     -0.612233    24A     -0.604299  
      25A     -0.576605    26A     -0.551089    27A     -0.536251  
      28A     -0.516866    29A     -0.485333    30A     -0.423444  
      31A     -0.356577    32A     -0.323810  

    Virtual:                                                              

      33A      0.083913    34A      0.142579    35A      0.211178  
      36A      0.227403    37A      0.242761    38A      0.263094  
      39A      0.307032    40A      0.323019    41A      0.334633  
      42A      0.377055    43A      0.404005    44A      0.441308  
      45A      0.463329    46A      0.479306    47A      0.509565  
      48A      0.555743    49A      0.607694    50A      0.678733  
      51A      0.711075    52A      0.723213    53A      0.734006  
      54A      0.757093    55A      0.764692    56A      0.798457  
      57A      0.813164    58A      0.816635    59A      0.852916  
      60A      0.856000    61A      0.862591    62A      0.870866  
      63A      0.897027    64A      0.942831    65A      0.984456  
      66A      1.008663    67A      1.010403    68A      1.053181  
      69A      1.081048    70A      1.087573    71A      1.107089  
      72A      1.115655    73A      1.138343    74A      1.163932  
      75A      1.189061    76A      1.203279    77A      1.212342  
      78A      1.228396    79A      1.241691    80A      1.299552  
      81A      1.314285    82A      1.331560    83A      1.348350  
      84A      1.416189    85A      1.440326    86A      1.482734  
      87A      1.497576    88A      1.541011    89A      1.564401  
      90A      1.610477    91A      1.625233    92A      1.639049  
      93A      1.713931    94A      1.715426    95A      1.745669  
      96A      1.750637    97A      1.827135    98A      1.854916  
      99A      1.965335   100A      2.012177   101A      2.040869  
     102A      2.044016   103A      2.052781   104A      2.087589  
     105A      2.146685   106A      2.171178   107A      2.222210  
     108A      2.254968   109A      2.275477   110A      2.296375  
     111A      2.305187   112A      2.364384   113A      2.383951  
     114A      2.428565   115A      2.451645   116A      2.501703  
     117A      2.577896   118A      2.596830   119A      2.634129  
     120A      2.664879   121A      2.667925   122A      2.720082  
     123A      2.777792   124A      2.836252   125A      2.879369  
     126A      2.950642   127A      2.951877   128A      2.987048  
     129A      3.029089   130A      3.033821   131A      3.116564  
     132A      3.150557   133A      3.272735   134A      3.307625  
     135A      3.328259   136A      3.404992   137A      3.558107  
     138A      3.838253   139A      4.334444   140A      4.359639  
     141A      4.518510   142A      4.530860   143A      4.604797  
     144A      4.652780   145A      4.781601   146A      4.874521  
     147A      5.186447  

    Final Occupation by Irrep:
              A 
    DOCC [    32 ]

  Energy converged.

  @DF-RHF Final Energy:  -418.28637587904797

   => Energetics <=

    Nuclear Repulsion Energy =            402.4046960526119960
    One-Electron Energy =               -1367.2264313050111468
    Two-Electron Energy =                 546.5353593733501611
    DFT Exchange-Correlation Energy =       0.0000000000000000
    Empirical Dispersion Energy =           0.0000000000000000
    PCM Polarization Energy =               0.0000000000000000
    EFP Energy =                            0.0000000000000000
    Total Energy =                       -418.2863758790489328

    Alert: EFP and PCM quantities not currently incorporated into SCF psivars.

Properties will be evaluated at   0.000000,   0.000000,   0.000000 Bohr
  ==> Properties <==


Properties computed using the SCF density matrix

  Nuclear Dipole Moment: (a.u.)
     X:     3.3256      Y:     0.5002      Z:     0.0000

  Electronic Dipole Moment: (a.u.)
     X:    -1.8841      Y:     0.1510      Z:     0.0000

  Dipole Moment: (a.u.)
     X:     1.4415      Y:     0.6512      Z:     0.0000     Total:     1.5817

  Dipole Moment: (Debye)
     X:     3.6638      Y:     1.6551      Z:     0.0000     Total:     4.0203


  Saving occupied orbitals to File 180.

*** tstop() called on cx1-3-16-3.cx1.hpc.ic.ac.uk at Tue Jul  5 16:35:05 2016
Module time:
	user time   =      17.78 seconds =       0.30 minutes
	system time =       0.10 seconds =       0.00 minutes
	total time  =         19 seconds =       0.32 minutes
Total time:
	user time   =      17.78 seconds =       0.30 minutes
	system time =       0.10 seconds =       0.00 minutes
	total time  =         19 seconds =       0.32 minutes


Properties will be evaluated at   0.000000,   0.000000,   0.000000 Bohr

Properties computed using the  density matrix

  Nuclear Dipole Moment: (a.u.)
     X:     3.3256      Y:     0.5002      Z:     0.0000

  Electronic Dipole Moment: (a.u.)
     X:    -1.8841      Y:     0.1510      Z:     0.0000

  Dipole Moment: (a.u.)
     X:     1.4415      Y:     0.6512      Z:     0.0000     Total:     1.5817

  Dipole Moment: (Debye)
     X:     3.6638      Y:     1.6551      Z:     0.0000     Total:     4.0203

  Quadrupole Moment: (Debye Ang)
    XX:   -46.8651     YY:   -54.6109     ZZ:   -54.1419
    XY:    -5.6404     XZ:    -0.0000     YZ:     0.0000

  Traceless Quadrupole Moment: (Debye Ang)
    XX:     5.0075     YY:    -2.7383     ZZ:    -2.2692
    XY:    -5.6404     XZ:    -0.0000     YZ:     0.0000

  Mulliken Charges: (a.u.)
   Center  Symbol    Alpha    Beta     Spin     Total
       1     H     0.27006  0.27006  0.00000  0.45987
       2     O     4.37746  4.37746  0.00000 -0.75493
       3     C     2.79568  2.79568  0.00000  0.40864
       4     C     3.13510  3.13510  0.00000 -0.27019
       5     C     3.12672  3.12672  0.00000 -0.25344
       6     H     0.39916  0.39916  0.00000  0.20168
       7     C     3.09457  3.09457  0.00000 -0.18914
       8     H     0.38458  0.38458  0.00000  0.23084
       9     C     3.04543  3.04543  0.00000 -0.09087
      10     H     0.39215  0.39215  0.00000  0.21570
      11     C     3.10176  3.10176  0.00000 -0.20352
      12     C     2.83116  2.83116  0.00000  0.33768
      13     H     0.37855  0.37855  0.00000  0.24290
      14     O     4.24619  4.24619  0.00000 -0.49239
      15     H     0.42141  0.42141  0.00000  0.15717

   Total alpha = 32.00000, Total beta = 32.00000, Total charge = -0.00000


*** PSI4 exiting successfully. Buy a developer a beer!
