    -----------------------------------------------------------------------
          Psi4: An Open-Source Ab Initio Electronic Structure Package
                              Psi4 (no tag) Driver

                          Git: Rev {detached?}  

    J. M. Turney, A. C. Simmonett, R. M. Parrish, E. G. Hohenstein,
    F. A. Evangelista, J. T. Fermann, B. J. Mintz, L. A. Burns, J. J. Wilke,
    M. L. Abrams, N. J. Russ, M. L. Leininger, C. L. Janssen, E. T. Seidl,
    W. D. Allen, H. F. Schaefer, R. A. King, E. F. Valeev, C. D. Sherrill,
    and T. D. Crawford, WIREs Comput. Mol. Sci. 2, 556-565 (2012)
    (doi: 10.1002/wcms.93)

                         Additional Contributions by
    A. E. DePrince, M. Saitow, U. Bozkaya, A. Yu. Sokolov
    -----------------------------------------------------------------------


    Psi4 started on: Tue Jul  5 17:06:59 2016

    Process ID:  17622
    PSI4DATADIR: /export131/home/mjharvey/miniconda3/share
    Memory level set to 256.000 MB

  ==> Input File <==

--------------------------------------------------------------------------
set {
	reference rhf
	basis 6-31G*
}


set_num_threads( 1 )
memory 2 gb

molecule MOL {
0 1

H	 -2.646374	 -0.642757	 1.268656
C	 -2.083525	 -0.384536	 0.393091
O	 -0.807605	 -0.127164	 0.768327
F	 -2.118945	 -1.383102	 -0.486752
F	 -2.621877	 0.670592	 -0.209486
C	 0.084052	 0.273579	 -0.209957
C	 0.880980	 -0.958995	 -0.617174
Cl	 1.161972	 1.540268	 0.398979
H	 -0.412232	 0.659301	 -1.083281
F	 1.670845	 -1.340377	 0.364050
F	 1.635000	 -0.653246	 -1.654194
F	 0.105442	 -1.962148	 -0.949136

	symmetry c1
}
set optking {
	frozen_dihedral = ("
		10 7 6 9,
		6 3 2 4
	")
}

ee = energy('scf')
oeprop('DIPOLE', 'QUADRUPOLE', 'MULLIKEN_CHARGES')
f=open( 'psi4out.xyz', 'w' )
f.write( "12  " )
f.write( str(ee) + "\n" )
f.write( MOL.save_string_xyz() )
f.close()
--------------------------------------------------------------------------

  Memory set to   2.000 GiB by Python script.

*** tstart() called on cx1-3-4-4.cx1.hpc.ic.ac.uk
*** at Tue Jul  5 17:06:59 2016


         ---------------------------------------------------------
                                   SCF
            by Justin Turney, Rob Parrish, and Andy Simmonett
                              RHF Reference
                        1 Threads,   2000 MiB Core
         ---------------------------------------------------------

  ==> Geometry <==

    Molecular point group: c1
    Full point group: C1

    Geometry (in Angstrom), charge = 0, multiplicity = 1:

       Center              X                  Y                   Z               Mass       
    ------------   -----------------  -----------------  -----------------  -----------------
           H         -2.570012997713    -0.372686767127     1.456460409501     1.007825032070
           C         -2.007163997713    -0.114465767127     0.580895409501    12.000000000000
           O         -0.731243997713     0.142906232873     0.956131409501    15.994914619560
           F         -2.042583997713    -1.113031767127    -0.298947590499    18.998403224000
           F         -2.545515997713     0.940662232873    -0.021681590499    18.998403224000
           C          0.160413002287     0.543649232873    -0.022152590499    12.000000000000
           C          0.957341002287    -0.688924767127    -0.429369590499    12.000000000000
          CL          1.238333002287     1.810338232873     0.586783409501    34.968852682000
           H         -0.335870997713     0.929371232873    -0.895476590499     1.007825032070
           F          1.747206002287    -1.070306767127     0.551854409501    18.998403224000
           F          1.711361002287    -0.383175767127    -1.466389590499    18.998403224000
           F          0.181803002287    -1.692077767127    -0.761331590499    18.998403224000

  Running in c1 symmetry.

  Rotational constants: A =      0.05002  B =      0.03288  C =      0.02340 [cm^-1]
  Rotational constants: A =   1499.62797  B =    985.73057  C =    701.42570 [MHz]
  Nuclear repulsion =  747.266060059375604

  Charge       = 0
  Multiplicity = 1
  Electrons    = 90
  Nalpha       = 45
  Nbeta        = 45

  ==> Algorithm <==

  SCF Algorithm Type is DF.
  DIIS enabled.
  MOM disabled.
  Fractional occupation disabled.
  Guess Type is CORE.
  Energy threshold   = 1.00e-06
  Density threshold  = 1.00e-06
  Integral threshold = 0.00e+00

  ==> Primary Basis <==

  Basis Set: 6-31G*
    Number of shells: 66
    Number of basis function: 158
    Number of Cartesian functions: 158
    Spherical Harmonics?: false
    Max angular momentum: 2

  ==> Pre-Iterations <==

   -------------------------------------------------------
    Irrep   Nso     Nmo     Nalpha   Nbeta   Ndocc  Nsocc
   -------------------------------------------------------
     A        158     158       0       0       0       0
   -------------------------------------------------------
    Total     158     158      45      45      45       0
   -------------------------------------------------------

 OEINTS: Overlap, kinetic, potential, dipole, and quadrupole integrals
         stored in file 35.

  ==> Integral Setup <==

  ==> DFJK: Density-Fitted J/K Matrices <==

    J tasked:                  Yes
    K tasked:                  Yes
    wK tasked:                  No
    OpenMP threads:              1
    Integrals threads:           1
    Memory (MB):              1430
    Algorithm:                Core
    Integral Cache:           NONE
    Schwarz Cutoff:          1E-12
    Fitting Condition:       1E-12

   => Auxiliary Basis Set <=

  Basis Set: 
    Number of shells: 270
    Number of basis function: 909
    Number of Cartesian functions: 909
    Spherical Harmonics?: false
    Max angular momentum: 3

  Minimum eigenvalue in the overlap matrix is 1.5154988728E-03.
  Using Symmetric Orthogonalization.
  SCF Guess: Core (One-Electron) Hamiltonian.

  ==> Iterations <==

                           Total Energy        Delta E     RMS |[F,P]|

   @DF-RHF iter   1: -1056.12866856247274   -1.05613e+03   6.81797e-02 
   @DF-RHF iter   2:  -832.61559046451453    2.23513e+02   8.29622e-02 DIIS
   @DF-RHF iter   3: -1002.66747796129357   -1.70052e+02   6.31500e-02 DIIS
   @DF-RHF iter   4: -1078.47818514186201   -7.58107e+01   5.40359e-02 DIIS
   @DF-RHF iter   5: -1140.47135463577388   -6.19932e+01   1.90621e-02 DIIS
   @DF-RHF iter   6: -1145.52612413356428   -5.05477e+00   9.47664e-03 DIIS
   @DF-RHF iter   7: -1146.27426927886609   -7.48145e-01   1.78342e-03 DIIS
   @DF-RHF iter   8: -1146.30232436986626   -2.80551e-02   5.19592e-04 DIIS
   @DF-RHF iter   9: -1146.30510530877768   -2.78094e-03   2.39654e-04 DIIS
   @DF-RHF iter  10: -1146.30565700654188   -5.51698e-04   8.58500e-05 DIIS
   @DF-RHF iter  11: -1146.30575186103852   -9.48545e-05   3.45742e-05 DIIS
   @DF-RHF iter  12: -1146.30576684277071   -1.49817e-05   1.39231e-05 DIIS
   @DF-RHF iter  13: -1146.30576951761964   -2.67485e-06   3.59486e-06 DIIS
   @DF-RHF iter  14: -1146.30576973465713   -2.17037e-07   1.03051e-06 DIIS
   @DF-RHF iter  15: -1146.30576975677081   -2.21137e-08   2.92051e-07 DIIS

  ==> Post-Iterations <==

    Orbital Energies (a.u.)
    -----------------------

    Doubly Occupied:                                                      

       1A   -104.849270     2A    -26.358303     3A    -26.354489  
       4A    -26.351249     5A    -26.348294     6A    -26.340101  
       7A    -20.647400     8A    -11.522311     9A    -11.488827  
      10A    -11.399489    11A    -10.583501    12A     -8.052892  
      13A     -8.049309    14A     -8.049191    15A     -1.758166  
      16A     -1.717020    17A     -1.656737    18A     -1.650963  
      19A     -1.636585    20A     -1.485220    21A     -1.181298  
      22A     -1.047898    23A     -0.988904    24A     -0.915017  
      25A     -0.855111    26A     -0.852883    27A     -0.840830  
      28A     -0.831365    29A     -0.810814    30A     -0.789025  
      31A     -0.729790    32A     -0.720958    33A     -0.704834  
      34A     -0.697410    35A     -0.671504    36A     -0.670308  
      37A     -0.655415    38A     -0.650052    39A     -0.646013  
      40A     -0.637158    41A     -0.593657    42A     -0.573089  
      43A     -0.526907    44A     -0.481737    45A     -0.470159  

    Virtual:                                                              

      46A      0.168416    47A      0.245293    48A      0.261557  
      49A      0.286332    50A      0.347478    51A      0.372899  
      52A      0.396549    53A      0.421678    54A      0.445290  
      55A      0.460172    56A      0.490482    57A      0.550830  
      58A      0.623736    59A      0.627821    60A      0.632852  
      61A      0.679745    62A      0.705950    63A      0.708528  
      64A      0.733745    65A      0.740206    66A      0.767654  
      67A      0.800623    68A      0.821053    69A      0.920740  
      70A      0.988820    71A      1.021342    72A      1.060966  
      73A      1.089108    74A      1.109315    75A      1.144726  
      76A      1.173180    77A      1.193059    78A      1.233784  
      79A      1.244362    80A      1.290495    81A      1.332769  
      82A      1.337385    83A      1.369686    84A      1.391865  
      85A      1.408204    86A      1.436911    87A      1.491382  
      88A      1.509031    89A      1.538896    90A      1.563698  
      91A      1.596037    92A      1.618627    93A      1.631337  
      94A      1.649885    95A      1.650050    96A      1.662974  
      97A      1.675710    98A      1.695923    99A      1.698654  
     100A      1.753354   101A      1.839891   102A      1.868377  
     103A      1.872944   104A      1.936095   105A      1.965349  
     106A      1.982181   107A      2.008294   108A      2.044267  
     109A      2.077692   110A      2.097133   111A      2.107979  
     112A      2.117899   113A      2.135553   114A      2.148287  
     115A      2.226577   116A      2.261648   117A      2.269063  
     118A      2.296247   119A      2.314120   120A      2.333054  
     121A      2.342016   122A      2.370561   123A      2.398250  
     124A      2.402595   125A      2.426168   126A      2.441226  
     127A      2.485686   128A      2.515018   129A      2.553870  
     130A      2.599734   131A      2.665301   132A      2.720744  
     133A      2.777787   134A      2.816212   135A      2.843064  
     136A      2.887102   137A      3.004829   138A      3.040692  
     139A      3.135855   140A      3.170258   141A      3.197475  
     142A      3.283694   143A      3.327321   144A      3.407650  
     145A      3.420947   146A      3.436886   147A      3.461540  
     148A      3.491286   149A      4.351863   150A      4.534380  
     151A      4.615966   152A      4.699106   153A      4.731183  
     154A      4.910673   155A      5.035922   156A      5.270534  
     157A      5.786024   158A      6.038659  

    Final Occupation by Irrep:
              A 
    DOCC [    45 ]

  Energy converged.

  @DF-RHF Final Energy: -1146.30576975677081

   => Energetics <=

    Nuclear Repulsion Energy =            747.2660600593756044
    One-Electron Energy =               -3077.4608211828262938
    Two-Electron Energy =                1183.8889913666798748
    DFT Exchange-Correlation Energy =       0.0000000000000000
    Empirical Dispersion Energy =           0.0000000000000000
    PCM Polarization Energy =               0.0000000000000000
    EFP Energy =                            0.0000000000000000
    Total Energy =                      -1146.3057697567710420

    Alert: EFP and PCM quantities not currently incorporated into SCF psivars.

Properties will be evaluated at   0.000000,   0.000000,   0.000000 Bohr
  ==> Properties <==


Properties computed using the SCF density matrix

  Nuclear Dipole Moment: (a.u.)
     X:    -2.9673      Y:     1.9953      Z:     1.8767

  Electronic Dipole Moment: (a.u.)
     X:     2.2858      Y:    -1.8650      Z:    -1.7375

  Dipole Moment: (a.u.)
     X:    -0.6814      Y:     0.1303      Z:     0.1392     Total:     0.7076

  Dipole Moment: (Debye)
     X:    -1.7320      Y:     0.3312      Z:     0.3539     Total:     1.7986


  Saving occupied orbitals to File 180.

*** tstop() called on cx1-3-4-4.cx1.hpc.ic.ac.uk at Tue Jul  5 17:07:18 2016
Module time:
	user time   =      18.55 seconds =       0.31 minutes
	system time =       0.21 seconds =       0.00 minutes
	total time  =         19 seconds =       0.32 minutes
Total time:
	user time   =      18.55 seconds =       0.31 minutes
	system time =       0.21 seconds =       0.00 minutes
	total time  =         19 seconds =       0.32 minutes


Properties will be evaluated at   0.000000,   0.000000,   0.000000 Bohr

Properties computed using the  density matrix

  Nuclear Dipole Moment: (a.u.)
     X:    -2.9673      Y:     1.9953      Z:     1.8767

  Electronic Dipole Moment: (a.u.)
     X:     2.2858      Y:    -1.8650      Z:    -1.7375

  Dipole Moment: (a.u.)
     X:    -0.6814      Y:     0.1303      Z:     0.1392     Total:     0.7076

  Dipole Moment: (Debye)
     X:    -1.7320      Y:     0.3312      Z:     0.3539     Total:     1.7986

  Quadrupole Moment: (Debye Ang)
    XX:   -59.7338     YY:   -62.2466     ZZ:   -59.2682
    XY:     1.1488     XZ:    -3.5827     YZ:    -1.9712

  Traceless Quadrupole Moment: (Debye Ang)
    XX:     0.6824     YY:    -1.8304     ZZ:     1.1480
    XY:     1.1488     XZ:    -3.5827     YZ:    -1.9712

  Mulliken Charges: (a.u.)
   Center  Symbol    Alpha    Beta     Spin     Total
       1     H     0.40110  0.40110  0.00000  0.19780
       2     C     2.56338  2.56338  0.00000  0.87324
       3     O     4.29936  4.29936  0.00000 -0.59873
       4     F     4.68505  4.68505  0.00000 -0.37009
       5     F     4.68682  4.68682  0.00000 -0.37365
       6     C     3.05754  3.05754  0.00000 -0.11509
       7     C     2.43313  2.43313  0.00000  1.13375
       8    CL     8.48908  8.48908  0.00000  0.02184
       9     H     0.36676  0.36676  0.00000  0.26648
      10     F     4.67172  4.67172  0.00000 -0.34344
      11     F     4.67717  4.67717  0.00000 -0.35435
      12     F     4.66888  4.66888  0.00000 -0.33776

   Total alpha = 45.00000, Total beta = 45.00000, Total charge = -0.00000


*** PSI4 exiting successfully. Buy a developer a beer!
