    -----------------------------------------------------------------------
          Psi4: An Open-Source Ab Initio Electronic Structure Package
                              Psi4 (no tag) Driver

                          Git: Rev {detached?}  

    J. M. Turney, A. C. Simmonett, R. M. Parrish, E. G. Hohenstein,
    F. A. Evangelista, J. T. Fermann, B. J. Mintz, L. A. Burns, J. J. Wilke,
    M. L. Abrams, N. J. Russ, M. L. Leininger, C. L. Janssen, E. T. Seidl,
    W. D. Allen, H. F. Schaefer, R. A. King, E. F. Valeev, C. D. Sherrill,
    and T. D. Crawford, WIREs Comput. Mol. Sci. 2, 556-565 (2012)
    (doi: 10.1002/wcms.93)

                         Additional Contributions by
    A. E. DePrince, M. Saitow, U. Bozkaya, A. Yu. Sokolov
    -----------------------------------------------------------------------


    Psi4 started on: Tue Jul  5 16:39:54 2016

    Process ID:   3234
    PSI4DATADIR: /export131/home/mjharvey/miniconda3/share
    Memory level set to 256.000 MB

  ==> Input File <==

--------------------------------------------------------------------------
set {
	reference rhf
	basis 6-31G*
}


set_num_threads( 1 )
memory 2 gb

molecule MOL {
0 1

H	 2.423000	 -2.239000	 0.000000
O	 2.742000	 -1.347000	 0.000000
C	 1.723000	 -0.464000	 -0.000000
C	 2.050000	 0.888000	 -0.000000
C	 0.399000	 -0.857000	 0.000000
H	 3.087000	 1.168000	 -0.000000
C	 1.052000	 1.840000	 0.000000
H	 0.119000	 -1.892000	 0.000000
C	 -0.578000	 0.125000	 -0.000000
H	 1.313000	 2.882000	 -0.000000
C	 -0.287000	 1.471000	 0.000000
N	 -1.977000	 -0.295000	 -0.000000
H	 -1.072000	 2.198000	 0.000000
O	 -2.204000	 -1.468000	 -0.000000
O	 -2.812000	 0.556000	 0.000000

	symmetry c1
}
ee = optimize('scf')
oeprop('DIPOLE', 'QUADRUPOLE', 'MULLIKEN_CHARGES')
f=open( 'psi4out.xyz', 'w' )
f.write( "15  " )
f.write( str(ee) + "\n" )
f.write( MOL.save_string_xyz() )
f.close()
--------------------------------------------------------------------------

  Memory set to   2.000 GiB by Python script.
gradient() will perform analytic gradient computation.

*** tstart() called on cx1-1-4-3.cx1.hpc.ic.ac.uk
*** at Tue Jul  5 16:39:54 2016


         ---------------------------------------------------------
                                   SCF
            by Justin Turney, Rob Parrish, and Andy Simmonett
                              RHF Reference
                        1 Threads,   2000 MiB Core
         ---------------------------------------------------------

  ==> Geometry <==

    Molecular point group: c1
    Full point group: Cs

    Geometry (in Angstrom), charge = 0, multiplicity = 1:

       Center              X                  Y                   Z               Mass       
    ------------   -----------------  -----------------  -----------------  -----------------
           H          2.464952876811    -2.223939226034     0.000000000000     1.007825032070
           O          2.783952876811    -1.331939226034     0.000000000000    15.994914619560
           C          1.764952876811    -0.448939226034     0.000000000000    12.000000000000
           C          2.091952876811     0.903060773966     0.000000000000    12.000000000000
           C          0.440952876811    -0.841939226034     0.000000000000    12.000000000000
           H          3.128952876811     1.183060773966     0.000000000000     1.007825032070
           C          1.093952876811     1.855060773966     0.000000000000    12.000000000000
           H          0.160952876811    -1.876939226034     0.000000000000     1.007825032070
           C         -0.536047123189     0.140060773966     0.000000000000    12.000000000000
           H          1.354952876811     2.897060773966     0.000000000000     1.007825032070
           C         -0.245047123189     1.486060773966     0.000000000000    12.000000000000
           N         -1.935047123189    -0.279939226034     0.000000000000    14.003074004780
           H         -1.030047123189     2.213060773966     0.000000000000     1.007825032070
           O         -2.162047123189    -1.452939226034     0.000000000000    15.994914619560
           O         -2.770047123189     0.571060773966     0.000000000000    15.994914619560

  Running in c1 symmetry.

  Rotational constants: A =      0.09338  B =      0.03347  C =      0.02464 [cm^-1]
  Rotational constants: A =   2799.31695  B =   1003.54271  C =    738.71622 [MHz]
  Nuclear repulsion =  503.506667050499914

  Charge       = 0
  Multiplicity = 1
  Electrons    = 72
  Nalpha       = 36
  Nbeta        = 36

  ==> Algorithm <==

  SCF Algorithm Type is DF.
  DIIS enabled.
  MOM disabled.
  Fractional occupation disabled.
  Guess Type is CORE.
  Energy threshold   = 1.00e-08
  Density threshold  = 1.00e-08
  Integral threshold = 0.00e+00

  ==> Primary Basis <==

  Basis Set: 6-31G*
    Number of shells: 70
    Number of basis function: 160
    Number of Cartesian functions: 160
    Spherical Harmonics?: false
    Max angular momentum: 2

  ==> Pre-Iterations <==

   -------------------------------------------------------
    Irrep   Nso     Nmo     Nalpha   Nbeta   Ndocc  Nsocc
   -------------------------------------------------------
     A        160     160       0       0       0       0
   -------------------------------------------------------
    Total     160     160      36      36      36       0
   -------------------------------------------------------

 OEINTS: Overlap, kinetic, potential, dipole, and quadrupole integrals
         stored in file 35.

  ==> Integral Setup <==

  ==> DFJK: Density-Fitted J/K Matrices <==

    J tasked:                  Yes
    K tasked:                  Yes
    wK tasked:                  No
    OpenMP threads:              1
    Integrals threads:           1
    Memory (MB):              1430
    Algorithm:                Core
    Integral Cache:           NONE
    Schwarz Cutoff:          1E-12
    Fitting Condition:       1E-12

   => Auxiliary Basis Set <=

  Basis Set: 
    Number of shells: 285
    Number of basis function: 935
    Number of Cartesian functions: 935
    Spherical Harmonics?: false
    Max angular momentum: 3

  Minimum eigenvalue in the overlap matrix is 4.1750938478E-04.
  Using Symmetric Orthogonalization.
  SCF Guess: Core (One-Electron) Hamiltonian.

  ==> Iterations <==

                           Total Energy        Delta E     RMS |[F,P]|

   @DF-RHF iter   1:  -421.64158837948207   -4.21642e+02   6.02727e-02 
   @DF-RHF iter   2:  -308.81261540399976    1.12829e+02   5.75670e-02 DIIS
   @DF-RHF iter   3:  -328.40621261610715   -1.95936e+01   7.12461e-02 DIIS
   @DF-RHF iter   4:  -492.53756986605936   -1.64131e+02   2.46084e-02 DIIS
   @DF-RHF iter   5:  -484.32538707953108    8.21218e+00   3.68998e-02 DIIS
   @DF-RHF iter   6:  -507.57943008350719   -2.32540e+01   1.00441e-02 DIIS
   @DF-RHF iter   7:  -508.69262187159779   -1.11319e+00   4.49710e-03 DIIS
   @DF-RHF iter   8:  -508.92273919579748   -2.30117e-01   2.29809e-03 DIIS
   @DF-RHF iter   9:  -509.02079040300066   -9.80512e-02   6.22115e-04 DIIS
   @DF-RHF iter  10:  -509.02616441901057   -5.37402e-03   2.37126e-04 DIIS
   @DF-RHF iter  11:  -509.02735825397508   -1.19383e-03   9.84593e-05 DIIS
   @DF-RHF iter  12:  -509.02762299715710   -2.64743e-04   6.22381e-05 DIIS
   @DF-RHF iter  13:  -509.02773450829011   -1.11511e-04   2.36840e-05 DIIS
   @DF-RHF iter  14:  -509.02776112489335   -2.66166e-05   8.14184e-06 DIIS
   @DF-RHF iter  15:  -509.02776567386138   -4.54897e-06   3.21813e-06 DIIS
   @DF-RHF iter  16:  -509.02776643316554   -7.59304e-07   1.13839e-06 DIIS
   @DF-RHF iter  17:  -509.02776650340661   -7.02411e-08   4.04126e-07 DIIS
   @DF-RHF iter  18:  -509.02776650863291   -5.22630e-09   1.40655e-07 DIIS
   @DF-RHF iter  19:  -509.02776650938210   -7.49196e-10   5.51475e-08 DIIS
   @DF-RHF iter  20:  -509.02776650951353   -1.31422e-10   2.71771e-08 DIIS
   @DF-RHF iter  21:  -509.02776650954695   -3.34239e-11   1.31636e-08 DIIS
   @DF-RHF iter  22:  -509.02776650955627   -9.32232e-12   6.16905e-09 DIIS

  ==> Post-Iterations <==

    Orbital Energies (a.u.)
    -----------------------

    Doubly Occupied:                                                      

       1A    -20.615716     2A    -20.605286     3A    -20.604321  
       4A    -15.859488     5A    -11.330555     6A    -11.311250  
       7A    -11.267304     8A    -11.266897     9A    -11.263800  
      10A    -11.260842    11A     -1.638266    12A     -1.436366  
      13A     -1.421352    14A     -1.200698    15A     -1.095289  
      16A     -1.046545    17A     -0.966379    18A     -0.878734  
      19A     -0.828605    20A     -0.791133    21A     -0.752031  
      22A     -0.737199    23A     -0.724005    24A     -0.707865  
      25A     -0.673229    26A     -0.635239    27A     -0.615834  
      28A     -0.594657    29A     -0.558744    30A     -0.545209  
      31A     -0.515312    32A     -0.492359    33A     -0.490044  
      34A     -0.454889    35A     -0.377598    36A     -0.342995  

    Virtual:                                                              

      37A      0.056933    38A      0.127531    39A      0.182082  
      40A      0.204199    41A      0.228703    42A      0.294595  
      43A      0.296911    44A      0.323865    45A      0.359747  
      46A      0.382036    47A      0.425875    48A      0.446174  
      49A      0.451651    50A      0.518037    51A      0.534887  
      52A      0.548146    53A      0.604249    54A      0.676760  
      55A      0.696701    56A      0.709748    57A      0.713660  
      58A      0.750612    59A      0.786386    60A      0.797476  
      61A      0.799290    62A      0.812927    63A      0.831428  
      64A      0.868764    65A      0.877639    66A      0.884001  
      67A      0.886843    68A      0.947073    69A      0.978299  
      70A      0.979043    71A      0.996285    72A      1.026952  
      73A      1.044172    74A      1.074150    75A      1.090034  
      76A      1.092199    77A      1.135670    78A      1.157560  
      79A      1.169459    80A      1.177076    81A      1.215519  
      82A      1.224480    83A      1.235781    84A      1.249010  
      85A      1.282605    86A      1.283256    87A      1.293668  
      88A      1.335738    89A      1.391610    90A      1.401695  
      91A      1.458432    92A      1.460557    93A      1.496896  
      94A      1.524462    95A      1.574212    96A      1.604628  
      97A      1.604823    98A      1.649521    99A      1.662338  
     100A      1.693816   101A      1.713337   102A      1.728839  
     103A      1.735864   104A      1.762154   105A      1.943232  
     106A      1.981508   107A      2.004296   108A      2.015567  
     109A      2.047418   110A      2.070815   111A      2.075875  
     112A      2.105427   113A      2.107445   114A      2.164379  
     115A      2.216465   116A      2.231755   117A      2.233692  
     118A      2.264171   119A      2.267922   120A      2.289336  
     121A      2.370088   122A      2.385131   123A      2.438093  
     124A      2.456430   125A      2.462767   126A      2.481321  
     127A      2.550004   128A      2.589051   129A      2.602705  
     130A      2.609394   131A      2.735892   132A      2.758456  
     133A      2.803660   134A      2.850887   135A      2.892851  
     136A      2.936012   137A      2.951665   138A      2.967031  
     139A      3.008683   140A      3.092683   141A      3.104593  
     142A      3.127639   143A      3.160656   144A      3.258624  
     145A      3.282122   146A      3.301065   147A      3.407200  
     148A      3.501398   149A      3.609139   150A      3.838404  
     151A      4.173370   152A      4.289544   153A      4.374446  
     154A      4.459917   155A      4.503837   156A      4.533387  
     157A      4.612538   158A      4.758588   159A      4.871014  
     160A      5.160727  

    Final Occupation by Irrep:
              A 
    DOCC [    36 ]

  Energy converged.

  @DF-RHF Final Energy:  -509.02776650955627

   => Energetics <=

    Nuclear Repulsion Energy =            503.5066670504999138
    One-Electron Energy =               -1693.2568051704047321
    Two-Electron Energy =                 680.7223716103485458
    DFT Exchange-Correlation Energy =       0.0000000000000000
    Empirical Dispersion Energy =           0.0000000000000000
    PCM Polarization Energy =               0.0000000000000000
    EFP Energy =                            0.0000000000000000
    Total Energy =                       -509.0277665095563862

    Alert: EFP and PCM quantities not currently incorporated into SCF psivars.

Properties will be evaluated at   0.000000,   0.000000,   0.000000 Bohr
  ==> Properties <==


Properties computed using the SCF density matrix

  Nuclear Dipole Moment: (a.u.)
     X:     5.6949      Y:     2.0454      Z:     0.0000

  Electronic Dipole Moment: (a.u.)
     X:    -4.2378      Y:    -1.8316      Z:     0.0000

  Dipole Moment: (a.u.)
     X:     1.4571      Y:     0.2138      Z:     0.0000     Total:     1.4727

  Dipole Moment: (Debye)
     X:     3.7035      Y:     0.5434      Z:     0.0000     Total:     3.7432


  Saving occupied orbitals to File 180.

*** tstop() called on cx1-1-4-3.cx1.hpc.ic.ac.uk at Tue Jul  5 16:40:20 2016
Module time:
	user time   =      25.20 seconds =       0.42 minutes
	system time =       0.30 seconds =       0.01 minutes
	total time  =         26 seconds =       0.43 minutes
Total time:
	user time   =      25.20 seconds =       0.42 minutes
	system time =       0.30 seconds =       0.01 minutes
	total time  =         26 seconds =       0.43 minutes

*** tstart() called on cx1-1-4-3.cx1.hpc.ic.ac.uk
*** at Tue Jul  5 16:40:20 2016


         ------------------------------------------------------------
                                   SCF GRAD                          
                          Rob Parrish, Justin Turney,                
                       Andy Simmonett, and Alex Sokolov              
         ------------------------------------------------------------

  ==> Geometry <==

    Molecular point group: c1
    Full point group: Cs

    Geometry (in Angstrom), charge = 0, multiplicity = 1:

       Center              X                  Y                   Z               Mass       
    ------------   -----------------  -----------------  -----------------  -----------------
           H          2.464952876811    -2.223939226034     0.000000000000     1.007825032070
           O          2.783952876811    -1.331939226034     0.000000000000    15.994914619560
           C          1.764952876811    -0.448939226034     0.000000000000    12.000000000000
           C          2.091952876811     0.903060773966     0.000000000000    12.000000000000
           C          0.440952876811    -0.841939226034     0.000000000000    12.000000000000
           H          3.128952876811     1.183060773966     0.000000000000     1.007825032070
           C          1.093952876811     1.855060773966     0.000000000000    12.000000000000
           H          0.160952876811    -1.876939226034     0.000000000000     1.007825032070
           C         -0.536047123189     0.140060773966     0.000000000000    12.000000000000
           H          1.354952876811     2.897060773966     0.000000000000     1.007825032070
           C         -0.245047123189     1.486060773966     0.000000000000    12.000000000000
           N         -1.935047123189    -0.279939226034     0.000000000000    14.003074004780
           H         -1.030047123189     2.213060773966     0.000000000000     1.007825032070
           O         -2.162047123189    -1.452939226034     0.000000000000    15.994914619560
           O         -2.770047123189     0.571060773966     0.000000000000    15.994914619560

  Nuclear repulsion =  503.506667050499914

  ==> Basis Set <==

  Basis Set: 6-31G*
    Number of shells: 70
    Number of basis function: 160
    Number of Cartesian functions: 160
    Spherical Harmonics?: false
    Max angular momentum: 2

  ==> DFJKGrad: Density-Fitted SCF Gradients <==

    Gradient:                    1
    J tasked:                  Yes
    K tasked:                  Yes
    wK tasked:                  No
    OpenMP threads:              1
    Integrals threads:           1
    Memory (MB):              1430
    Schwarz Cutoff:          0E+00
    Fitting Condition:       1E-12

   => Auxiliary Basis Set <=

  Basis Set: 
    Number of shells: 285
    Number of basis function: 935
    Number of Cartesian functions: 935
    Spherical Harmonics?: false
    Max angular momentum: 3


  -Total Gradient:
     Atom            X                  Y                   Z
    ------   -----------------  -----------------  -----------------
       1        0.000039493730     0.000133270775    -0.000000000000
       2        0.000114360306    -0.000288466293    -0.000000000000
       3       -0.000428892119     0.000532405299     0.000000000000
       4       -0.000388045708    -0.000275919220     0.000000000000
       5        0.000058167403     0.000195395996    -0.000000000000
       6        0.000253830507     0.000121866784    -0.000000000000
       7        0.000554339997    -0.000150779389     0.000000000000
       8        0.000011019051    -0.000024921231     0.000000000000
       9        0.000050336247    -0.000668719746     0.000000000000
      10       -0.000025290790     0.000013160475    -0.000000000000
      11       -0.000606320474     0.000312797736     0.000000000000
      12        0.000547014226     0.001536431705    -0.000000000000
      13        0.000179996612    -0.000088175716    -0.000000000000
      14       -0.000492472207    -0.000672199562    -0.000000000000
      15        0.000132463217    -0.000676147604     0.000000000000


*** tstop() called on cx1-1-4-3.cx1.hpc.ic.ac.uk at Tue Jul  5 16:40:42 2016
Module time:
	user time   =      21.49 seconds =       0.36 minutes
	system time =       0.15 seconds =       0.00 minutes
	total time  =         22 seconds =       0.37 minutes
Total time:
	user time   =      46.70 seconds =       0.78 minutes
	system time =       0.45 seconds =       0.01 minutes
	total time  =         48 seconds =       0.80 minutes
CURRENT ENERGY: -509.0277665096

			-----------------------------------------
			 OPTKING 2.0: for geometry optimizations 
			  - R.A. King,  Bethel University        
			-----------------------------------------

	Internal coordinates to be generated automatically.
	Detected frag with atoms:  1 2 3 4 5 6 7 8 9 10 11 12 13 14 15
	---Fragment 1 Bond Connectivity---
	 1 : 2
	 2 : 1 3
	 3 : 2 4 5
	 4 : 3 6 7
	 5 : 3 8 9
	 6 : 4
	 7 : 4 10 11
	 8 : 5
	 9 : 5 11 12
	 10 : 7
	 11 : 7 9 13
	 12 : 9 14 15
	 13 : 11
	 14 : 12
	 15 : 12

	---Fragment 1 Geometry and Gradient---
	 H           4.6580858676       -4.2026360734        0.0000000000
	 O           5.2609085040       -2.5170003629        0.0000000000
	 C           3.3352775746       -0.8483721875        0.0000000000
	 C           3.9532180201        1.7065375441        0.0000000000
	 C           0.8332801747       -1.5910345577        0.0000000000
	 H           5.9128640199        2.2356608614        0.0000000000
	 C           2.0672713395        3.5055568227        0.0000000000
	 H           0.3041568575       -3.5469011053        0.0000000000
	 C          -1.0129822571        0.2646765048        0.0000000000
	 H           2.5604898601        5.4746514531        0.0000000000
	 C          -0.4630719525        2.8082478796        0.0000000000
	 N          -3.6567091171       -0.5290084711        0.0000000000
	 H          -1.9465069668        4.1820787782        0.0000000000
	 O          -4.0856769492       -2.7456572249        0.0000000000
	 O          -5.2346304380        1.0791484680        0.0000000000
	             0.0000394937        0.0001332708       -0.0000000000
	             0.0001143603       -0.0002884663       -0.0000000000
	            -0.0004288921        0.0005324053        0.0000000000
	            -0.0003880457       -0.0002759192        0.0000000000
	             0.0000581674        0.0001953960       -0.0000000000
	             0.0002538305        0.0001218668       -0.0000000000
	             0.0005543400       -0.0001507794        0.0000000000
	             0.0000110191       -0.0000249212        0.0000000000
	             0.0000503362       -0.0006687197        0.0000000000
	            -0.0000252908        0.0000131605       -0.0000000000
	            -0.0006063205        0.0003127977        0.0000000000
	             0.0005470142        0.0015364317       -0.0000000000
	             0.0001799966       -0.0000881757       -0.0000000000
	            -0.0004924722       -0.0006721996       -0.0000000000
	             0.0001324632       -0.0006761476        0.0000000000

	Previous optimization step data not found.  Starting new optimization.

	---Fragment 1 Intrafragment Coordinates---
	 - Coordinate -           - BOHR/RAD -       - ANG/DEG -
	 R(1,2)           =         1.790185	       0.947325
	 R(2,3)           =         2.548014	       1.348351
	 R(3,4)           =         2.628576	       1.390983
	 R(3,5)           =         2.609892	       1.381096
	 R(4,6)           =         2.029824	       1.074136
	 R(4,7)           =         2.606389	       1.379242
	 R(5,8)           =         2.026175	       1.072206
	 R(5,9)           =         2.617699	       1.385227
	 R(7,10)          =         2.029926	       1.074190
	 R(7,11)          =         2.624667	       1.388914
	 R(9,11)          =         2.602337	       1.377097
	 R(9,12)          =         2.760295	       1.460685
	 R(11,13)         =         2.021878	       1.069932
	 R(12,14)         =         2.257774	       1.194763
	 R(12,15)         =         2.252999	       1.192236
	 B(1,2,3)         =         1.941362	     111.231867
	 B(2,3,4)         =         2.047506	     117.313434
	 B(2,3,5)         =         2.139033	     122.557546
	 B(3,4,6)         =         2.071824	     118.706758
	 B(3,4,7)         =         2.095302	     120.051990
	 B(3,5,8)         =         2.123547	     121.670302
	 B(3,5,9)         =         2.065098	     118.321411
	 B(4,3,5)         =         2.096647	     120.129020
	 B(4,7,10)        =         2.087179	     119.586541
	 B(4,7,11)        =         2.110876	     120.944265
	 B(5,9,11)        =         2.145828	     122.946867
	 B(5,9,12)        =         2.061989	     118.143247
	 B(6,4,7)         =         2.116059	     121.241252
	 B(7,11,9)        =         2.052620	     117.606447
	 B(7,11,13)       =         2.125631	     121.789700
	 B(8,5,9)         =         2.094540	     120.008287
	 B(9,11,13)       =         2.104934	     120.603853
	 B(9,12,14)       =         2.053608	     117.663059
	 B(9,12,15)       =         2.055051	     117.745769
	 B(10,7,11)       =         2.085131	     119.469194
	 B(11,9,12)       =         2.075369	     118.909885
	 B(14,12,15)      =         2.174526	     124.591172
	 D(1,2,3,4)       =         3.141593	     180.000000
	 D(1,2,3,5)       =         0.000000	       0.000000
	 D(2,3,4,6)       =         0.000000	       0.000000
	 D(2,3,4,7)       =         3.141593	     180.000000
	 D(2,3,5,8)       =         0.000000	       0.000000
	 D(2,3,5,9)       =         3.141593	     180.000000
	 D(3,4,7,10)      =         3.141593	     180.000000
	 D(3,4,7,11)      =         0.000000	       0.000000
	 D(3,5,9,11)      =         0.000000	       0.000000
	 D(3,5,9,12)      =         3.141593	     180.000000
	 D(4,3,5,8)       =         3.141593	     180.000000
	 D(4,3,5,9)       =         0.000000	       0.000000
	 D(4,7,11,9)      =         0.000000	       0.000000
	 D(4,7,11,13)     =         3.141593	     180.000000
	 D(5,3,4,6)       =         3.141593	     180.000000
	 D(5,3,4,7)       =         0.000000	       0.000000
	 D(5,9,11,7)      =         0.000000	       0.000000
	 D(5,9,11,13)     =         3.141593	     180.000000
	 D(5,9,12,14)     =         0.000000	       0.000000
	 D(5,9,12,15)     =         3.141593	     180.000000
	 D(6,4,7,10)      =         0.000000	       0.000000
	 D(6,4,7,11)      =         3.141593	     180.000000
	 D(7,11,9,12)     =         3.141593	     180.000000
	 D(8,5,9,11)      =         3.141593	     180.000000
	 D(8,5,9,12)      =         0.000000	       0.000000
	 D(9,11,7,10)     =         3.141593	     180.000000
	 D(10,7,11,13)    =         0.000000	       0.000000
	 D(11,9,12,14)    =         3.141593	     180.000000
	 D(11,9,12,15)    =         0.000000	       0.000000
	 D(12,9,11,13)    =         0.000000	       0.000000

	Current energy   :      -509.0277665096

	Generating empirical Hessian (Schlegel '84) for each fragment.
	Taking RFO optimization step.
	Going to follow RFO solution 1.
	Using RFO vector 1.
	Norm of target step-size    0.00371
	Projected energy change by RFO approximation:        -0.0000046877

	Back-transformation to cartesian coordinates...
	Successfully converged to displaced geometry.

	--- Internal Coordinate Step in ANG or DEG, aJ/ANG or AJ/DEG ---
	 ---------------------------------------------------------------------------
	   Coordinate                Previous        Force       Change         New 
	   ----------                --------       ------       ------       ------
	    1 R(1,2)          =      0.947325     0.001143     0.000126     0.947451
	    2 R(2,3)          =      1.348351    -0.001795    -0.000208     1.348143
	    3 R(3,4)          =      1.390983     0.002409     0.000356     1.391339
	    4 R(3,5)          =      1.381096     0.001532     0.000228     1.381323
	    5 R(4,6)          =      1.074136    -0.002281    -0.000399     1.073737
	    6 R(4,7)          =      1.379242     0.002096     0.000274     1.379516
	    7 R(5,8)          =      1.072206    -0.000174    -0.000030     1.072175
	    8 R(5,9)          =      1.385227     0.002183     0.000290     1.385517
	    9 R(7,10)         =      1.074190    -0.000055    -0.000010     1.074181
	   10 R(7,11)         =      1.388914    -0.002689    -0.000391     1.388524
	   11 R(9,11)         =      1.377097    -0.001841    -0.000264     1.376833
	   12 R(9,12)         =      1.460685     0.001921     0.000335     1.461020
	   13 R(11,13)        =      1.069932     0.001582     0.000273     1.070205
	   14 R(12,14)        =      1.194763    -0.006208    -0.000371     1.194392
	   15 R(12,15)        =      1.192236     0.004741     0.000280     1.192516
	   16 B(1,2,3)        =    111.231867     0.000001     0.004930   111.236797
	   17 B(2,3,4)        =    117.313434     0.000005     0.010725   117.324158
	   18 B(2,3,5)        =    122.557546     0.000010     0.023535   122.581081
	   19 B(3,4,6)        =    118.706758    -0.000005    -0.024858   118.681900
	   20 B(3,4,7)        =    120.051990     0.000002     0.012294   120.064284
	   21 B(3,5,8)        =    121.670302     0.000001     0.002885   121.673187
	   22 B(3,5,9)        =    118.321411     0.000000     0.006669   118.328080
	   23 B(4,3,5)        =    120.129020    -0.000015    -0.034259   120.094761
	   24 B(4,7,10)       =    119.586541    -0.000002    -0.007103   119.579439
	   25 B(4,7,11)       =    120.944265     0.000000    -0.005951   120.938314
	   26 B(5,9,11)       =    122.946867     0.000002    -0.000766   122.946101
	   27 B(5,9,12)       =    118.143247    -0.000012    -0.033791   118.109457
	   28 B(6,4,7)        =    121.241252     0.000003     0.012564   121.253816
	   29 B(7,11,9)       =    117.606447     0.000010     0.022014   117.628461
	   30 B(7,11,13)      =    121.789700    -0.000001     0.009849   121.799548
	   31 B(8,5,9)        =    120.008287    -0.000001    -0.009554   119.998733
	   32 B(9,11,13)      =    120.603853    -0.000010    -0.031863   120.571991
	   33 B(9,12,14)      =    117.663059    -0.000019    -0.057500   117.605559
	   34 B(9,12,15)      =    117.745769    -0.000023    -0.069096   117.676673
	   35 B(10,7,11)      =    119.469194     0.000002     0.013054   119.482248
	   36 B(11,9,12)      =    118.909885     0.000010     0.034557   118.944442
	   37 B(14,12,15)     =    124.591172     0.000042     0.126596   124.717768
	   38 D(1,2,3,4)      =    180.000000    -0.000000     0.000000   180.000000
	   39 D(1,2,3,5)      =      0.000000     0.000000     0.000000     0.000000
	   40 D(2,3,4,6)      =      0.000000     0.000000     0.000000     0.000000
	   41 D(2,3,4,7)      =    180.000000     0.000000     0.000000   180.000000
	   42 D(2,3,5,8)      =      0.000000    -0.000000     0.000000     0.000000
	   43 D(2,3,5,9)      =    180.000000    -0.000000     0.000000   180.000000
	   44 D(3,4,7,10)     =    180.000000    -0.000000     0.000000   180.000000
	   45 D(3,4,7,11)     =      0.000000    -0.000000     0.000000     0.000000
	   46 D(3,5,9,11)     =      0.000000     0.000000     0.000000     0.000000
	   47 D(3,5,9,12)     =    180.000000     0.000000     0.000000   180.000000
	   48 D(4,3,5,8)      =    180.000000    -0.000000     0.000000   180.000000
	   49 D(4,3,5,9)      =      0.000000     0.000000     0.000000     0.000000
	   50 D(4,7,11,9)     =      0.000000     0.000000     0.000000     0.000000
	   51 D(4,7,11,13)    =    180.000000    -0.000000     0.000000   180.000000
	   52 D(5,3,4,6)      =    180.000000    -0.000000     0.000000   180.000000
	   53 D(5,3,4,7)      =      0.000000    -0.000000     0.000000     0.000000
	   54 D(5,9,11,7)     =      0.000000    -0.000000     0.000000     0.000000
	   55 D(5,9,11,13)    =    180.000000     0.000000     0.000000   180.000000
	   56 D(5,9,12,14)    =      0.000000     0.000000     0.000000     0.000000
	   57 D(5,9,12,15)    =    180.000000     0.000000     0.000000   180.000000
	   58 D(6,4,7,10)     =      0.000000     0.000000     0.000000     0.000000
	   59 D(6,4,7,11)     =    180.000000     0.000000     0.000000   180.000000
	   60 D(7,11,9,12)    =    180.000000    -0.000000     0.000000   180.000000
	   61 D(8,5,9,11)     =    180.000000     0.000000     0.000000   180.000000
	   62 D(8,5,9,12)     =      0.000000     0.000000     0.000000     0.000000
	   63 D(9,11,7,10)    =    180.000000     0.000000     0.000000   180.000000
	   64 D(10,7,11,13)   =      0.000000     0.000000     0.000000     0.000000
	   65 D(11,9,12,14)   =    180.000000     0.000000     0.000000   180.000000
	   66 D(11,9,12,15)   =      0.000000     0.000000     0.000000     0.000000
	   67 D(12,9,11,13)   =      0.000000     0.000000     0.000000     0.000000
	 ---------------------------------------------------------------------------

  ==> Convergence Check <==

  Measures of convergence in internal coordinates in au.
  Criteria marked as inactive (o), active & met (*), and active & unmet ( ).
  --------------------------------------------------------------------------------------------- ~
   Step     Total Energy     Delta E     MAX Force     RMS Force      MAX Disp      RMS Disp    ~
  --------------------------------------------------------------------------------------------- ~
    Convergence Criteria    1.00e-06 *    3.00e-04 *             o    1.20e-03 *             o  ~
  --------------------------------------------------------------------------------------------- ~
      1    -509.02776651   -5.09e+02      7.54e-04      1.79e-04 o    2.21e-03      4.53e-04 o  ~
  ---------------------------------------------------------------------------------------------

	Writing optimization data to binary file.
	Structure for next step:
	Cartesian Geometry (in Angstrom)
	    H     2.4651844004  -2.2242955812  -0.0000000000
	    O     2.7840816451  -1.3321249649  -0.0000000000
	    C     1.7651712145  -0.4493394339  -0.0000000000
	    C     2.0918979978   0.9030928056  -0.0000000000
	    C     0.4408216285  -0.8419618862   0.0000000000
	    H     3.1285604152   1.1828126292  -0.0000000000
	    C     1.0936528852   1.8552325676   0.0000000000
	    H     0.1604317144  -1.8768249861  -0.0000000000
	    C    -0.5361692715   0.1404565094   0.0000000000
	    H     1.3547283544   2.8972039053   0.0000000000
	    C    -0.2449141726   1.4861312308   0.0000000000
	    N    -1.9353334290  -0.2801604127   0.0000000000
	    H    -1.0303507429   2.2130613530   0.0000000000
	    O    -2.1606495828  -1.4531074039   0.0000000000
	    O    -2.7698193999   0.5717354906  -0.0000000000
			--------------------------
			 OPTKING Finished Execution 
			--------------------------

    Structure for next step:
    Molecular point group: c1
    Full point group: Cs

    Geometry (in Angstrom), charge = 0, multiplicity = 1:

    H            2.465042203893    -2.224328860993    -0.000000000001
    O            2.783939424322    -1.332158312823    -0.000000000002
    C            1.765029071529    -0.449372849244    -0.000000000001
    C            2.091755829821     0.903059286920    -0.000000000001
    C            0.440679586577    -0.841995271622     0.000000000001
    H            3.128418168052     1.182779089206    -0.000000000001
    C            1.093510793446     1.855198976256     0.000000000002
    H            0.160289693947    -1.876858292418    -0.000000000000
    C           -0.536311238768     0.140423049030     0.000000000003
    H            1.354586242747     2.897170234425     0.000000000004
    C           -0.245056162112     1.486097667601     0.000000000003
    N           -1.935475289431    -0.280193841008     0.000000000006
    H           -1.030492672428     2.213027734374     0.000000000006
    O           -2.160791426056    -1.453140742573     0.000000000014
    O           -2.769961196578     0.571701997268    -0.000000000023

gradient() will perform analytic gradient computation.

*** tstart() called on cx1-1-4-3.cx1.hpc.ic.ac.uk
*** at Tue Jul  5 16:40:43 2016


         ---------------------------------------------------------
                                   SCF
            by Justin Turney, Rob Parrish, and Andy Simmonett
                              RHF Reference
                        1 Threads,   2000 MiB Core
         ---------------------------------------------------------

  ==> Geometry <==

    Molecular point group: c1
    Full point group: Cs

    Geometry (in Angstrom), charge = 0, multiplicity = 1:

       Center              X                  Y                   Z               Mass       
    ------------   -----------------  -----------------  -----------------  -----------------
           H          2.465042203893    -2.224328860993    -0.000000000001     1.007825032070
           O          2.783939424322    -1.332158312823    -0.000000000002    15.994914619560
           C          1.765029071529    -0.449372849244    -0.000000000001    12.000000000000
           C          2.091755829821     0.903059286920    -0.000000000001    12.000000000000
           C          0.440679586577    -0.841995271622     0.000000000001    12.000000000000
           H          3.128418168052     1.182779089206    -0.000000000001     1.007825032070
           C          1.093510793446     1.855198976256     0.000000000002    12.000000000000
           H          0.160289693947    -1.876858292418    -0.000000000000     1.007825032070
           C         -0.536311238768     0.140423049030     0.000000000003    12.000000000000
           H          1.354586242747     2.897170234425     0.000000000004     1.007825032070
           C         -0.245056162112     1.486097667601     0.000000000003    12.000000000000
           N         -1.935475289431    -0.280193841008     0.000000000006    14.003074004780
           H         -1.030492672428     2.213027734374     0.000000000006     1.007825032070
           O         -2.160791426056    -1.453140742573     0.000000000014    15.994914619560
           O         -2.769961196578     0.571701997268    -0.000000000023    15.994914619560

  Running in c1 symmetry.

  Rotational constants: A =      0.09335  B =      0.03348  C =      0.02464 [cm^-1]
  Rotational constants: A =   2798.56687  B =   1003.72927  C =    738.76504 [MHz]
  Nuclear repulsion =  503.502094159451531

  Charge       = 0
  Multiplicity = 1
  Electrons    = 72
  Nalpha       = 36
  Nbeta        = 36

  ==> Algorithm <==

  SCF Algorithm Type is DF.
  DIIS enabled.
  MOM disabled.
  Fractional occupation disabled.
  Guess Type is READ.
  Energy threshold   = 1.00e-08
  Density threshold  = 1.00e-08
  Integral threshold = 0.00e+00

  ==> Primary Basis <==

  Basis Set: 6-31G*
    Number of shells: 70
    Number of basis function: 160
    Number of Cartesian functions: 160
    Spherical Harmonics?: false
    Max angular momentum: 2

  ==> Pre-Iterations <==

   -------------------------------------------------------
    Irrep   Nso     Nmo     Nalpha   Nbeta   Ndocc  Nsocc
   -------------------------------------------------------
     A        160     160       0       0       0       0
   -------------------------------------------------------
    Total     160     160      36      36      36       0
   -------------------------------------------------------

 OEINTS: Overlap, kinetic, potential, dipole, and quadrupole integrals
         stored in file 35.

  ==> Integral Setup <==

  ==> DFJK: Density-Fitted J/K Matrices <==

    J tasked:                  Yes
    K tasked:                  Yes
    wK tasked:                  No
    OpenMP threads:              1
    Integrals threads:           1
    Memory (MB):              1430
    Algorithm:                Core
    Integral Cache:           NONE
    Schwarz Cutoff:          1E-12
    Fitting Condition:       1E-12

   => Auxiliary Basis Set <=

  Basis Set: 
    Number of shells: 285
    Number of basis function: 935
    Number of Cartesian functions: 935
    Spherical Harmonics?: false
    Max angular momentum: 3

  Minimum eigenvalue in the overlap matrix is 4.1752969108E-04.
  Using Symmetric Orthogonalization.
  SCF Guess: Reading in previously saved MOs, projecting if necessary.

  Using orbitals from previous SCF, no projection.
  Recomputing DOCC and SOCC from number of alpha and beta electrons from previous calculation.
              A 
    DOCC [    36 ]

  ==> Iterations <==

                           Total Energy        Delta E     RMS |[F,P]|

   @DF-RHF iter   0:  -509.02757941558355   -5.09028e+02   2.94306e-05 
   @DF-RHF iter   1:  -509.02776784386924   -1.88428e-04   5.90121e-06 
   @DF-RHF iter   2:  -509.02776824611976   -4.02251e-07   3.64819e-06 DIIS
   @DF-RHF iter   3:  -509.02776839378316   -1.47663e-07   1.06615e-06 DIIS
   @DF-RHF iter   4:  -509.02776841797424   -2.41911e-08   3.89374e-07 DIIS
   @DF-RHF iter   5:  -509.02776842112269   -3.14844e-09   1.47422e-07 DIIS
   @DF-RHF iter   6:  -509.02776842149717   -3.74484e-10   5.26563e-08 DIIS
   @DF-RHF iter   7:  -509.02776842159244   -9.52696e-11   3.35008e-08 DIIS
   @DF-RHF iter   8:  -509.02776842162291   -3.04681e-11   1.22036e-08 DIIS
   @DF-RHF iter   9:  -509.02776842163030   -7.38964e-12   6.03351e-09 DIIS

  ==> Post-Iterations <==

    Orbital Energies (a.u.)
    -----------------------

    Doubly Occupied:                                                      

       1A    -20.615753     2A    -20.605315     3A    -20.604612  
       4A    -15.859577     5A    -11.330552     6A    -11.311129  
       7A    -11.267244     8A    -11.266815     9A    -11.263664  
      10A    -11.260782    11A     -1.638292    12A     -1.436412  
      13A     -1.421704    14A     -1.200532    15A     -1.095052  
      16A     -1.046461    17A     -0.966233    18A     -0.878651  
      19A     -0.828652    20A     -0.791189    21A     -0.751996  
      22A     -0.737267    23A     -0.724099    24A     -0.707816  
      25A     -0.673211    26A     -0.635183    27A     -0.615825  
      28A     -0.594674    29A     -0.558617    30A     -0.545085  
      31A     -0.515258    32A     -0.492247    33A     -0.490279  
      34A     -0.455079    35A     -0.377440    36A     -0.342930  

    Virtual:                                                              

      37A      0.057016    38A      0.127632    39A      0.182036  
      40A      0.204177    41A      0.228782    42A      0.294650  
      43A      0.297014    44A      0.323915    45A      0.359782  
      46A      0.382000    47A      0.425972    48A      0.446136  
      49A      0.451761    50A      0.517926    51A      0.535050  
      52A      0.548210    53A      0.604372    54A      0.676730  
      55A      0.696834    56A      0.709876    57A      0.713749  
      58A      0.750663    59A      0.786491    60A      0.797521  
      61A      0.799371    62A      0.812994    63A      0.831445  
      64A      0.868734    65A      0.877686    66A      0.884064  
      67A      0.886735    68A      0.947031    69A      0.978278  
      70A      0.979030    71A      0.996308    72A      1.026894  
      73A      1.044257    74A      1.074015    75A      1.090036  
      76A      1.092233    77A      1.135904    78A      1.157514  
      79A      1.169478    80A      1.177065    81A      1.215508  
      82A      1.224420    83A      1.235642    84A      1.249047  
      85A      1.282631    86A      1.283365    87A      1.293680  
      88A      1.336108    89A      1.391658    90A      1.401657  
      91A      1.458561    92A      1.460655    93A      1.496956  
      94A      1.524362    95A      1.574157    96A      1.604665  
      97A      1.605013    98A      1.649330    99A      1.662349  
     100A      1.693930   101A      1.713334   102A      1.728864  
     103A      1.736018   104A      1.762586   105A      1.943152  
     106A      1.981560   107A      2.004294   108A      2.015312  
     109A      2.047511   110A      2.070768   111A      2.075778  
     112A      2.104943   113A      2.107222   114A      2.164361  
     115A      2.216799   116A      2.231676   117A      2.233797  
     118A      2.264158   119A      2.268111   120A      2.289527  
     121A      2.369967   122A      2.385435   123A      2.438312  
     124A      2.456356   125A      2.462714   126A      2.480279  
     127A      2.550207   128A      2.589038   129A      2.602652  
     130A      2.609464   131A      2.735782   132A      2.758335  
     133A      2.803616   134A      2.851211   135A      2.892158  
     136A      2.936203   137A      2.951811   138A      2.967306  
     139A      3.008920   140A      3.093135   141A      3.105136  
     142A      3.127820   143A      3.160616   144A      3.258543  
     145A      3.282140   146A      3.300921   147A      3.407021  
     148A      3.501533   149A      3.609091   150A      3.838230  
     151A      4.173912   152A      4.289563   153A      4.374372  
     154A      4.460457   155A      4.503986   156A      4.533389  
     157A      4.612556   158A      4.758670   159A      4.871060  
     160A      5.160802  

    Final Occupation by Irrep:
              A 
    DOCC [    36 ]

  Energy converged.

  @DF-RHF Final Energy:  -509.02776842163030

   => Energetics <=

    Nuclear Repulsion Energy =            503.5020941594515307
    One-Electron Energy =               -1693.2484723914235474
    Two-Electron Energy =                 680.7186098103427412
    DFT Exchange-Correlation Energy =       0.0000000000000000
    Empirical Dispersion Energy =           0.0000000000000000
    PCM Polarization Energy =               0.0000000000000000
    EFP Energy =                            0.0000000000000000
    Total Energy =                       -509.0277684216291618

    Alert: EFP and PCM quantities not currently incorporated into SCF psivars.

Properties will be evaluated at   0.000000,   0.000000,   0.000000 Bohr
  ==> Properties <==


Properties computed using the SCF density matrix

  Nuclear Dipole Moment: (a.u.)
     X:     5.6931      Y:     2.0449      Z:     0.0000

  Electronic Dipole Moment: (a.u.)
     X:    -4.2387      Y:    -1.8342      Z:     0.0000

  Dipole Moment: (a.u.)
     X:     1.4544      Y:     0.2107      Z:     0.0000     Total:     1.4696

  Dipole Moment: (Debye)
     X:     3.6967      Y:     0.5356      Z:     0.0000     Total:     3.7353


  Saving occupied orbitals to File 180.

*** tstop() called on cx1-1-4-3.cx1.hpc.ic.ac.uk at Tue Jul  5 16:40:59 2016
Module time:
	user time   =      15.83 seconds =       0.26 minutes
	system time =       0.14 seconds =       0.00 minutes
	total time  =         16 seconds =       0.27 minutes
Total time:
	user time   =      62.67 seconds =       1.04 minutes
	system time =       0.62 seconds =       0.01 minutes
	total time  =         65 seconds =       1.08 minutes

*** tstart() called on cx1-1-4-3.cx1.hpc.ic.ac.uk
*** at Tue Jul  5 16:40:59 2016


         ------------------------------------------------------------
                                   SCF GRAD                          
                          Rob Parrish, Justin Turney,                
                       Andy Simmonett, and Alex Sokolov              
         ------------------------------------------------------------

  ==> Geometry <==

    Molecular point group: c1
    Full point group: Cs

    Geometry (in Angstrom), charge = 0, multiplicity = 1:

       Center              X                  Y                   Z               Mass       
    ------------   -----------------  -----------------  -----------------  -----------------
           H          2.465042203893    -2.224328860993    -0.000000000001     1.007825032070
           O          2.783939424322    -1.332158312823    -0.000000000002    15.994914619560
           C          1.765029071529    -0.449372849244    -0.000000000001    12.000000000000
           C          2.091755829821     0.903059286920    -0.000000000001    12.000000000000
           C          0.440679586577    -0.841995271622     0.000000000001    12.000000000000
           H          3.128418168052     1.182779089206    -0.000000000001     1.007825032070
           C          1.093510793446     1.855198976256     0.000000000002    12.000000000000
           H          0.160289693947    -1.876858292418    -0.000000000000     1.007825032070
           C         -0.536311238768     0.140423049030     0.000000000003    12.000000000000
           H          1.354586242747     2.897170234425     0.000000000004     1.007825032070
           C         -0.245056162112     1.486097667601     0.000000000003    12.000000000000
           N         -1.935475289431    -0.280193841008     0.000000000006    14.003074004780
           H         -1.030492672428     2.213027734374     0.000000000006     1.007825032070
           O         -2.160791426056    -1.453140742573     0.000000000014    15.994914619560
           O         -2.769961196578     0.571701997268    -0.000000000023    15.994914619560

  Nuclear repulsion =  503.502094159451531

  ==> Basis Set <==

  Basis Set: 6-31G*
    Number of shells: 70
    Number of basis function: 160
    Number of Cartesian functions: 160
    Spherical Harmonics?: false
    Max angular momentum: 2

  ==> DFJKGrad: Density-Fitted SCF Gradients <==

    Gradient:                    1
    J tasked:                  Yes
    K tasked:                  Yes
    wK tasked:                  No
    OpenMP threads:              1
    Integrals threads:           1
    Memory (MB):              1430
    Schwarz Cutoff:          0E+00
    Fitting Condition:       1E-12

   => Auxiliary Basis Set <=

  Basis Set: 
    Number of shells: 285
    Number of basis function: 935
    Number of Cartesian functions: 935
    Spherical Harmonics?: false
    Max angular momentum: 3


  -Total Gradient:
     Atom            X                  Y                   Z
    ------   -----------------  -----------------  -----------------
       1        0.000000211178    -0.000003147956     0.000000000000
       2        0.000069866825    -0.000068118783     0.000000000000
       3       -0.000044979532     0.000056354799    -0.000000000000
       4        0.000040670477    -0.000019809890    -0.000000000000
       5       -0.000030913758    -0.000019280920     0.000000000000
       6       -0.000034454845    -0.000006552859     0.000000000000
       7       -0.000003008973     0.000016454691     0.000000000000
       8       -0.000010641531    -0.000006186271    -0.000000000000
       9       -0.000114046409    -0.000092764359    -0.000000000001
      10       -0.000024635697     0.000007935192     0.000000000000
      11       -0.000032625484     0.000016779821    -0.000000000000
      12       -0.000226417402     0.000429970176     0.000000000004
      13       -0.000002886080     0.000015425788     0.000000000000
      14        0.000210542091    -0.000440417952    -0.000000000001
      15        0.000203319152     0.000113358526    -0.000000000002


*** tstop() called on cx1-1-4-3.cx1.hpc.ic.ac.uk at Tue Jul  5 16:41:21 2016
Module time:
	user time   =      21.84 seconds =       0.36 minutes
	system time =       0.15 seconds =       0.00 minutes
	total time  =         22 seconds =       0.37 minutes
Total time:
	user time   =      84.51 seconds =       1.41 minutes
	system time =       0.77 seconds =       0.01 minutes
	total time  =         87 seconds =       1.45 minutes
CURRENT ENERGY: -509.0277684216

			-----------------------------------------
			 OPTKING 2.0: for geometry optimizations 
			  - R.A. King,  Bethel University        
			-----------------------------------------

	Previous internal coordinate definitions found.
	---Fragment 1 Geometry and Gradient---
	 H           4.6582546714       -4.2033723768       -0.0000000000
	 O           5.2608830825       -2.5174143769       -0.0000000000
	 C           3.3354215618       -0.8491916166       -0.0000000000
	 C           3.9528456552        1.7065347340       -0.0000000000
	 C           0.8327637310       -1.5911404685        0.0000000000
	 H           5.9118535668        2.2351285543       -0.0000000000
	 C           2.0664359230        3.5058179871        0.0000000000
	 H           0.3029036235       -3.5467481629       -0.0000000000
	 C          -1.0134813633        0.2653611054        0.0000000000
	 H           2.5597970222        5.4748583034        0.0000000000
	 C          -0.4630890336        2.8083175985        0.0000000000
	 N          -3.6575182340       -0.5294896236        0.0000000000
	 H          -1.9473489328        4.1820163424        0.0000000000
	 O          -4.0833040255       -2.7460380360        0.0000000000
	 O          -5.2344680603        1.0803602045       -0.0000000000
	             0.0000002112       -0.0000031480        0.0000000000
	             0.0000698668       -0.0000681188        0.0000000000
	            -0.0000449795        0.0000563548       -0.0000000000
	             0.0000406705       -0.0000198099       -0.0000000000
	            -0.0000309138       -0.0000192809        0.0000000000
	            -0.0000344548       -0.0000065529        0.0000000000
	            -0.0000030090        0.0000164547        0.0000000000
	            -0.0000106415       -0.0000061863       -0.0000000000
	            -0.0001140464       -0.0000927644       -0.0000000000
	            -0.0000246357        0.0000079352        0.0000000000
	            -0.0000326255        0.0000167798       -0.0000000000
	            -0.0002264174        0.0004299702        0.0000000000
	            -0.0000028861        0.0000154258        0.0000000000
	             0.0002105421       -0.0004404180       -0.0000000000
	             0.0002033192        0.0001133585       -0.0000000000

	---Fragment 1 Intrafragment Coordinates---
	 - Coordinate -           - BOHR/RAD -       - ANG/DEG -
	 R(1,2)           =         1.790423	       0.947451
	 R(2,3)           =         2.547620	       1.348143
	 R(3,4)           =         2.629249	       1.391339
	 R(3,5)           =         2.610323	       1.381323
	 R(4,6)           =         2.029070	       1.073737
	 R(4,7)           =         2.606907	       1.379516
	 R(5,8)           =         2.026118	       1.072175
	 R(5,9)           =         2.618247	       1.385517
	 R(7,10)          =         2.029908	       1.074181
	 R(7,11)          =         2.623929	       1.388524
	 R(9,11)          =         2.601838	       1.376833
	 R(9,12)          =         2.760927	       1.461020
	 R(11,13)         =         2.022394	       1.070205
	 R(12,14)         =         2.257073	       1.194392
	 R(12,15)         =         2.253528	       1.192516
	 B(1,2,3)         =         1.941448	     111.236797
	 B(2,3,4)         =         2.047693	     117.324158
	 B(2,3,5)         =         2.139443	     122.581081
	 B(3,4,6)         =         2.071390	     118.681900
	 B(3,4,7)         =         2.095517	     120.064284
	 B(3,5,8)         =         2.123598	     121.673187
	 B(3,5,9)         =         2.065215	     118.328080
	 B(4,3,5)         =         2.096049	     120.094761
	 B(4,7,10)        =         2.087055	     119.579439
	 B(4,7,11)        =         2.110772	     120.938314
	 B(5,9,11)        =         2.145814	     122.946101
	 B(5,9,12)        =         2.061399	     118.109457
	 B(6,4,7)         =         2.116278	     121.253816
	 B(7,11,9)        =         2.053004	     117.628461
	 B(7,11,13)       =         2.125803	     121.799548
	 B(8,5,9)         =         2.094373	     119.998733
	 B(9,11,13)       =         2.104378	     120.571991
	 B(9,12,14)       =         2.052604	     117.605559
	 B(9,12,15)       =         2.053845	     117.676673
	 B(10,7,11)       =         2.085359	     119.482248
	 B(11,9,12)       =         2.075972	     118.944442
	 B(14,12,15)      =         2.176736	     124.717768
	 D(1,2,3,4)       =         3.141593	     180.000000
	 D(1,2,3,5)       =         0.000000	       0.000000
	 D(2,3,4,6)       =         0.000000	       0.000000
	 D(2,3,4,7)       =         3.141593	     180.000000
	 D(2,3,5,8)       =        -0.000000	      -0.000000
	 D(2,3,5,9)       =         3.141593	     180.000000
	 D(3,4,7,10)      =         3.141593	     180.000000
	 D(3,4,7,11)      =        -0.000000	      -0.000000
	 D(3,5,9,11)      =         0.000000	       0.000000
	 D(3,5,9,12)      =         3.141593	     180.000000
	 D(4,3,5,8)       =         3.141593	     180.000000
	 D(4,3,5,9)       =         0.000000	       0.000000
	 D(4,7,11,9)      =         0.000000	       0.000000
	 D(4,7,11,13)     =         3.141593	     180.000000
	 D(5,3,4,6)       =         3.141593	     180.000000
	 D(5,3,4,7)       =        -0.000000	      -0.000000
	 D(5,9,11,7)      =        -0.000000	      -0.000000
	 D(5,9,11,13)     =         3.141593	     180.000000
	 D(5,9,12,14)     =         0.000000	       0.000000
	 D(5,9,12,15)     =         3.141593	     180.000000
	 D(6,4,7,10)      =         0.000000	       0.000000
	 D(6,4,7,11)      =         3.141593	     180.000000
	 D(7,11,9,12)     =         3.141593	     180.000000
	 D(8,5,9,11)      =         3.141593	     180.000000
	 D(8,5,9,12)      =         0.000000	       0.000000
	 D(9,11,7,10)     =         3.141593	     180.000000
	 D(10,7,11,13)    =         0.000000	       0.000000
	 D(11,9,12,14)    =         3.141593	     180.000000
	 D(11,9,12,15)    =         0.000000	       0.000000
	 D(12,9,11,13)    =         0.000000	       0.000000

	Current energy   :      -509.0277684216

	Energy change for the previous step:
		Projected    :        -0.0000046877
		Actual       :        -0.0000019121

	Performing BFGS update.
	Previous computed or guess Hessian on step 1.
	Steps to be used in Hessian update: 1
	Taking RFO optimization step.
	Going to follow RFO solution 1.
	Using RFO vector 1.
	Norm of target step-size    0.00151
	Projected energy change by RFO approximation:        -0.0000009267

	Back-transformation to cartesian coordinates...
	Successfully converged to displaced geometry.

	--- Internal Coordinate Step in ANG or DEG, aJ/ANG or AJ/DEG ---
	 ---------------------------------------------------------------------------
	   Coordinate                Previous        Force       Change         New 
	   ----------                --------       ------       ------       ------
	    1 R(1,2)          =      0.947451    -0.000024     0.000019     0.947470
	    2 R(2,3)          =      1.348143    -0.000821    -0.000116     1.348027
	    3 R(3,4)          =      1.391339    -0.000141     0.000043     1.391382
	    4 R(3,5)          =      1.381323    -0.000091     0.000029     1.381352
	    5 R(4,6)          =      1.073737     0.000288    -0.000025     1.073713
	    6 R(4,7)          =      1.379516    -0.000400     0.000001     1.379517
	    7 R(5,8)          =      1.072175    -0.000072    -0.000016     1.072160
	    8 R(5,9)          =      1.385517     0.000074     0.000058     1.385575
	    9 R(7,10)         =      1.074181    -0.000014    -0.000004     1.074177
	   10 R(7,11)         =      1.388524     0.000098    -0.000055     1.388469
	   11 R(9,11)         =      1.376833     0.000000    -0.000044     1.376790
	   12 R(9,12)         =      1.461020     0.001723     0.000310     1.461330
	   13 R(11,13)        =      1.070205    -0.000104     0.000031     1.070236
	   14 R(12,14)        =      1.194392    -0.003236    -0.000226     1.194166
	   15 R(12,15)        =      1.192516     0.000505     0.000072     1.192588
	   16 B(1,2,3)        =    111.236797    -0.000000     0.000152   111.236949
	   17 B(2,3,4)        =    117.324158    -0.000001    -0.001592   117.322567
	   18 B(2,3,5)        =    122.581081    -0.000000     0.004069   122.585150
	   19 B(3,4,6)        =    118.681900     0.000000    -0.003337   118.678563
	   20 B(3,4,7)        =    120.064284    -0.000001    -0.001273   120.063011
	   21 B(3,5,8)        =    121.673187    -0.000001    -0.003626   121.669561
	   22 B(3,5,9)        =    118.328080     0.000001     0.004053   118.332132
	   23 B(4,3,5)        =    120.094761     0.000001    -0.002478   120.092283
	   24 B(4,7,10)       =    119.579439    -0.000002    -0.009141   119.570297
	   25 B(4,7,11)       =    120.938314     0.000000    -0.000970   120.937344
	   26 B(5,9,11)       =    122.946101    -0.000004    -0.009133   122.936968
	   27 B(5,9,12)       =    118.109457     0.000003     0.001211   118.110668
	   28 B(6,4,7)        =    121.253816     0.000001     0.004610   121.258426
	   29 B(7,11,9)       =    117.628461     0.000002     0.009801   117.638262
	   30 B(7,11,13)      =    121.799548    -0.000000     0.001485   121.801033
	   31 B(8,5,9)        =    119.998733     0.000000    -0.000426   119.998307
	   32 B(9,11,13)      =    120.571991    -0.000002    -0.011286   120.560705
	   33 B(9,12,14)      =    117.605559     0.000020     0.042031   117.647590
	   34 B(9,12,15)      =    117.676673     0.000009     0.011413   117.688085
	   35 B(10,7,11)      =    119.482248     0.000002     0.010111   119.492359
	   36 B(11,9,12)      =    118.944442     0.000001     0.007922   118.952364
	   37 B(14,12,15)     =    124.717768    -0.000029    -0.053443   124.664325
	   38 D(1,2,3,4)      =    180.000000     0.000000     0.000000   180.000000
	   39 D(1,2,3,5)      =      0.000000    -0.000000     0.000000     0.000000
	   40 D(2,3,4,6)      =      0.000000    -0.000000     0.000000     0.000000
	   41 D(2,3,4,7)      =    180.000000    -0.000000     0.000000   180.000000
	   42 D(2,3,5,8)      =      0.000000     0.000000     0.000000     0.000000
	   43 D(2,3,5,9)      =    180.000000     0.000000     0.000000   180.000000
	   44 D(3,4,7,10)     =    180.000000     0.000000     0.000000   180.000000
	   45 D(3,4,7,11)     =      0.000000     0.000000     0.000000     0.000000
	   46 D(3,5,9,11)     =      0.000000    -0.000000     0.000000     0.000000
	   47 D(3,5,9,12)     =    180.000000    -0.000000     0.000000   180.000000
	   48 D(4,3,5,8)      =    180.000000     0.000000     0.000000   180.000000
	   49 D(4,3,5,9)      =      0.000000     0.000000     0.000000     0.000000
	   50 D(4,7,11,9)     =      0.000000    -0.000000     0.000000     0.000000
	   51 D(4,7,11,13)    =    180.000000     0.000000     0.000000   180.000000
	   52 D(5,3,4,6)      =    180.000000     0.000000     0.000000   180.000000
	   53 D(5,3,4,7)      =      0.000000     0.000000     0.000000     0.000000
	   54 D(5,9,11,7)     =      0.000000     0.000000     0.000000     0.000000
	   55 D(5,9,11,13)    =    180.000000    -0.000000     0.000000   180.000000
	   56 D(5,9,12,14)    =      0.000000     0.000000     0.000000     0.000000
	   57 D(5,9,12,15)    =    180.000000    -0.000000     0.000000   180.000000
	   58 D(6,4,7,10)     =      0.000000    -0.000000     0.000000     0.000000
	   59 D(6,4,7,11)     =    180.000000    -0.000000     0.000000   180.000000
	   60 D(7,11,9,12)    =    180.000000     0.000000     0.000000   180.000000
	   61 D(8,5,9,11)     =    180.000000    -0.000000     0.000000   180.000000
	   62 D(8,5,9,12)     =      0.000000    -0.000000     0.000000     0.000000
	   63 D(9,11,7,10)    =    180.000000    -0.000000     0.000000   180.000000
	   64 D(10,7,11,13)   =      0.000000     0.000000     0.000000     0.000000
	   65 D(11,9,12,14)   =    180.000000     0.000000     0.000000   180.000000
	   66 D(11,9,12,15)   =      0.000000    -0.000000     0.000000     0.000000
	   67 D(12,9,11,13)   =      0.000000    -0.000000     0.000000     0.000000
	 ---------------------------------------------------------------------------

  ==> Convergence Check <==

  Measures of convergence in internal coordinates in au.
  Criteria marked as inactive (o), active & met (*), and active & unmet ( ).
  ---------------------------------------------------------------------------------------------
   Step     Total Energy     Delta E     MAX Force     RMS Force      MAX Disp      RMS Disp   
  ---------------------------------------------------------------------------------------------
    Convergence Criteria    1.00e-06 *    3.00e-04 *             o    1.20e-03 *             o
  ---------------------------------------------------------------------------------------------
      2    -509.02776842   -1.91e-06      3.93e-04      8.28e-05 o    9.33e-04 *    1.85e-04 o  ~
  ---------------------------------------------------------------------------------------------

	Writing optimization data to binary file.
	Structure for next step:
	Cartesian Geometry (in Angstrom)
	    H     2.4652319195  -2.2242218323   0.0000000000
	    O     2.7840810601  -1.3320137752   0.0000000001
	    C     1.7652063751  -0.4493634699   0.0000000000
	    C     2.0919017776   0.9031206130   0.0000000001
	    C     0.4408244469  -0.8419773978  -0.0000000001
	    H     3.1285479097   1.1828053840   0.0000000002
	    C     1.0936055376   1.8552083202   0.0000000000
	    H     0.1604911239  -1.8768395556  -0.0000000002
	    C    -0.5362648207   0.1404256340  -0.0000000002
	    H     1.3547912479   2.8971482222   0.0000000001
	    C    -0.2448827245   1.4860281587  -0.0000000001
	    N    -1.9357101605  -0.2803323023  -0.0000000003
	    H    -1.0304116192   2.2129041251  -0.0000000002
	    O    -2.1618005105  -1.4529002464   0.0000000004
	    O    -2.7704480296   0.5714181997   0.0000000004
			--------------------------
			 OPTKING Finished Execution 
			--------------------------

    Structure for next step:
    Molecular point group: c1
    Full point group: Cs

    Geometry (in Angstrom), charge = 0, multiplicity = 1:

    H            2.465337787958    -2.224222085808    -0.000000000019
    O            2.784186904201    -1.332014096823     0.000000000037
    C            1.765312297026    -0.449363858930    -0.000000000026
    C            2.092007674573     0.903120120655     0.000000000043
    C            0.440930469913    -0.841977756898    -0.000000000158
    H            3.128653727434     1.182804870318     0.000000000144
    C            1.093711510782     1.855207755095    -0.000000000019
    H            0.160597168292    -1.876839835633    -0.000000000214
    C           -0.536158723025     0.140425199916    -0.000000000221
    H            1.354897201174     2.897147577572     0.000000000034
    C           -0.244776649153     1.486027621825    -0.000000000151
    N           -1.935603956020    -0.280332704280    -0.000000000363
    H           -1.030305483791     2.212903532732    -0.000000000202
    O           -2.161694288753    -1.452900558887     0.000000000339
    O           -2.770341761322     0.571417732716     0.000000000357

gradient() will perform analytic gradient computation.

*** tstart() called on cx1-1-4-3.cx1.hpc.ic.ac.uk
*** at Tue Jul  5 16:41:21 2016


         ---------------------------------------------------------
                                   SCF
            by Justin Turney, Rob Parrish, and Andy Simmonett
                              RHF Reference
                        1 Threads,   2000 MiB Core
         ---------------------------------------------------------

  ==> Geometry <==

    Molecular point group: c1
    Full point group: Cs

    Geometry (in Angstrom), charge = 0, multiplicity = 1:

       Center              X                  Y                   Z               Mass       
    ------------   -----------------  -----------------  -----------------  -----------------
           H          2.465337787958    -2.224222085808    -0.000000000019     1.007825032070
           O          2.784186904201    -1.332014096823     0.000000000037    15.994914619560
           C          1.765312297026    -0.449363858930    -0.000000000026    12.000000000000
           C          2.092007674573     0.903120120655     0.000000000043    12.000000000000
           C          0.440930469913    -0.841977756898    -0.000000000158    12.000000000000
           H          3.128653727434     1.182804870318     0.000000000144     1.007825032070
           C          1.093711510782     1.855207755095    -0.000000000019    12.000000000000
           H          0.160597168292    -1.876839835633    -0.000000000214     1.007825032070
           C         -0.536158723025     0.140425199916    -0.000000000221    12.000000000000
           H          1.354897201174     2.897147577572     0.000000000034     1.007825032070
           C         -0.244776649153     1.486027621825    -0.000000000151    12.000000000000
           N         -1.935603956020    -0.280332704280    -0.000000000363    14.003074004780
           H         -1.030305483791     2.212903532732    -0.000000000202     1.007825032070
           O         -2.161694288753    -1.452900558887     0.000000000339    15.994914619560
           O         -2.770341761322     0.571417732716     0.000000000357    15.994914619560

  Running in c1 symmetry.

  Rotational constants: A =      0.09336  B =      0.03347  C =      0.02464 [cm^-1]
  Rotational constants: A =   2798.93800  B =   1003.41488  C =    738.62056 [MHz]
  Nuclear repulsion =  503.481173708350866

  Charge       = 0
  Multiplicity = 1
  Electrons    = 72
  Nalpha       = 36
  Nbeta        = 36

  ==> Algorithm <==

  SCF Algorithm Type is DF.
  DIIS enabled.
  MOM disabled.
  Fractional occupation disabled.
  Guess Type is READ.
  Energy threshold   = 1.00e-08
  Density threshold  = 1.00e-08
  Integral threshold = 0.00e+00

  ==> Primary Basis <==

  Basis Set: 6-31G*
    Number of shells: 70
    Number of basis function: 160
    Number of Cartesian functions: 160
    Spherical Harmonics?: false
    Max angular momentum: 2

  ==> Pre-Iterations <==

   -------------------------------------------------------
    Irrep   Nso     Nmo     Nalpha   Nbeta   Ndocc  Nsocc
   -------------------------------------------------------
     A        160     160       0       0       0       0
   -------------------------------------------------------
    Total     160     160      36      36      36       0
   -------------------------------------------------------

 OEINTS: Overlap, kinetic, potential, dipole, and quadrupole integrals
         stored in file 35.

  ==> Integral Setup <==

  ==> DFJK: Density-Fitted J/K Matrices <==

    J tasked:                  Yes
    K tasked:                  Yes
    wK tasked:                  No
    OpenMP threads:              1
    Integrals threads:           1
    Memory (MB):              1430
    Algorithm:                Core
    Integral Cache:           NONE
    Schwarz Cutoff:          1E-12
    Fitting Condition:       1E-12

   => Auxiliary Basis Set <=

  Basis Set: 
    Number of shells: 285
    Number of basis function: 935
    Number of Cartesian functions: 935
    Spherical Harmonics?: false
    Max angular momentum: 3

  Minimum eigenvalue in the overlap matrix is 4.1746893584E-04.
  Using Symmetric Orthogonalization.
  SCF Guess: Reading in previously saved MOs, projecting if necessary.

  Using orbitals from previous SCF, no projection.
  Recomputing DOCC and SOCC from number of alpha and beta electrons from previous calculation.
              A 
    DOCC [    36 ]

  ==> Iterations <==

                           Total Energy        Delta E     RMS |[F,P]|

   @DF-RHF iter   0:  -509.02785737487216   -5.09028e+02   1.43713e-05 
   @DF-RHF iter   1:  -509.02776869569414    8.86792e-05   2.31016e-06 
   @DF-RHF iter   2:  -509.02776875842085   -6.27267e-08   1.59049e-06 DIIS
   @DF-RHF iter   3:  -509.02776878495638   -2.65355e-08   5.07374e-07 DIIS
   @DF-RHF iter   4:  -509.02776879077771   -5.82133e-09   1.22104e-07 DIIS
   @DF-RHF iter   5:  -509.02776879112616   -3.48450e-10   5.93973e-08 DIIS
   @DF-RHF iter   6:  -509.02776879119472   -6.85532e-11   2.44110e-08 DIIS
   @DF-RHF iter   7:  -509.02776879121529   -2.05773e-11   1.32959e-08 DIIS
   @DF-RHF iter   8:  -509.02776879122109   -5.79803e-12   5.17185e-09 DIIS

  ==> Post-Iterations <==

    Orbital Energies (a.u.)
    -----------------------

    Doubly Occupied:                                                      

       1A    -20.615792     2A    -20.605176     3A    -20.604615  
       4A    -15.859555     5A    -11.330581     6A    -11.311202  
       7A    -11.267280     8A    -11.266830     9A    -11.263678  
      10A    -11.260796    11A     -1.638346    12A     -1.436490  
      13A     -1.421618    14A     -1.200537    15A     -1.095034  
      16A     -1.046473    17A     -0.966222    18A     -0.878683  
      19A     -0.828643    20A     -0.791182    21A     -0.752000  
      22A     -0.737257    23A     -0.724076    24A     -0.707848  
      25A     -0.673241    26A     -0.635198    27A     -0.615879  
      28A     -0.594707    29A     -0.558634    30A     -0.545100  
      31A     -0.515291    32A     -0.492272    33A     -0.490172  
      34A     -0.455008    35A     -0.377463    36A     -0.342942  

    Virtual:                                                              

      37A      0.057045    38A      0.127624    39A      0.182035  
      40A      0.204146    41A      0.228762    42A      0.294622  
      43A      0.297005    44A      0.323903    45A      0.359759  
      46A      0.381813    47A      0.425923    48A      0.446098  
      49A      0.451745    50A      0.517989    51A      0.535036  
      52A      0.548147    53A      0.604343    54A      0.676749  
      55A      0.696797    56A      0.709894    57A      0.713727  
      58A      0.750707    59A      0.786464    60A      0.797500  
      61A      0.799361    62A      0.812954    63A      0.831401  
      64A      0.868726    65A      0.877662    66A      0.884043  
      67A      0.886691    68A      0.946999    69A      0.978257  
      70A      0.979000    71A      0.996361    72A      1.026934  
      73A      1.044300    74A      1.074106    75A      1.089998  
      76A      1.092220    77A      1.135907    78A      1.157489  
      79A      1.169479    80A      1.177035    81A      1.215509  
      82A      1.224387    83A      1.235658    84A      1.249018  
      85A      1.282521    86A      1.283300    87A      1.293662  
      88A      1.335934    89A      1.391596    90A      1.401606  
      91A      1.458397    92A      1.460632    93A      1.496875  
      94A      1.524480    95A      1.574153    96A      1.604645  
      97A      1.604961    98A      1.649306    99A      1.662433  
     100A      1.693957   101A      1.713309   102A      1.728837  
     103A      1.736033   104A      1.762152   105A      1.943014  
     106A      1.981381   107A      2.004236   108A      2.015501  
     109A      2.047497   110A      2.070665   111A      2.075780  
     112A      2.105163   113A      2.107323   114A      2.164392  
     115A      2.216757   116A      2.231622   117A      2.233710  
     118A      2.264130   119A      2.267970   120A      2.289502  
     121A      2.369907   122A      2.385373   123A      2.438283  
     124A      2.456305   125A      2.462659   126A      2.480791  
     127A      2.550225   128A      2.588946   129A      2.602585  
     130A      2.609482   131A      2.735691   132A      2.758259  
     133A      2.803754   134A      2.851115   135A      2.892333  
     136A      2.936097   137A      2.951784   138A      2.967269  
     139A      3.008963   140A      3.092927   141A      3.104975  
     142A      3.127832   143A      3.160534   144A      3.258532  
     145A      3.282117   146A      3.301089   147A      3.406926  
     148A      3.501470   149A      3.608785   150A      3.838206  
     151A      4.173631   152A      4.289456   153A      4.374281  
     154A      4.460298   155A      4.503986   156A      4.533304  
     157A      4.612546   158A      4.758638   159A      4.870995  
     160A      5.160764  

    Final Occupation by Irrep:
              A 
    DOCC [    36 ]

  Energy converged.

  @DF-RHF Final Energy:  -509.02776879122109

   => Energetics <=

    Nuclear Repulsion Energy =            503.4811737083508660
    One-Electron Energy =               -1693.2062468727374380
    Two-Electron Energy =                 680.6973043731650250
    DFT Exchange-Correlation Energy =       0.0000000000000000
    Empirical Dispersion Energy =           0.0000000000000000
    PCM Polarization Energy =               0.0000000000000000
    EFP Energy =                            0.0000000000000000
    Total Energy =                       -509.0277687912216606

    Alert: EFP and PCM quantities not currently incorporated into SCF psivars.

Properties will be evaluated at   0.000000,   0.000000,   0.000000 Bohr
  ==> Properties <==


Properties computed using the SCF density matrix

  Nuclear Dipole Moment: (a.u.)
     X:     5.6943      Y:     2.0449      Z:    -0.0000

  Electronic Dipole Moment: (a.u.)
     X:    -4.2380      Y:    -1.8348      Z:    -0.0000

  Dipole Moment: (a.u.)
     X:     1.4563      Y:     0.2101      Z:    -0.0000     Total:     1.4714

  Dipole Moment: (Debye)
     X:     3.7015      Y:     0.5340      Z:    -0.0000     Total:     3.7399


  Saving occupied orbitals to File 180.

*** tstop() called on cx1-1-4-3.cx1.hpc.ic.ac.uk at Tue Jul  5 16:41:37 2016
Module time:
	user time   =      15.59 seconds =       0.26 minutes
	system time =       0.15 seconds =       0.00 minutes
	total time  =         16 seconds =       0.27 minutes
Total time:
	user time   =     100.22 seconds =       1.67 minutes
	system time =       0.93 seconds =       0.02 minutes
	total time  =        103 seconds =       1.72 minutes

*** tstart() called on cx1-1-4-3.cx1.hpc.ic.ac.uk
*** at Tue Jul  5 16:41:38 2016


         ------------------------------------------------------------
                                   SCF GRAD                          
                          Rob Parrish, Justin Turney,                
                       Andy Simmonett, and Alex Sokolov              
         ------------------------------------------------------------

  ==> Geometry <==

    Molecular point group: c1
    Full point group: Cs

    Geometry (in Angstrom), charge = 0, multiplicity = 1:

       Center              X                  Y                   Z               Mass       
    ------------   -----------------  -----------------  -----------------  -----------------
           H          2.465337787958    -2.224222085808    -0.000000000019     1.007825032070
           O          2.784186904201    -1.332014096823     0.000000000037    15.994914619560
           C          1.765312297026    -0.449363858930    -0.000000000026    12.000000000000
           C          2.092007674573     0.903120120655     0.000000000043    12.000000000000
           C          0.440930469913    -0.841977756898    -0.000000000158    12.000000000000
           H          3.128653727434     1.182804870318     0.000000000144     1.007825032070
           C          1.093711510782     1.855207755095    -0.000000000019    12.000000000000
           H          0.160597168292    -1.876839835633    -0.000000000214     1.007825032070
           C         -0.536158723025     0.140425199916    -0.000000000221    12.000000000000
           H          1.354897201174     2.897147577572     0.000000000034     1.007825032070
           C         -0.244776649153     1.486027621825    -0.000000000151    12.000000000000
           N         -1.935603956020    -0.280332704280    -0.000000000363    14.003074004780
           H         -1.030305483791     2.212903532732    -0.000000000202     1.007825032070
           O         -2.161694288753    -1.452900558887     0.000000000339    15.994914619560
           O         -2.770341761322     0.571417732716     0.000000000357    15.994914619560

  Nuclear repulsion =  503.481173708350866

  ==> Basis Set <==

  Basis Set: 6-31G*
    Number of shells: 70
    Number of basis function: 160
    Number of Cartesian functions: 160
    Spherical Harmonics?: false
    Max angular momentum: 2

  ==> DFJKGrad: Density-Fitted SCF Gradients <==

    Gradient:                    1
    J tasked:                  Yes
    K tasked:                  Yes
    wK tasked:                  No
    OpenMP threads:              1
    Integrals threads:           1
    Memory (MB):              1430
    Schwarz Cutoff:          0E+00
    Fitting Condition:       1E-12

   => Auxiliary Basis Set <=

  Basis Set: 
    Number of shells: 285
    Number of basis function: 935
    Number of Cartesian functions: 935
    Spherical Harmonics?: false
    Max angular momentum: 3


  -Total Gradient:
     Atom            X                  Y                   Z
    ------   -----------------  -----------------  -----------------
       1       -0.000013832143    -0.000019483347    -0.000000000000
       2        0.000020826193     0.000025950858    -0.000000000000
       3        0.000041666920    -0.000046642444    -0.000000000002
       4        0.000082273983     0.000026376610     0.000000000000
       5        0.000020668053    -0.000035982835     0.000000000008
       6       -0.000050394814    -0.000019120399    -0.000000000000
       7       -0.000090774921     0.000032438092    -0.000000000003
       8        0.000004052353     0.000018417543     0.000000000001
       9       -0.000041652526     0.000069674484     0.000000000069
      10        0.000000341777     0.000000052202    -0.000000000001
      11        0.000126500297    -0.000039493271     0.000000000008
      12       -0.000023055807     0.000064387206    -0.000000000287
      13       -0.000020431300     0.000017445533     0.000000000001
      14       -0.000058552720    -0.000022439606     0.000000000103
      15        0.000002364654    -0.000071580614     0.000000000104


*** tstop() called on cx1-1-4-3.cx1.hpc.ic.ac.uk at Tue Jul  5 16:41:59 2016
Module time:
	user time   =      21.67 seconds =       0.36 minutes
	system time =       0.15 seconds =       0.00 minutes
	total time  =         21 seconds =       0.35 minutes
Total time:
	user time   =     121.89 seconds =       2.03 minutes
	system time =       1.08 seconds =       0.02 minutes
	total time  =        125 seconds =       2.08 minutes
CURRENT ENERGY: -509.0277687912

			-----------------------------------------
			 OPTKING 2.0: for geometry optimizations 
			  - R.A. King,  Bethel University        
			-----------------------------------------

	Previous internal coordinate definitions found.
	---Fragment 1 Geometry and Gradient---
	 H           4.6588132443       -4.2031706009       -0.0000000000
	 O           5.2613507517       -2.5171418481        0.0000000001
	 C           3.3359567804       -0.8491746274       -0.0000000000
	 C           3.9533215728        1.7066496931        0.0000000001
	 C           0.8332378318       -1.5911073705       -0.0000000003
	 H           5.9122987095        2.2351772735        0.0000000003
	 C           2.0668152238        3.5058345767       -0.0000000000
	 H           0.3034846658       -3.5467132846       -0.0000000004
	 C          -1.0131931503        0.2653651700       -0.0000000004
	 H           2.5603846484        5.4748154882        0.0000000001
	 C          -0.4625608306        2.8081852312       -0.0000000003
	 N          -3.6577613786       -0.5297520372       -0.0000000007
	 H          -1.9469951976        4.1817816354       -0.0000000004
	 O          -4.0850101888       -2.7455841546        0.0000000006
	 O          -5.2351872234        1.0798230223        0.0000000007
	            -0.0000138321       -0.0000194833       -0.0000000000
	             0.0000208262        0.0000259509       -0.0000000000
	             0.0000416669       -0.0000466424       -0.0000000000
	             0.0000822740        0.0000263766        0.0000000000
	             0.0000206681       -0.0000359828        0.0000000000
	            -0.0000503948       -0.0000191204       -0.0000000000
	            -0.0000907749        0.0000324381       -0.0000000000
	             0.0000040524        0.0000184175        0.0000000000
	            -0.0000416525        0.0000696745        0.0000000001
	             0.0000003418        0.0000000522       -0.0000000000
	             0.0001265003       -0.0000394933        0.0000000000
	            -0.0000230558        0.0000643872       -0.0000000003
	            -0.0000204313        0.0000174455        0.0000000000
	            -0.0000585527       -0.0000224396        0.0000000001
	             0.0000023647       -0.0000715806        0.0000000001

	---Fragment 1 Intrafragment Coordinates---
	 - Coordinate -           - BOHR/RAD -       - ANG/DEG -
	 R(1,2)           =         1.790459	       0.947470
	 R(2,3)           =         2.547402	       1.348027
	 R(3,4)           =         2.629330	       1.391382
	 R(3,5)           =         2.610377	       1.381352
	 R(4,6)           =         2.029023	       1.073713
	 R(4,7)           =         2.606909	       1.379517
	 R(5,8)           =         2.026088	       1.072160
	 R(5,9)           =         2.618358	       1.385575
	 R(7,10)          =         2.029901	       1.074177
	 R(7,11)          =         2.623825	       1.388469
	 R(9,11)          =         2.601755	       1.376790
	 R(9,12)          =         2.761513	       1.461330
	 R(11,13)         =         2.022452	       1.070236
	 R(12,14)         =         2.256647	       1.194166
	 R(12,15)         =         2.253665	       1.192588
	 B(1,2,3)         =         1.941451	     111.236949
	 B(2,3,4)         =         2.047665	     117.322567
	 B(2,3,5)         =         2.139514	     122.585150
	 B(3,4,6)         =         2.071332	     118.678563
	 B(3,4,7)         =         2.095495	     120.063011
	 B(3,5,8)         =         2.123534	     121.669561
	 B(3,5,9)         =         2.065285	     118.332132
	 B(4,3,5)         =         2.096006	     120.092283
	 B(4,7,10)        =         2.086895	     119.570297
	 B(4,7,11)        =         2.110755	     120.937344
	 B(5,9,11)        =         2.145655	     122.936968
	 B(5,9,12)        =         2.061420	     118.110668
	 B(6,4,7)         =         2.116359	     121.258426
	 B(7,11,9)        =         2.053175	     117.638262
	 B(7,11,13)       =         2.125829	     121.801033
	 B(8,5,9)         =         2.094366	     119.998307
	 B(9,11,13)       =         2.104181	     120.560705
	 B(9,12,14)       =         2.053338	     117.647590
	 B(9,12,15)       =         2.054045	     117.688085
	 B(10,7,11)       =         2.085535	     119.492359
	 B(11,9,12)       =         2.076110	     118.952364
	 B(14,12,15)      =         2.175803	     124.664325
	 D(1,2,3,4)       =         3.141593	     180.000000
	 D(1,2,3,5)       =        -0.000000	      -0.000000
	 D(2,3,4,6)       =        -0.000000	      -0.000000
	 D(2,3,4,7)       =         3.141593	     180.000000
	 D(2,3,5,8)       =         0.000000	       0.000000
	 D(2,3,5,9)       =         3.141593	     180.000000
	 D(3,4,7,10)      =         3.141593	     180.000000
	 D(3,4,7,11)      =        -0.000000	      -0.000000
	 D(3,5,9,11)      =        -0.000000	      -0.000000
	 D(3,5,9,12)      =         3.141593	     180.000000
	 D(4,3,5,8)       =         3.141593	     180.000000
	 D(4,3,5,9)       =         0.000000	       0.000000
	 D(4,7,11,9)      =        -0.000000	      -0.000000
	 D(4,7,11,13)     =         3.141593	     180.000000
	 D(5,3,4,6)       =         3.141593	     180.000000
	 D(5,3,4,7)       =         0.000000	       0.000000
	 D(5,9,11,7)      =         0.000000	       0.000000
	 D(5,9,11,13)     =         3.141593	     180.000000
	 D(5,9,12,14)     =         0.000000	       0.000000
	 D(5,9,12,15)     =         3.141593	     180.000000
	 D(6,4,7,10)      =        -0.000000	      -0.000000
	 D(6,4,7,11)      =         3.141593	     180.000000
	 D(7,11,9,12)     =         3.141593	     180.000000
	 D(8,5,9,11)      =         3.141593	     180.000000
	 D(8,5,9,12)      =        -0.000000	      -0.000000
	 D(9,11,7,10)     =         3.141593	     180.000000
	 D(10,7,11,13)    =         0.000000	       0.000000
	 D(11,9,12,14)    =         3.141593	     180.000000
	 D(11,9,12,15)    =        -0.000000	      -0.000000
	 D(12,9,11,13)    =        -0.000000	      -0.000000

	Current energy   :      -509.0277687912

	Energy change for the previous step:
		Projected    :        -0.0000009267
		Actual       :        -0.0000003696

	Performing BFGS update.
	Previous computed or guess Hessian on step 1.
	Steps to be used in Hessian update: 2 1
	Taking RFO optimization step.
	Going to follow RFO solution 1.
	Using RFO vector 1.
	Norm of target step-size    0.00044
	Projected energy change by RFO approximation:        -0.0000000866

	Back-transformation to cartesian coordinates...
	Successfully converged to displaced geometry.

	--- Internal Coordinate Step in ANG or DEG, aJ/ANG or AJ/DEG ---
	 ---------------------------------------------------------------------------
	   Coordinate                Previous        Force       Change         New 
	   ----------                --------       ------       ------       ------
	    1 R(1,2)          =      0.947470    -0.000190    -0.000018     0.947452
	    2 R(2,3)          =      1.348027    -0.000009    -0.000004     1.348024
	    3 R(3,4)          =      1.391382    -0.000245    -0.000034     1.391347
	    4 R(3,5)          =      1.381352    -0.000347    -0.000043     1.381309
	    5 R(4,6)          =      1.073713     0.000442     0.000069     1.073782
	    6 R(4,7)          =      1.379517    -0.000337    -0.000040     1.379477
	    7 R(5,8)          =      1.072160     0.000155     0.000021     1.072181
	    8 R(5,9)          =      1.385575    -0.000571    -0.000065     1.385511
	    9 R(7,10)         =      1.074177    -0.000001    -0.000000     1.074177
	   10 R(7,11)         =      1.388469     0.000430     0.000056     1.388524
	   11 R(9,11)         =      1.376790     0.000021     0.000008     1.376797
	   12 R(9,12)         =      1.461330    -0.000696    -0.000085     1.461245
	   13 R(11,13)        =      1.070236    -0.000221    -0.000035     1.070201
	   14 R(12,14)        =      1.194166    -0.000273    -0.000019     1.194147
	   15 R(12,15)        =      1.192588     0.000435     0.000019     1.192607
	   16 B(1,2,3)        =    111.236949     0.000001     0.003226   111.240175
	   17 B(2,3,4)        =    117.322567    -0.000000    -0.000472   117.322094
	   18 B(2,3,5)        =    122.585150    -0.000001    -0.002697   122.582454
	   19 B(3,4,6)        =    118.678563     0.000000     0.001611   118.680174
	   20 B(3,4,7)        =    120.063011     0.000000     0.000211   120.063222
	   21 B(3,5,8)        =    121.669561     0.000001     0.001461   121.671021
	   22 B(3,5,9)        =    118.332132    -0.000001    -0.003934   118.328198
	   23 B(4,3,5)        =    120.092283     0.000002     0.003169   120.095452
	   24 B(4,7,10)       =    119.570297     0.000000    -0.000631   119.569666
	   25 B(4,7,11)       =    120.937344    -0.000000     0.000653   120.937997
	   26 B(5,9,11)       =    122.936968     0.000003     0.007509   122.944476
	   27 B(5,9,12)       =    118.110668    -0.000001    -0.002810   118.107858
	   28 B(6,4,7)        =    121.258426    -0.000001    -0.001822   121.256604
	   29 B(7,11,9)       =    117.638262    -0.000003    -0.007608   117.630654
	   30 B(7,11,13)      =    121.801033     0.000002     0.003439   121.804472
	   31 B(8,5,9)        =    119.998307     0.000001     0.002473   120.000780
	   32 B(9,11,13)      =    120.560705     0.000002     0.004169   120.564874
	   33 B(9,12,14)      =    117.647590    -0.000003    -0.004026   117.643564
	   34 B(9,12,15)      =    117.688085    -0.000002    -0.003719   117.684366
	   35 B(10,7,11)      =    119.492359     0.000000    -0.000022   119.492337
	   36 B(11,9,12)      =    118.952364    -0.000002    -0.004699   118.947665
	   37 B(14,12,15)     =    124.664325     0.000006     0.007745   124.672070
	   38 D(1,2,3,4)      =    180.000000    -0.000000     0.000000   180.000000
	   39 D(1,2,3,5)      =      0.000000    -0.000000     0.000000     0.000000
	   40 D(2,3,4,6)      =      0.000000     0.000000     0.000000     0.000000
	   41 D(2,3,4,7)      =    180.000000    -0.000000     0.000000   180.000000
	   42 D(2,3,5,8)      =      0.000000     0.000000     0.000000     0.000000
	   43 D(2,3,5,9)      =    180.000000    -0.000000     0.000000   180.000000
	   44 D(3,4,7,10)     =    180.000000     0.000000     0.000000   180.000000
	   45 D(3,4,7,11)     =      0.000000     0.000000     0.000000     0.000000
	   46 D(3,5,9,11)     =      0.000000     0.000000     0.000000     0.000000
	   47 D(3,5,9,12)     =    180.000000     0.000000     0.000000   180.000000
	   48 D(4,3,5,8)      =    180.000000     0.000000     0.000000   180.000000
	   49 D(4,3,5,9)      =      0.000000    -0.000000     0.000000     0.000000
	   50 D(4,7,11,9)     =      0.000000     0.000000     0.000000     0.000000
	   51 D(4,7,11,13)    =    180.000000    -0.000000     0.000000   180.000000
	   52 D(5,3,4,6)      =    180.000000    -0.000000     0.000000   180.000000
	   53 D(5,3,4,7)      =      0.000000    -0.000000     0.000000     0.000000
	   54 D(5,9,11,7)     =      0.000000    -0.000000     0.000000     0.000000
	   55 D(5,9,11,13)    =    180.000000    -0.000000     0.000000   180.000000
	   56 D(5,9,12,14)    =      0.000000    -0.000000     0.000000     0.000000
	   57 D(5,9,12,15)    =    180.000000     0.000000     0.000000   180.000000
	   58 D(6,4,7,10)     =      0.000000     0.000000     0.000000     0.000000
	   59 D(6,4,7,11)     =    180.000000     0.000000     0.000000   180.000000
	   60 D(7,11,9,12)    =    180.000000    -0.000000     0.000000   180.000000
	   61 D(8,5,9,11)     =    180.000000     0.000000     0.000000   180.000000
	   62 D(8,5,9,12)     =      0.000000     0.000000     0.000000     0.000000
	   63 D(9,11,7,10)    =    180.000000     0.000000     0.000000   180.000000
	   64 D(10,7,11,13)   =      0.000000    -0.000000     0.000000     0.000000
	   65 D(11,9,12,14)   =    180.000000    -0.000000     0.000000   180.000000
	   66 D(11,9,12,15)   =      0.000000     0.000000     0.000000     0.000000
	   67 D(12,9,11,13)   =      0.000000    -0.000000     0.000000     0.000000
	 ---------------------------------------------------------------------------

  ==> Convergence Check <==

  Measures of convergence in internal coordinates in au.
  Criteria marked as inactive (o), active & met (*), and active & unmet ( ).
  ---------------------------------------------------------------------------------------------
   Step     Total Energy     Delta E     MAX Force     RMS Force      MAX Disp      RMS Disp   
  ---------------------------------------------------------------------------------------------
    Convergence Criteria    1.00e-06 *    3.00e-04 *             o    1.20e-03 *             o
  ---------------------------------------------------------------------------------------------
      3    -509.02776879   -3.70e-07 *    8.44e-05 *    2.54e-05 o    1.60e-04 *    5.37e-05 o  ~
  ---------------------------------------------------------------------------------------------


  **** Optimization is complete! (in 3 steps) ****

  ==> Optimization Summary <==

  Measures of convergence in internal coordinates in au.
  --------------------------------------------------------------------------------------------------------------- ~
   Step         Total Energy             Delta E       MAX Force       RMS Force        MAX Disp        RMS Disp  ~
  --------------------------------------------------------------------------------------------------------------- ~
      1    -509.027766509556   -509.027766509556      0.00075352      0.00017926      0.00220952      0.00045275  ~
      2    -509.027768421630     -0.000001912074      0.00039279      0.00008280      0.00093276      0.00018465  ~
      3    -509.027768791221     -0.000000369591      0.00008442      0.00002535      0.00015983      0.00005375  ~
  --------------------------------------------------------------------------------------------------------------- ~

	Writing optimization data to binary file.
	Final energy is   -509.0277687912211
	Final (previous) structure:
	Cartesian Geometry (in Angstrom)
	    H     2.4653379762  -2.2242222557  -0.0000000000
	    O     2.7841871168  -1.3320141985   0.0000000000
	    C     1.7653124318  -0.4493638932  -0.0000000000
	    C     2.0920078343   0.9031201896   0.0000000000
	    C     0.4409305036  -0.8419778212  -0.0000000002
	    H     3.1286539663   1.1828049606   0.0000000001
	    C     1.0937115943   1.8552078968  -0.0000000000
	    H     0.1605971806  -1.8768399790  -0.0000000002
	    C    -0.5361587640   0.1404252106  -0.0000000002
	    H     1.3548973046   2.8971477988   0.0000000000
	    C    -0.2447766678   1.4860277353  -0.0000000002
	    N    -1.9356041038  -0.2803327257  -0.0000000004
	    H    -1.0303055625   2.2129037017  -0.0000000002
	    O    -2.1616944538  -1.4529006698   0.0000000003
	    O    -2.7703419729   0.5714177764   0.0000000004
	Saving final (previous) structure.
			--------------------------
			 OPTKING Finished Execution 
			--------------------------

    Final optimized geometry and variables:
    Molecular point group: c1
    Full point group: Cs

    Geometry (in Angstrom), charge = 0, multiplicity = 1:

    H            2.465337787958    -2.224222085808    -0.000000000019
    O            2.784186904201    -1.332014096823     0.000000000037
    C            1.765312297026    -0.449363858930    -0.000000000026
    C            2.092007674573     0.903120120655     0.000000000043
    C            0.440930469913    -0.841977756898    -0.000000000158
    H            3.128653727434     1.182804870318     0.000000000144
    C            1.093711510782     1.855207755095    -0.000000000019
    H            0.160597168292    -1.876839835633    -0.000000000214
    C           -0.536158723025     0.140425199916    -0.000000000221
    H            1.354897201174     2.897147577572     0.000000000034
    C           -0.244776649153     1.486027621825    -0.000000000151
    N           -1.935603956020    -0.280332704280    -0.000000000363
    H           -1.030305483791     2.212903532732    -0.000000000202
    O           -2.161694288753    -1.452900558887     0.000000000339
    O           -2.770341761322     0.571417732716     0.000000000357

	Cleaning optimization helper files.


Properties will be evaluated at   0.000000,   0.000000,   0.000000 Bohr

Properties computed using the  density matrix

  Nuclear Dipole Moment: (a.u.)
     X:     5.6943      Y:     2.0449      Z:    -0.0000

  Electronic Dipole Moment: (a.u.)
     X:    -4.2380      Y:    -1.8348      Z:    -0.0000

  Dipole Moment: (a.u.)
     X:     1.4563      Y:     0.2101      Z:    -0.0000     Total:     1.4714

  Dipole Moment: (Debye)
     X:     3.7015      Y:     0.5340      Z:    -0.0000     Total:     3.7399

  Quadrupole Moment: (Debye Ang)
    XX:   -69.1308     YY:   -47.6259     ZZ:   -57.9993
    XY:    -2.1834     XZ:     0.0000     YZ:     0.0000

  Traceless Quadrupole Moment: (Debye Ang)
    XX:   -10.8788     YY:    10.6261     ZZ:     0.2527
    XY:    -2.1834     XZ:     0.0000     YZ:     0.0000

  Mulliken Charges: (a.u.)
   Center  Symbol    Alpha    Beta     Spin     Total
       1     H     0.26725  0.26725  0.00000  0.46550
       2     O     4.37577  4.37577  0.00000 -0.75154
       3     C     2.79129  2.79129  0.00000  0.41741
       4     C     3.10849  3.10849  0.00000 -0.21697
       5     C     3.13723  3.13723  0.00000 -0.27446
       6     H     0.38086  0.38086  0.00000  0.23828
       7     C     3.10056  3.10056  0.00000 -0.20112
       8     H     0.36792  0.36792  0.00000  0.26416
       9     C     2.91369  2.91369  0.00000  0.17262
      10     H     0.38656  0.38656  0.00000  0.22688
      11     C     3.09783  3.09783  0.00000 -0.19565
      12     N     3.24017  3.24017  0.00000  0.51967
      13     H     0.36520  0.36520  0.00000  0.26960
      14     O     4.23554  4.23554  0.00000 -0.47108
      15     O     4.23164  4.23164  0.00000 -0.46328

   Total alpha = 36.00000, Total beta = 36.00000, Total charge =  0.00000


*** PSI4 exiting successfully. Buy a developer a beer!
