    -----------------------------------------------------------------------
          Psi4: An Open-Source Ab Initio Electronic Structure Package
                              Psi4 (no tag) Driver

                          Git: Rev {detached?}  

    J. M. Turney, A. C. Simmonett, R. M. Parrish, E. G. Hohenstein,
    F. A. Evangelista, J. T. Fermann, B. J. Mintz, L. A. Burns, J. J. Wilke,
    M. L. Abrams, N. J. Russ, M. L. Leininger, C. L. Janssen, E. T. Seidl,
    W. D. Allen, H. F. Schaefer, R. A. King, E. F. Valeev, C. D. Sherrill,
    and T. D. Crawford, WIREs Comput. Mol. Sci. 2, 556-565 (2012)
    (doi: 10.1002/wcms.93)

                         Additional Contributions by
    A. E. DePrince, M. Saitow, U. Bozkaya, A. Yu. Sokolov
    -----------------------------------------------------------------------


    Psi4 started on: Tue Jul  5 17:22:37 2016

    Process ID:  11980
    PSI4DATADIR: /export131/home/mjharvey/miniconda3/share
    Memory level set to 256.000 MB

  ==> Input File <==

--------------------------------------------------------------------------
set {
	reference rhf
	basis 6-31G*
}


set_num_threads( 1 )
memory 2 gb

molecule MOL {
0 1

H	 -0.768232	 -3.173763	 -0.118614
O	 -0.458550	 -2.426636	 0.384031
C	 0.102382	 -1.563045	 -0.462125
C	 0.624473	 -0.343591	 0.253101
O	 0.161140	 -1.771205	 -1.630129
C	 -0.265902	 0.883932	 0.072916
H	 0.740303	 -0.614115	 1.297502
H	 1.628992	 -0.158063	 -0.118751
C	 -1.728698	 0.646073	 0.462102
H	 -0.209144	 1.219470	 -0.958188
H	 0.135059	 1.692851	 0.673903
C	 -1.933463	 -0.055758	 1.807637
H	 -2.191054	 0.043809	 -0.316529
H	 -2.262759	 1.595242	 0.465784
C	 -1.105121	 0.571202	 2.928908
H	 -2.987870	 -0.018849	 2.073919
H	 -1.675047	 -1.108293	 1.725337
H	 -1.265435	 0.056496	 3.871082
H	 -1.367390	 1.615363	 3.073030
H	 -0.043259	 0.525961	 2.703877

	symmetry c1
}
set optking {
	frozen_dihedral = ("
		16 12 9 6,
		7 4 6 10,
		12 9 6 10,
		1 2 3 5
	")
}

ee = energy('scf')
oeprop('DIPOLE', 'QUADRUPOLE', 'MULLIKEN_CHARGES')
f=open( 'psi4out.xyz', 'w' )
f.write( "20  " )
f.write( str(ee) + "\n" )
f.write( MOL.save_string_xyz() )
f.close()
--------------------------------------------------------------------------

  Memory set to   2.000 GiB by Python script.

*** tstart() called on cx1-1-1-2.cx1.hpc.ic.ac.uk
*** at Tue Jul  5 17:22:38 2016


         ---------------------------------------------------------
                                   SCF
            by Justin Turney, Rob Parrish, and Andy Simmonett
                              RHF Reference
                        1 Threads,   2000 MiB Core
         ---------------------------------------------------------

  ==> Geometry <==

    Molecular point group: c1
    Full point group: C1

    Geometry (in Angstrom), charge = 0, multiplicity = 1:

       Center              X                  Y                   Z               Mass       
    ------------   -----------------  -----------------  -----------------  -----------------
           H         -0.192964800460    -2.624253366036    -0.595029197693     1.007825032070
           O          0.116717199540    -1.877126366036    -0.092384197693    15.994914619560
           C          0.677649199540    -1.013535366036    -0.938540197693    12.000000000000
           C          1.199740199540     0.205918633964    -0.223314197693    12.000000000000
           O          0.736407199540    -1.221695366036    -2.106544197693    15.994914619560
           C          0.309365199540     1.433441633964    -0.403499197693    12.000000000000
           H          1.315570199540    -0.064605366036     0.821086802307     1.007825032070
           H          2.204259199540     0.391446633964    -0.595166197693     1.007825032070
           C         -1.153430800460     1.195582633964    -0.014313197693    12.000000000000
           H          0.366123199540     1.768979633964    -1.434603197693     1.007825032070
           H          0.710326199540     2.242360633964     0.197487802307     1.007825032070
           C         -1.358195800460     0.493751633964     1.331221802307    12.000000000000
           H         -1.615786800460     0.593318633964    -0.792944197693     1.007825032070
           H         -1.687491800460     2.144751633964    -0.010631197693     1.007825032070
           C         -0.529853800460     1.120711633964     2.452492802307    12.000000000000
           H         -2.412602800460     0.530660633964     1.597503802307     1.007825032070
           H         -1.099779800460    -0.558783366036     1.248921802307     1.007825032070
           H         -0.690167800460     0.606005633964     3.394666802307     1.007825032070
           H         -0.792122800460     2.164872633964     2.596614802307     1.007825032070
           H          0.532008199540     1.075470633964     2.227461802307     1.007825032070

  Running in c1 symmetry.

  Rotational constants: A =      0.11080  B =      0.04374  C =      0.03898 [cm^-1]
  Rotational constants: A =   3321.81864  B =   1311.22573  C =   1168.56843 [MHz]
  Nuclear repulsion =  403.114057106290204

  Charge       = 0
  Multiplicity = 1
  Electrons    = 64
  Nalpha       = 32
  Nbeta        = 32

  ==> Algorithm <==

  SCF Algorithm Type is DF.
  DIIS enabled.
  MOM disabled.
  Fractional occupation disabled.
  Guess Type is CORE.
  Energy threshold   = 1.00e-06
  Density threshold  = 1.00e-06
  Integral threshold = 0.00e+00

  ==> Primary Basis <==

  Basis Set: 6-31G*
    Number of shells: 72
    Number of basis function: 144
    Number of Cartesian functions: 144
    Spherical Harmonics?: false
    Max angular momentum: 2

  ==> Pre-Iterations <==

   -------------------------------------------------------
    Irrep   Nso     Nmo     Nalpha   Nbeta   Ndocc  Nsocc
   -------------------------------------------------------
     A        144     144       0       0       0       0
   -------------------------------------------------------
    Total     144     144      32      32      32       0
   -------------------------------------------------------

 OEINTS: Overlap, kinetic, potential, dipole, and quadrupole integrals
         stored in file 35.

  ==> Integral Setup <==

  ==> DFJK: Density-Fitted J/K Matrices <==

    J tasked:                  Yes
    K tasked:                  Yes
    wK tasked:                  No
    OpenMP threads:              1
    Integrals threads:           1
    Memory (MB):              1430
    Algorithm:                Core
    Integral Cache:           NONE
    Schwarz Cutoff:          1E-12
    Fitting Condition:       1E-12

   => Auxiliary Basis Set <=

  Basis Set: 
    Number of shells: 300
    Number of basis function: 948
    Number of Cartesian functions: 948
    Spherical Harmonics?: false
    Max angular momentum: 3

  Minimum eigenvalue in the overlap matrix is 2.8279943571E-03.
  Using Symmetric Orthogonalization.
  SCF Guess: Core (One-Electron) Hamiltonian.

  ==> Iterations <==

                           Total Energy        Delta E     RMS |[F,P]|

   @DF-RHF iter   1:  -301.21417534004780   -3.01214e+02   6.35496e-02 
   @DF-RHF iter   2:  -158.21747510014910    1.42997e+02   8.24653e-02 DIIS
   @DF-RHF iter   3:  -350.22920380945533   -1.92012e+02   3.18944e-02 DIIS
   @DF-RHF iter   4:  -248.23508644286431    1.01994e+02   7.46366e-02 DIIS
   @DF-RHF iter   5:  -312.61252173146130   -6.43774e+01   5.81432e-02 DIIS
   @DF-RHF iter   6:  -347.70668662122540   -3.50942e+01   4.29350e-02 DIIS
   @DF-RHF iter   7:  -363.12171570337858   -1.54150e+01   3.05522e-02 DIIS
   @DF-RHF iter   8:  -379.73986346672012   -1.66181e+01   1.50430e-02 DIIS
   @DF-RHF iter   9:  -383.61093422156938   -3.87107e+00   5.96179e-03 DIIS
   @DF-RHF iter  10:  -383.91742544490745   -3.06491e-01   1.17077e-03 DIIS
   @DF-RHF iter  11:  -383.93333751876838   -1.59121e-02   4.66929e-04 DIIS
   @DF-RHF iter  12:  -383.93629694285670   -2.95942e-03   1.80493e-04 DIIS
   @DF-RHF iter  13:  -383.93675352102406   -4.56578e-04   4.41754e-05 DIIS
   @DF-RHF iter  14:  -383.93679731719300   -4.37962e-05   1.56409e-05 DIIS
   @DF-RHF iter  15:  -383.93680205690993   -4.73972e-06   6.53837e-06 DIIS
   @DF-RHF iter  16:  -383.93680313970850   -1.08280e-06   2.55284e-06 DIIS
   @DF-RHF iter  17:  -383.93680325654412   -1.16836e-07   7.39061e-07 DIIS

  ==> Post-Iterations <==

    Orbital Energies (a.u.)
    -----------------------

    Doubly Occupied:                                                      

       1A    -20.616194     2A    -20.551194     3A    -11.381608  
       4A    -11.238329     5A    -11.231421     6A    -11.219951  
       7A    -11.212150     8A    -11.209409     9A     -1.477149  
      10A     -1.366919    11A     -1.102832    12A     -1.033346  
      13A     -0.958141    14A     -0.884228    15A     -0.818822  
      16A     -0.765599    17A     -0.706535    18A     -0.689726  
      19A     -0.660955    20A     -0.635859    21A     -0.614206  
      22A     -0.591997    23A     -0.564726    24A     -0.563760  
      25A     -0.528877    26A     -0.525521    27A     -0.514289  
      28A     -0.475818    29A     -0.464662    30A     -0.458394  
      31A     -0.457417    32A     -0.437392  

    Virtual:                                                              

      33A      0.185213    34A      0.223670    35A      0.241582  
      36A      0.262434    37A      0.284010    38A      0.290643  
      39A      0.302451    40A      0.313588    41A      0.327332  
      42A      0.335161    43A      0.357937    44A      0.374613  
      45A      0.377437    46A      0.396364    47A      0.399656  
      48A      0.422441    49A      0.436715    50A      0.501837  
      51A      0.526992    52A      0.557207    53A      0.703423  
      54A      0.715173    55A      0.720039    56A      0.743407  
      57A      0.766253    58A      0.774736    59A      0.841358  
      60A      0.854490    61A      0.895540    62A      0.899191  
      63A      0.924303    64A      0.948211    65A      0.966104  
      66A      0.973630    67A      1.006424    68A      1.041140  
      69A      1.061486    70A      1.095634    71A      1.099700  
      72A      1.124679    73A      1.140241    74A      1.159683  
      75A      1.172090    76A      1.183842    77A      1.199469  
      78A      1.210233    79A      1.220191    80A      1.236709  
      81A      1.244662    82A      1.257548    83A      1.262984  
      84A      1.287157    85A      1.316015    86A      1.343979  
      87A      1.370393    88A      1.381859    89A      1.417348  
      90A      1.500696    91A      1.599697    92A      1.637317  
      93A      1.680644    94A      1.693991    95A      1.735425  
      96A      1.764221    97A      1.832588    98A      1.880288  
      99A      1.901699   100A      1.943469   101A      1.968298  
     102A      2.029955   103A      2.068815   104A      2.106011  
     105A      2.126245   106A      2.132219   107A      2.152625  
     108A      2.214577   109A      2.258046   110A      2.285996  
     111A      2.301230   112A      2.312984   113A      2.342962  
     114A      2.362760   115A      2.426982   116A      2.439621  
     117A      2.501722   118A      2.575166   119A      2.628167  
     120A      2.673424   121A      2.679387   122A      2.697243  
     123A      2.724498   124A      2.750680   125A      2.778004  
     126A      2.835824   127A      2.856231   128A      2.916582  
     129A      2.998158   130A      3.002451   131A      3.075481  
     132A      3.115934   133A      3.143994   134A      3.232873  
     135A      3.380055   136A      3.479967   137A      4.313133  
     138A      4.518985   139A      4.587668   140A      4.674758  
     141A      4.792820   142A      4.830626   143A      4.931205  
     144A      5.059903  

    Final Occupation by Irrep:
              A 
    DOCC [    32 ]

  Energy converged.

  @DF-RHF Final Energy:  -383.93680325654412

   => Energetics <=

    Nuclear Repulsion Energy =            403.1140571062902040
    One-Electron Energy =               -1322.1870523997304190
    Two-Electron Energy =                 535.1361920368965457
    DFT Exchange-Correlation Energy =       0.0000000000000000
    Empirical Dispersion Energy =           0.0000000000000000
    PCM Polarization Energy =               0.0000000000000000
    EFP Energy =                            0.0000000000000000
    Total Energy =                       -383.9368032565437261

    Alert: EFP and PCM quantities not currently incorporated into SCF psivars.

Properties will be evaluated at   0.000000,   0.000000,   0.000000 Bohr
  ==> Properties <==


Properties computed using the SCF density matrix

  Nuclear Dipole Moment: (a.u.)
     X:    -3.1483      Y:     7.7382      Z:     8.1036

  Electronic Dipole Moment: (a.u.)
     X:     3.0237      Y:    -7.6474      Z:    -7.4443

  Dipole Moment: (a.u.)
     X:    -0.1246      Y:     0.0908      Z:     0.6593     Total:     0.6770

  Dipole Moment: (Debye)
     X:    -0.3166      Y:     0.2308      Z:     1.6756     Total:     1.7208


  Saving occupied orbitals to File 180.

*** tstop() called on cx1-1-1-2.cx1.hpc.ic.ac.uk at Tue Jul  5 17:22:56 2016
Module time:
	user time   =      18.26 seconds =       0.30 minutes
	system time =       0.22 seconds =       0.00 minutes
	total time  =         18 seconds =       0.30 minutes
Total time:
	user time   =      18.26 seconds =       0.30 minutes
	system time =       0.22 seconds =       0.00 minutes
	total time  =         18 seconds =       0.30 minutes


Properties will be evaluated at   0.000000,   0.000000,   0.000000 Bohr

Properties computed using the  density matrix

  Nuclear Dipole Moment: (a.u.)
     X:    -3.1483      Y:     7.7382      Z:     8.1036

  Electronic Dipole Moment: (a.u.)
     X:     3.0237      Y:    -7.6474      Z:    -7.4443

  Dipole Moment: (a.u.)
     X:    -0.1246      Y:     0.0908      Z:     0.6593     Total:     0.6770

  Dipole Moment: (Debye)
     X:    -0.3166      Y:     0.2308      Z:     1.6756     Total:     1.7208

  Quadrupole Moment: (Debye Ang)
    XX:   -49.0731     YY:   -45.9236     ZZ:   -58.8924
    XY:     2.0323     XZ:     2.3506     YZ:    -1.6001

  Traceless Quadrupole Moment: (Debye Ang)
    XX:     2.2233     YY:     5.3728     ZZ:    -7.5960
    XY:     2.0323     XZ:     2.3506     YZ:    -1.6001

  Mulliken Charges: (a.u.)
   Center  Symbol    Alpha    Beta     Spin     Total
       1     H     0.26824  0.26824  0.00000  0.46352
       2     O     4.34751  4.34751  0.00000 -0.69503
       3     C     2.62629  2.62629  0.00000  0.74742
       4     C     3.21315  3.21315  0.00000 -0.42631
       5     O     4.27890  4.27890  0.00000 -0.55779
       6     C     3.16350  3.16350  0.00000 -0.32700
       7     H     0.39752  0.39752  0.00000  0.20496
       8     H     0.39627  0.39627  0.00000  0.20747
       9     C     3.16329  3.16329  0.00000 -0.32659
      10     H     0.40497  0.40497  0.00000  0.19005
      11     H     0.41178  0.41178  0.00000  0.17644
      12     C     3.16950  3.16950  0.00000 -0.33899
      13     H     0.41728  0.41728  0.00000  0.16544
      14     H     0.41702  0.41702  0.00000  0.16596
      15     C     3.24212  3.24212  0.00000 -0.48424
      16     H     0.41988  0.41988  0.00000  0.16025
      17     H     0.39876  0.39876  0.00000  0.20248
      18     H     0.41788  0.41788  0.00000  0.16424
      19     H     0.42254  0.42254  0.00000  0.15492
      20     H     0.42360  0.42360  0.00000  0.15281

   Total alpha = 32.00000, Total beta = 32.00000, Total charge = -0.00000


*** PSI4 exiting successfully. Buy a developer a beer!
