    -----------------------------------------------------------------------
          Psi4: An Open-Source Ab Initio Electronic Structure Package
                              Psi4 (no tag) Driver

                          Git: Rev {detached?}  

    J. M. Turney, A. C. Simmonett, R. M. Parrish, E. G. Hohenstein,
    F. A. Evangelista, J. T. Fermann, B. J. Mintz, L. A. Burns, J. J. Wilke,
    M. L. Abrams, N. J. Russ, M. L. Leininger, C. L. Janssen, E. T. Seidl,
    W. D. Allen, H. F. Schaefer, R. A. King, E. F. Valeev, C. D. Sherrill,
    and T. D. Crawford, WIREs Comput. Mol. Sci. 2, 556-565 (2012)
    (doi: 10.1002/wcms.93)

                         Additional Contributions by
    A. E. DePrince, M. Saitow, U. Bozkaya, A. Yu. Sokolov
    -----------------------------------------------------------------------


    Psi4 started on: Tue Jul  5 16:31:29 2016

    Process ID:  15611
    PSI4DATADIR: /export131/home/mjharvey/miniconda3/share
    Memory level set to 256.000 MB

  ==> Input File <==

--------------------------------------------------------------------------
set {
	reference rhf
	basis 6-31G*
}


set_num_threads( 1 )
memory 2 gb

molecule MOL {
0 1

O	 0.960140	 -1.775205	 -1.905696
C	 0.218458	 -1.507699	 -1.017032
C	 -1.196338	 -2.002449	 -0.889986
O	 0.550821	 -0.724572	 0.000672
H	 -1.309703	 -2.553234	 0.036550
H	 -1.434438	 -2.637619	 -1.730081
H	 -1.876906	 -1.159667	 -0.856450
C	 1.863949	 -0.193559	 -0.000319
H	 2.028859	 0.409284	 -0.881648
H	 2.526261	 -1.045082	 -0.000003
H	 2.029520	 0.410555	 0.880008

	symmetry c1
}
set optking {
	frozen_dihedral = ("
		8 4 2 1
	")
}

ee = energy('scf')
oeprop('DIPOLE', 'QUADRUPOLE', 'MULLIKEN_CHARGES')
f=open( 'psi4out.xyz', 'w' )
f.write( "11  " )
f.write( str(ee) + "\n" )
f.write( MOL.save_string_xyz() )
f.close()
--------------------------------------------------------------------------

  Memory set to   2.000 GiB by Python script.

*** tstart() called on cx1-1-4-3.cx1.hpc.ic.ac.uk
*** at Tue Jul  5 16:31:29 2016


         ---------------------------------------------------------
                                   SCF
            by Justin Turney, Rob Parrish, and Andy Simmonett
                              RHF Reference
                        1 Threads,   2000 MiB Core
         ---------------------------------------------------------

  ==> Geometry <==

    Molecular point group: c1
    Full point group: C1

    Geometry (in Angstrom), charge = 0, multiplicity = 1:

       Center              X                  Y                   Z               Mass       
    ------------   -----------------  -----------------  -----------------  -----------------
           O          0.463366927899    -0.545337588986    -1.150256187554    15.994914619560
           C         -0.278315072101    -0.277831588986    -0.261592187554    12.000000000000
           C         -1.693111072101    -0.772581588986    -0.134546187554    12.000000000000
           O          0.054047927899     0.505295411014     0.756111812446    15.994914619560
           H         -1.806476072101    -1.323366588986     0.791989812446     1.007825032070
           H         -1.931211072101    -1.407751588986    -0.974641187554     1.007825032070
           H         -2.373679072101     0.070200411014    -0.101010187554     1.007825032070
           C          1.367175927899     1.036308411014     0.755120812446    12.000000000000
           H          1.532085927899     1.639151411014    -0.126208187554     1.007825032070
           H          2.029487927899     0.184785411014     0.755436812446     1.007825032070
           H          1.532746927899     1.640422411014     1.635447812446     1.007825032070

  Running in c1 symmetry.

  Rotational constants: A =      0.35158  B =      0.14032  C =      0.10416 [cm^-1]
  Rotational constants: A =  10540.05401  B =   4206.71037  C =   3122.66973 [MHz]
  Nuclear repulsion =  183.414170206056156

  Charge       = 0
  Multiplicity = 1
  Electrons    = 40
  Nalpha       = 20
  Nbeta        = 20

  ==> Algorithm <==

  SCF Algorithm Type is DF.
  DIIS enabled.
  MOM disabled.
  Fractional occupation disabled.
  Guess Type is CORE.
  Energy threshold   = 1.00e-06
  Density threshold  = 1.00e-06
  Integral threshold = 0.00e+00

  ==> Primary Basis <==

  Basis Set: 6-31G*
    Number of shells: 42
    Number of basis function: 87
    Number of Cartesian functions: 87
    Spherical Harmonics?: false
    Max angular momentum: 2

  ==> Pre-Iterations <==

   -------------------------------------------------------
    Irrep   Nso     Nmo     Nalpha   Nbeta   Ndocc  Nsocc
   -------------------------------------------------------
     A         87      87       0       0       0       0
   -------------------------------------------------------
    Total      87      87      20      20      20       0
   -------------------------------------------------------

 OEINTS: Overlap, kinetic, potential, dipole, and quadrupole integrals
         stored in file 35.

  ==> Integral Setup <==

  ==> DFJK: Density-Fitted J/K Matrices <==

    J tasked:                  Yes
    K tasked:                  Yes
    wK tasked:                  No
    OpenMP threads:              1
    Integrals threads:           1
    Memory (MB):              1430
    Algorithm:                Core
    Integral Cache:           NONE
    Schwarz Cutoff:          1E-12
    Fitting Condition:       1E-12

   => Auxiliary Basis Set <=

  Basis Set: 
    Number of shells: 174
    Number of basis function: 555
    Number of Cartesian functions: 555
    Spherical Harmonics?: false
    Max angular momentum: 3

  Minimum eigenvalue in the overlap matrix is 3.9268132386E-03.
  Using Symmetric Orthogonalization.
  SCF Guess: Core (One-Electron) Hamiltonian.

  ==> Iterations <==

                           Total Energy        Delta E     RMS |[F,P]|

   @DF-RHF iter   1:  -212.75736388870200   -2.12757e+02   8.81027e-02 
   @DF-RHF iter   2:  -209.99204927393413    2.76531e+00   6.22232e-02 DIIS
   @DF-RHF iter   3:  -240.29203326683347   -3.03000e+01   6.63381e-02 DIIS
   @DF-RHF iter   4:  -257.55866370537535   -1.72666e+01   4.28224e-02 DIIS
   @DF-RHF iter   5:  -263.45956454142146   -5.90090e+00   2.24985e-02 DIIS
   @DF-RHF iter   6:  -266.24504279857462   -2.78548e+00   1.21092e-02 DIIS
   @DF-RHF iter   7:  -266.80411895491477   -5.59076e-01   2.44034e-03 DIIS
   @DF-RHF iter   8:  -266.83068830362089   -2.65693e-02   1.01831e-03 DIIS
   @DF-RHF iter   9:  -266.83411976676973   -3.43146e-03   4.05844e-04 DIIS
   @DF-RHF iter  10:  -266.83474199816857   -6.22231e-04   9.46132e-05 DIIS
   @DF-RHF iter  11:  -266.83479470212916   -5.27040e-05   2.31633e-05 DIIS
   @DF-RHF iter  12:  -266.83479755001588   -2.84789e-06   8.02958e-06 DIIS
   @DF-RHF iter  13:  -266.83479788018212   -3.30166e-07   2.06801e-06 DIIS
   @DF-RHF iter  14:  -266.83479790857149   -2.83894e-08   4.60233e-07 DIIS

  ==> Post-Iterations <==

    Orbital Energies (a.u.)
    -----------------------

    Doubly Occupied:                                                      

       1A    -20.604989     2A    -20.546482     3A    -11.376872  
       4A    -11.282168     5A    -11.234831     6A     -1.471169  
       7A     -1.364385     8A     -1.035855     9A     -0.952437  
      10A     -0.777378    11A     -0.695743    12A     -0.683093  
      13A     -0.677670    14A     -0.595945    15A     -0.592883  
      16A     -0.562948    17A     -0.524578    18A     -0.518640  
      19A     -0.457411    20A     -0.442688  

    Virtual:                                                              

      21A      0.197453    22A      0.249093    23A      0.266013  
      24A      0.295730    25A      0.310774    26A      0.314172  
      27A      0.341176    28A      0.350654    29A      0.411287  
      30A      0.501592    31A      0.547618    32A      0.723441  
      33A      0.732532    34A      0.754155    35A      0.770903  
      36A      0.812870    37A      0.818064    38A      0.853643  
      39A      0.929369    40A      0.988386    41A      1.048694  
      42A      1.102500    43A      1.110817    44A      1.125860  
      45A      1.137447    46A      1.186029    47A      1.195005  
      48A      1.211550    49A      1.229393    50A      1.280281  
      51A      1.364988    52A      1.376560    53A      1.379268  
      54A      1.499134    55A      1.641091    56A      1.655600  
      57A      1.729805    58A      1.802401    59A      1.814678  
      60A      1.934191    61A      2.000756    62A      2.060745  
      63A      2.100179    64A      2.152261    65A      2.208407  
      66A      2.292235    67A      2.345320    68A      2.384547  
      69A      2.448193    70A      2.483262    71A      2.535488  
      72A      2.556206    73A      2.661751    74A      2.700399  
      75A      2.721037    76A      2.822431    77A      2.953676  
      78A      3.057091    79A      3.129205    80A      3.340152  
      81A      3.400374    82A      3.545967    83A      4.412354  
      84A      4.510108    85A      4.596330    86A      4.691377  
      87A      4.884953  

    Final Occupation by Irrep:
              A 
    DOCC [    20 ]

  Energy converged.

  @DF-RHF Final Energy:  -266.83479790857149

   => Energetics <=

    Nuclear Repulsion Energy =            183.4141702060561556
    One-Electron Energy =                -727.7017225405526233
    Two-Electron Energy =                 277.4527544259250362
    DFT Exchange-Correlation Energy =       0.0000000000000000
    Empirical Dispersion Energy =           0.0000000000000000
    PCM Polarization Energy =               0.0000000000000000
    EFP Energy =                            0.0000000000000000
    Total Energy =                       -266.8347979085714314

    Alert: EFP and PCM quantities not currently incorporated into SCF psivars.

Properties will be evaluated at   0.000000,   0.000000,   0.000000 Bohr
  ==> Properties <==


Properties computed using the SCF density matrix

  Nuclear Dipole Moment: (a.u.)
     X:    -0.9510      Y:     0.7530      Z:     1.8552

  Electronic Dipole Moment: (a.u.)
     X:     0.6694      Y:    -0.4405      Z:    -1.1922

  Dipole Moment: (a.u.)
     X:    -0.2815      Y:     0.3125      Z:     0.6631     Total:     0.7852

  Dipole Moment: (Debye)
     X:    -0.7156      Y:     0.7942      Z:     1.6853     Total:     1.9958


  Saving occupied orbitals to File 180.

*** tstop() called on cx1-1-4-3.cx1.hpc.ic.ac.uk at Tue Jul  5 16:31:33 2016
Module time:
	user time   =       3.70 seconds =       0.06 minutes
	system time =       0.03 seconds =       0.00 minutes
	total time  =          4 seconds =       0.07 minutes
Total time:
	user time   =       3.70 seconds =       0.06 minutes
	system time =       0.03 seconds =       0.00 minutes
	total time  =          4 seconds =       0.07 minutes


Properties will be evaluated at   0.000000,   0.000000,   0.000000 Bohr

Properties computed using the  density matrix

  Nuclear Dipole Moment: (a.u.)
     X:    -0.9510      Y:     0.7530      Z:     1.8552

  Electronic Dipole Moment: (a.u.)
     X:     0.6694      Y:    -0.4405      Z:    -1.1922

  Dipole Moment: (a.u.)
     X:    -0.2815      Y:     0.3125      Z:     0.6631     Total:     0.7852

  Dipole Moment: (Debye)
     X:    -0.7156      Y:     0.7942      Z:     1.6853     Total:     1.9958

  Quadrupole Moment: (Debye Ang)
    XX:   -26.2853     YY:   -28.4627     ZZ:   -33.2437
    XY:     3.2730     XZ:     3.3211     YZ:    -1.3815

  Traceless Quadrupole Moment: (Debye Ang)
    XX:     3.0453     YY:     0.8679     ZZ:    -3.9131
    XY:     3.2730     XZ:     3.3211     YZ:    -1.3815

  Mulliken Charges: (a.u.)
   Center  Symbol    Alpha    Beta     Spin     Total
       1     O     4.28193  4.28193  0.00000 -0.56385
       2     C     2.62249  2.62249  0.00000  0.75503
       3     C     3.28153  3.28153  0.00000 -0.56307
       4     O     4.30026  4.30026  0.00000 -0.60052
       5     H     0.39988  0.39988  0.00000  0.20024
       6     H     0.39659  0.39659  0.00000  0.20682
       7     H     0.39982  0.39982  0.00000  0.20036
       8     C     3.09301  3.09301  0.00000 -0.18602
       9     H     0.40859  0.40859  0.00000  0.18282
      10     H     0.40871  0.40871  0.00000  0.18258
      11     H     0.40719  0.40719  0.00000  0.18561

   Total alpha = 20.00000, Total beta = 20.00000, Total charge =  0.00000


*** PSI4 exiting successfully. Buy a developer a beer!
