    -----------------------------------------------------------------------
          Psi4: An Open-Source Ab Initio Electronic Structure Package
                              Psi4 (no tag) Driver

                          Git: Rev {detached?}  

    J. M. Turney, A. C. Simmonett, R. M. Parrish, E. G. Hohenstein,
    F. A. Evangelista, J. T. Fermann, B. J. Mintz, L. A. Burns, J. J. Wilke,
    M. L. Abrams, N. J. Russ, M. L. Leininger, C. L. Janssen, E. T. Seidl,
    W. D. Allen, H. F. Schaefer, R. A. King, E. F. Valeev, C. D. Sherrill,
    and T. D. Crawford, WIREs Comput. Mol. Sci. 2, 556-565 (2012)
    (doi: 10.1002/wcms.93)

                         Additional Contributions by
    A. E. DePrince, M. Saitow, U. Bozkaya, A. Yu. Sokolov
    -----------------------------------------------------------------------


    Psi4 started on: Tue Jul  5 17:45:15 2016

    Process ID:  23781
    PSI4DATADIR: /export131/home/mjharvey/miniconda3/share
    Memory level set to 256.000 MB

  ==> Input File <==

--------------------------------------------------------------------------
set {
	reference rhf
	basis 6-31G*
}


set_num_threads( 1 )
memory 2 gb

molecule MOL {
0 1

H	 -3.489899	 1.228218	 -1.029938
O	 -3.452007	 0.283848	 -0.965577
C	 -3.181085	 -0.079926	 0.364119
C	 -1.765924	 0.277073	 0.805136
H	 -3.327791	 -1.152017	 0.410903
H	 -3.905698	 0.375695	 1.036898
C	 -1.651217	 1.673921	 1.416835
H	 -1.419356	 -0.467694	 1.522196
H	 -1.107609	 0.195539	 -0.058110
C	 -1.891311	 2.794742	 0.403279
H	 -0.668225	 1.787943	 1.863416
H	 -2.368430	 1.764104	 2.231001
C	 -3.146618	 2.569666	 -0.443852
H	 -1.965762	 3.741114	 0.933617
H	 -1.026673	 2.880188	 -0.253763
C	 -3.068977	 1.374634	 -1.400944
H	 -3.362226	 3.471975	 -1.013981
H	 -3.994217	 2.423262	 0.222450
C	 -4.403225	 0.983030	 -2.038780
H	 -2.680948	 0.519416	 -0.852924
H	 -2.343244	 1.587193	 -2.183461
H	 -5.152817	 0.776669	 -1.279395
H	 -4.293164	 0.088714	 -2.644522
H	 -4.791183	 1.765403	 -2.682631

	symmetry c1
}
set optking {
	frozen_dihedral = ("
		20 16 13 17,
		17 13 10 7,
		13 10 7 11,
		11 7 4 3,
		1 2 3 5
	")
}

ee = energy('scf')
oeprop('DIPOLE', 'QUADRUPOLE', 'MULLIKEN_CHARGES')
f=open( 'psi4out.xyz', 'w' )
f.write( "24  " )
f.write( str(ee) + "\n" )
f.write( MOL.save_string_xyz() )
f.close()
--------------------------------------------------------------------------

  Memory set to   2.000 GiB by Python script.

*** tstart() called on cx1-1-3-2.cx1.hpc.ic.ac.uk
*** at Tue Jul  5 17:45:15 2016


         ---------------------------------------------------------
                                   SCF
            by Justin Turney, Rob Parrish, and Andy Simmonett
                              RHF Reference
                        1 Threads,   2000 MiB Core
         ---------------------------------------------------------

  ==> Geometry <==

    Molecular point group: c1
    Full point group: C1

    Geometry (in Angstrom), charge = 0, multiplicity = 1:

       Center              X                  Y                   Z               Mass       
    ------------   -----------------  -----------------  -----------------  -----------------
           H         -0.641372452780     0.015613790026    -0.771734548171     1.007825032070
           O         -0.603480452780    -0.928756209974    -0.707373548171    15.994914619560
           C         -0.332558452780    -1.292530209974     0.622322451829    12.000000000000
           C          1.082602547220    -0.935531209974     1.063339451829    12.000000000000
           H         -0.479264452780    -2.364621209974     0.669106451829     1.007825032070
           H         -1.057171452780    -0.836909209974     1.295101451829     1.007825032070
           C          1.197309547220     0.461316790026     1.675038451829    12.000000000000
           H          1.429170547220    -1.680298209974     1.780399451829     1.007825032070
           H          1.740917547220    -1.017065209974     0.200093451829     1.007825032070
           C          0.957215547220     1.582137790026     0.661482451829    12.000000000000
           H          2.180301547220     0.575338790026     2.121619451829     1.007825032070
           H          0.480096547220     0.551499790026     2.489204451829     1.007825032070
           C         -0.298091452780     1.357061790026    -0.185648548171    12.000000000000
           H          0.882764547220     2.528509790026     1.191820451829     1.007825032070
           H          1.821853547220     1.667583790026     0.004440451829     1.007825032070
           C         -0.220450452780     0.162029790026    -1.142740548171    12.000000000000
           H         -0.513699452780     2.259370790026    -0.755777548171     1.007825032070
           H         -1.145690452780     1.210657790026     0.480653451829     1.007825032070
           C         -1.554698452780    -0.229574209974    -1.780576548171    12.000000000000
           H          0.167578547220    -0.693188209974    -0.594720548171     1.007825032070
           H          0.505282547220     0.374588790026    -1.925257548171     1.007825032070
           H         -2.304290452780    -0.435935209974    -1.021191548171     1.007825032070
           H         -1.444637452780    -1.123890209974    -2.386318548171     1.007825032070
           H         -1.942656452780     0.552798790026    -2.424427548171     1.007825032070

  Running in c1 symmetry.

  Rotational constants: A =      0.11398  B =      0.06293  C =      0.04543 [cm^-1]
  Rotational constants: A =   3417.12225  B =   1886.48675  C =   1361.92115 [MHz]
  Nuclear repulsion =  475.621853131782188

  Charge       = 0
  Multiplicity = 1
  Electrons    = 66
  Nalpha       = 33
  Nbeta        = 33

  ==> Algorithm <==

  SCF Algorithm Type is DF.
  DIIS enabled.
  MOM disabled.
  Fractional occupation disabled.
  Guess Type is CORE.
  Energy threshold   = 1.00e-06
  Density threshold  = 1.00e-06
  Integral threshold = 0.00e+00

  ==> Primary Basis <==

  Basis Set: 6-31G*
    Number of shells: 80
    Number of basis function: 152
    Number of Cartesian functions: 152
    Spherical Harmonics?: false
    Max angular momentum: 2

  ==> Pre-Iterations <==

   -------------------------------------------------------
    Irrep   Nso     Nmo     Nalpha   Nbeta   Ndocc  Nsocc
   -------------------------------------------------------
     A        152     152       0       0       0       0
   -------------------------------------------------------
    Total     152     152      33      33      33       0
   -------------------------------------------------------

 OEINTS: Overlap, kinetic, potential, dipole, and quadrupole integrals
         stored in file 35.

  ==> Integral Setup <==

  ==> DFJK: Density-Fitted J/K Matrices <==

    J tasked:                  Yes
    K tasked:                  Yes
    wK tasked:                  No
    OpenMP threads:              1
    Integrals threads:           1
    Memory (MB):              1430
    Algorithm:                Core
    Integral Cache:           NONE
    Schwarz Cutoff:          1E-12
    Fitting Condition:       1E-12

   => Auxiliary Basis Set <=

  Basis Set: 
    Number of shells: 336
    Number of basis function: 1048
    Number of Cartesian functions: 1048
    Spherical Harmonics?: false
    Max angular momentum: 3

  Minimum eigenvalue in the overlap matrix is 7.1345868334E-04.
  Using Symmetric Orthogonalization.
  SCF Guess: Core (One-Electron) Hamiltonian.

  ==> Iterations <==

                           Total Energy        Delta E     RMS |[F,P]|

   @DF-RHF iter   1:  -226.54490454794171   -2.26545e+02   7.92585e-02 
   @DF-RHF iter   2:  -165.76724909874196    6.07777e+01   6.30021e-02 DIIS
   @DF-RHF iter   3:  -232.79233099931895   -6.70251e+01   7.36024e-02 DIIS
   @DF-RHF iter   4:  -319.98921666128450   -8.71969e+01   3.12033e-02 DIIS
   @DF-RHF iter   5:  -322.86256994075035   -2.87335e+00   3.87953e-02 DIIS
   @DF-RHF iter   6:  -345.24891146380997   -2.23863e+01   1.15698e-02 DIIS
   @DF-RHF iter   7:  -346.26883215161530   -1.01992e+00   7.56998e-03 DIIS
   @DF-RHF iter   8:  -346.85458898059829   -5.85757e-01   4.16130e-03 DIIS
   @DF-RHF iter   9:  -347.22657960744544   -3.71991e-01   1.06951e-03 DIIS
   @DF-RHF iter  10:  -347.29851037489954   -7.19308e-02   7.79643e-04 DIIS
   @DF-RHF iter  11:  -347.34467250349491   -4.61621e-02   5.52426e-04 DIIS
   @DF-RHF iter  12:  -347.37152468015557   -2.68522e-02   2.62015e-04 DIIS
   @DF-RHF iter  13:  -347.37871609484324   -7.19141e-03   2.36630e-04 DIIS
   @DF-RHF iter  14:  -347.38749180163046   -8.77571e-03   1.56235e-04 DIIS
   @DF-RHF iter  15:  -347.39078662074320   -3.29482e-03   1.09651e-04 DIIS
   @DF-RHF iter  16:  -347.39280868351108   -2.02206e-03   6.83254e-05 DIIS
   @DF-RHF iter  17:  -347.39391827612263   -1.10959e-03   4.68101e-05 DIIS
   @DF-RHF iter  18:  -347.39427922472379   -3.60949e-04   1.55344e-05 DIIS
   @DF-RHF iter  19:  -347.39431865175271   -3.94270e-05   9.94923e-06 DIIS
   @DF-RHF iter  20:  -347.39432616267680   -7.51092e-06   4.05850e-06 DIIS
   @DF-RHF iter  21:  -347.39432775235485   -1.58968e-06   3.08363e-06 DIIS
   @DF-RHF iter  22:  -347.39432832561994   -5.73265e-07   1.23699e-06 DIIS
   @DF-RHF iter  23:  -347.39432842792377   -1.02304e-07   3.69824e-07 DIIS

  ==> Post-Iterations <==

    Orbital Energies (a.u.)
    -----------------------

    Doubly Occupied:                                                      

       1A    -20.725896     2A    -11.328736     3A    -11.304336  
       4A    -11.262963     5A    -11.257903     6A    -11.234225  
       7A    -11.223026     8A    -11.150070     9A     -1.891290  
      10A     -1.271565    11A     -1.125679    12A     -1.064443  
      13A     -1.011276    14A     -1.000589    15A     -0.912904  
      16A     -0.817913    17A     -0.804149    18A     -0.769470  
      19A     -0.721035    20A     -0.679643    21A     -0.633408  
      22A     -0.611208    23A     -0.591801    24A     -0.583918  
      25A     -0.554073    26A     -0.540596    27A     -0.512631  
      28A     -0.503029    29A     -0.483322    30A     -0.477265  
      31A     -0.471293    32A     -0.376344    33A     -0.057279  

    Virtual:                                                              

      34A      0.199555    35A      0.220221    36A      0.230382  
      37A      0.245492    38A      0.252902    39A      0.282738  
      40A      0.296605    41A      0.297442    42A      0.305348  
      43A      0.319282    44A      0.326141    45A      0.332130  
      46A      0.340515    47A      0.345556    48A      0.360588  
      49A      0.381156    50A      0.411629    51A      0.414888  
      52A      0.426980    53A      0.464118    54A      0.491799  
      55A      0.511977    56A      0.543811    57A      0.668271  
      58A      0.690184    59A      0.697912    60A      0.714142  
      61A      0.732464    62A      0.734711    63A      0.778929  
      64A      0.815080    65A      0.846971    66A      0.865783  
      67A      0.884134    68A      0.902447    69A      0.931603  
      70A      0.966241    71A      0.978190    72A      0.992368  
      73A      1.034063    74A      1.056283    75A      1.075626  
      76A      1.091162    77A      1.103267    78A      1.112850  
      79A      1.124968    80A      1.140997    81A      1.162052  
      82A      1.171686    83A      1.181149    84A      1.198160  
      85A      1.209136    86A      1.214463    87A      1.223522  
      88A      1.229873    89A      1.248370    90A      1.273931  
      91A      1.311274    92A      1.327626    93A      1.382625  
      94A      1.422626    95A      1.470216    96A      1.529464  
      97A      1.580603    98A      1.663023    99A      1.719685  
     100A      1.741940   101A      1.788958   102A      1.815515  
     103A      1.857890   104A      1.886777   105A      1.932879  
     106A      1.960465   107A      2.007904   108A      2.032914  
     109A      2.080574   110A      2.117766   111A      2.128957  
     112A      2.179502   113A      2.192043   114A      2.226010  
     115A      2.260545   116A      2.270918   117A      2.303773  
     118A      2.338273   119A      2.386650   120A      2.422680  
     121A      2.446782   122A      2.459230   123A      2.552234  
     124A      2.567813   125A      2.608300   126A      2.638453  
     127A      2.657215   128A      2.684463   129A      2.692427  
     130A      2.739031   131A      2.754970   132A      2.808836  
     133A      2.834044   134A      2.895051   135A      2.949401  
     136A      2.964074   137A      2.989648   138A      3.033250  
     139A      3.103562   140A      3.189629   141A      3.316856  
     142A      3.406472   143A      3.487986   144A      4.551224  
     145A      4.637432   146A      4.701043   147A      4.810506  
     148A      4.835481   149A      4.946829   150A      5.002138  
     151A      5.050092   152A      5.323218  

    Final Occupation by Irrep:
              A 
    DOCC [    33 ]

  Energy converged.

  @DF-RHF Final Energy:  -347.39432842792377

   => Energetics <=

    Nuclear Repulsion Energy =            475.6218531317821885
    One-Electron Energy =               -1410.1256790816589728
    Two-Electron Energy =                 587.1094975219530170
    DFT Exchange-Correlation Energy =       0.0000000000000000
    Empirical Dispersion Energy =           0.0000000000000000
    PCM Polarization Energy =               0.0000000000000000
    EFP Energy =                            0.0000000000000000
    Total Energy =                       -347.3943284279237105

    Alert: EFP and PCM quantities not currently incorporated into SCF psivars.

Properties will be evaluated at   0.000000,   0.000000,   0.000000 Bohr
  ==> Properties <==


Properties computed using the SCF density matrix

  Nuclear Dipole Moment: (a.u.)
     X:    -0.3037      Y:     1.4805      Z:     0.3275

  Electronic Dipole Moment: (a.u.)
     X:     0.6029      Y:    -2.0018      Z:     1.5965

  Dipole Moment: (a.u.)
     X:     0.2992      Y:    -0.5212      Z:     1.9240     Total:     2.0157

  Dipole Moment: (Debye)
     X:     0.7605      Y:    -1.3248      Z:     4.8904     Total:     5.1234


  Saving occupied orbitals to File 180.

*** tstop() called on cx1-1-3-2.cx1.hpc.ic.ac.uk at Tue Jul  5 17:45:46 2016
Module time:
	user time   =      29.65 seconds =       0.49 minutes
	system time =       0.36 seconds =       0.01 minutes
	total time  =         31 seconds =       0.52 minutes
Total time:
	user time   =      29.65 seconds =       0.49 minutes
	system time =       0.36 seconds =       0.01 minutes
	total time  =         31 seconds =       0.52 minutes


Properties will be evaluated at   0.000000,   0.000000,   0.000000 Bohr

Properties computed using the  density matrix

  Nuclear Dipole Moment: (a.u.)
     X:    -0.3037      Y:     1.4805      Z:     0.3275

  Electronic Dipole Moment: (a.u.)
     X:     0.6029      Y:    -2.0018      Z:     1.5965

  Dipole Moment: (a.u.)
     X:     0.2992      Y:    -0.5212      Z:     1.9240     Total:     2.0157

  Dipole Moment: (Debye)
     X:     0.7605      Y:    -1.3248      Z:     4.8904     Total:     5.1234

  Quadrupole Moment: (Debye Ang)
    XX:   -58.6760     YY:   -50.7946     ZZ:   -65.7445
    XY:    -1.5668     XZ:    -4.2923     YZ:    -0.2958

  Traceless Quadrupole Moment: (Debye Ang)
    XX:    -0.2709     YY:     7.6104     ZZ:    -7.3395
    XY:    -1.5668     XZ:    -4.2923     YZ:    -0.2958

  Mulliken Charges: (a.u.)
   Center  Symbol    Alpha    Beta     Spin     Total
       1     H     0.40685  0.40685  0.00000  0.18630
       2     O     4.11638  4.11638  0.00000 -0.23276
       3     C     3.10503  3.10503  0.00000 -0.21005
       4     C     3.20255  3.20255  0.00000 -0.40511
       5     H     0.38975  0.38975  0.00000  0.22050
       6     H     0.39850  0.39850  0.00000  0.20301
       7     C     3.15047  3.15047  0.00000 -0.30094
       8     H     0.42334  0.42334  0.00000  0.15332
       9     H     0.39376  0.39376  0.00000  0.21247
      10     C     3.14965  3.14965  0.00000 -0.29931
      11     H     0.41009  0.41009  0.00000  0.17982
      12     H     0.42187  0.42187  0.00000  0.15626
      13     C     3.17615  3.17615  0.00000 -0.35230
      14     H     0.42819  0.42819  0.00000  0.14362
      15     H     0.41412  0.41412  0.00000  0.17177
      16     C     3.03739  3.03739  0.00000 -0.07479
      17     H     0.38401  0.38401  0.00000  0.23199
      18     H     0.41054  0.41054  0.00000  0.17893
      19     C     3.31972  3.31972  0.00000 -0.63944
      20     H     0.30735  0.30735  0.00000  0.38531
      21     H     0.58753  0.58753  0.00000 -0.17507
      22     H     0.44496  0.44496  0.00000  0.11008
      23     H     0.45724  0.45724  0.00000  0.08553
      24     H     0.46456  0.46456  0.00000  0.07089

   Total alpha = 33.00000, Total beta = 33.00000, Total charge = -0.00000


*** PSI4 exiting successfully. Buy a developer a beer!
