    -----------------------------------------------------------------------
          Psi4: An Open-Source Ab Initio Electronic Structure Package
                              Psi4 (no tag) Driver

                          Git: Rev {detached?}  

    J. M. Turney, A. C. Simmonett, R. M. Parrish, E. G. Hohenstein,
    F. A. Evangelista, J. T. Fermann, B. J. Mintz, L. A. Burns, J. J. Wilke,
    M. L. Abrams, N. J. Russ, M. L. Leininger, C. L. Janssen, E. T. Seidl,
    W. D. Allen, H. F. Schaefer, R. A. King, E. F. Valeev, C. D. Sherrill,
    and T. D. Crawford, WIREs Comput. Mol. Sci. 2, 556-565 (2012)
    (doi: 10.1002/wcms.93)

                         Additional Contributions by
    A. E. DePrince, M. Saitow, U. Bozkaya, A. Yu. Sokolov
    -----------------------------------------------------------------------


    Psi4 started on: Tue Jul  5 16:37:14 2016

    Process ID:  22773
    PSI4DATADIR: /export131/home/mjharvey/miniconda3/share
    Memory level set to 256.000 MB

  ==> Input File <==

--------------------------------------------------------------------------
set {
	reference rhf
	basis 6-31G*
}


set_num_threads( 1 )
memory 2 gb

molecule MOL {
0 1

H	 -2.698709	 -0.000305	 0.034435
C	 -1.693833	 0.000034	 0.434417
O	 -0.828952	 -0.000968	 -0.659236
H	 -1.574200	 0.882896	 1.055746
H	 -1.574147	 -0.881698	 1.057355
C	 0.559449	 -0.000018	 -0.420814
C	 1.373678	 0.144353	 -1.704989
C	 0.969927	 1.015126	 0.644057
H	 0.741554	 -0.990956	 -0.022178
H	 1.021892	 -0.556633	 -2.454265
H	 2.419947	 -0.065854	 -1.506569
H	 1.315162	 1.146313	 -2.118289
H	 0.338247	 0.917356	 1.520344
H	 1.998544	 0.842038	 0.944810
H	 0.902878	 2.037145	 0.285137

	symmetry c1
}
set optking {
	frozen_dihedral = ("
		6 3 2 1
	")
}

ee = energy('scf')
oeprop('DIPOLE', 'QUADRUPOLE', 'MULLIKEN_CHARGES')
f=open( 'psi4out.xyz', 'w' )
f.write( "15  " )
f.write( str(ee) + "\n" )
f.write( MOL.save_string_xyz() )
f.close()
--------------------------------------------------------------------------

  Memory set to   2.000 GiB by Python script.

*** tstart() called on cx1-3-4-2.cx1.hpc.ic.ac.uk
*** at Tue Jul  5 16:37:14 2016


         ---------------------------------------------------------
                                   SCF
            by Justin Turney, Rob Parrish, and Andy Simmonett
                              RHF Reference
                        1 Threads,   2000 MiB Core
         ---------------------------------------------------------

  ==> Geometry <==

    Molecular point group: c1
    Full point group: C1

    Geometry (in Angstrom), charge = 0, multiplicity = 1:

       Center              X                  Y                   Z               Mass       
    ------------   -----------------  -----------------  -----------------  -----------------
           H         -2.754942954928    -0.233247910655     0.362830077710     1.007825032070
           C         -1.750066954928    -0.232908910655     0.762812077710    12.000000000000
           O         -0.885185954928    -0.233910910655    -0.330840922290    15.994914619560
           H         -1.630433954928     0.649953089345     1.384141077710     1.007825032070
           H         -1.630380954928    -1.114640910655     1.385750077710     1.007825032070
           C          0.503215045072    -0.232960910655    -0.092418922290    12.000000000000
           C          1.317444045072    -0.088589910655    -1.376593922290    12.000000000000
           C          0.913693045072     0.782183089345     0.972452077710    12.000000000000
           H          0.685320045072    -1.223898910655     0.306217077710     1.007825032070
           H          0.965658045072    -0.789575910655    -2.125869922290     1.007825032070
           H          2.363713045072    -0.298796910655    -1.178173922290     1.007825032070
           H          1.258928045072     0.913370089345    -1.789893922290     1.007825032070
           H          0.282013045072     0.684413089345     1.848739077710     1.007825032070
           H          1.942310045072     0.609095089345     1.273205077710     1.007825032070
           H          0.846644045072     1.804202089345     0.613532077710     1.007825032070

  Running in c1 symmetry.

  Rotational constants: A =      0.26643  B =      0.12520  C =      0.09297 [cm^-1]
  Rotational constants: A =   7987.38845  B =   3753.54534  C =   2787.04283 [MHz]
  Nuclear repulsion =  197.108439422002078

  Charge       = 0
  Multiplicity = 1
  Electrons    = 42
  Nalpha       = 21
  Nbeta        = 21

  ==> Algorithm <==

  SCF Algorithm Type is DF.
  DIIS enabled.
  MOM disabled.
  Fractional occupation disabled.
  Guess Type is CORE.
  Energy threshold   = 1.00e-06
  Density threshold  = 1.00e-06
  Integral threshold = 0.00e+00

  ==> Primary Basis <==

  Basis Set: 6-31G*
    Number of shells: 50
    Number of basis function: 95
    Number of Cartesian functions: 95
    Spherical Harmonics?: false
    Max angular momentum: 2

  ==> Pre-Iterations <==

   -------------------------------------------------------
    Irrep   Nso     Nmo     Nalpha   Nbeta   Ndocc  Nsocc
   -------------------------------------------------------
     A         95      95       0       0       0       0
   -------------------------------------------------------
    Total      95      95      21      21      21       0
   -------------------------------------------------------

 OEINTS: Overlap, kinetic, potential, dipole, and quadrupole integrals
         stored in file 35.

  ==> Integral Setup <==

  ==> DFJK: Density-Fitted J/K Matrices <==

    J tasked:                  Yes
    K tasked:                  Yes
    wK tasked:                  No
    OpenMP threads:              1
    Integrals threads:           1
    Memory (MB):              1430
    Algorithm:                Core
    Integral Cache:           NONE
    Schwarz Cutoff:          1E-12
    Fitting Condition:       1E-12

   => Auxiliary Basis Set <=

  Basis Set: 
    Number of shells: 210
    Number of basis function: 655
    Number of Cartesian functions: 655
    Spherical Harmonics?: false
    Max angular momentum: 3

  Minimum eigenvalue in the overlap matrix is 4.0943085767E-03.
  Using Symmetric Orthogonalization.
  SCF Guess: Core (One-Electron) Hamiltonian.

  ==> Iterations <==

                           Total Energy        Delta E     RMS |[F,P]|

   @DF-RHF iter   1:  -178.46789504823053   -1.78468e+02   8.24642e-02 
   @DF-RHF iter   2:  -175.15248093197661    3.31541e+00   6.21082e-02 DIIS
   @DF-RHF iter   3:  -204.28775110291005   -2.91353e+01   5.15718e-02 DIIS
   @DF-RHF iter   4:  -221.52897970358092   -1.72412e+01   3.83359e-02 DIIS
   @DF-RHF iter   5:  -231.89564361646896   -1.03667e+01   6.86945e-03 DIIS
   @DF-RHF iter   6:  -232.09366698321580   -1.98023e-01   2.58350e-03 DIIS
   @DF-RHF iter   7:  -232.13025310664850   -3.65861e-02   7.14981e-04 DIIS
   @DF-RHF iter   8:  -232.13323975720468   -2.98665e-03   2.75549e-04 DIIS
   @DF-RHF iter   9:  -232.13368696296780   -4.47206e-04   7.37445e-05 DIIS
   @DF-RHF iter  10:  -232.13372953898821   -4.25760e-05   2.86989e-05 DIIS
   @DF-RHF iter  11:  -232.13373409712628   -4.55814e-06   7.49410e-06 DIIS
   @DF-RHF iter  12:  -232.13373446702448   -3.69898e-07   2.02493e-06 DIIS
   @DF-RHF iter  13:  -232.13373450474703   -3.77225e-08   3.30877e-07 DIIS

  ==> Post-Iterations <==

    Orbital Energies (a.u.)
    -----------------------

    Doubly Occupied:                                                      

       1A    -20.547094     2A    -11.274822     3A    -11.262833  
       4A    -11.211053     5A    -11.210909     6A     -1.370000  
       7A     -1.051354     8A     -0.946926     9A     -0.918573  
      10A     -0.788344    11A     -0.671867    12A     -0.642571  
      13A     -0.631657    14A     -0.594765    15A     -0.545849  
      16A     -0.542066    17A     -0.530212    18A     -0.502972  
      19A     -0.501465    20A     -0.443366    21A     -0.403403  

    Virtual:                                                              

      22A      0.230369    23A      0.267714    24A      0.282786  
      25A      0.301244    26A      0.310188    27A      0.322301  
      28A      0.326125    29A      0.345030    30A      0.350842  
      31A      0.355406    32A      0.376709    33A      0.410319  
      34A      0.445109    35A      0.466667    36A      0.703329  
      37A      0.721392    38A      0.751880    39A      0.768648  
      40A      0.804112    41A      0.822235    42A      0.828510  
      43A      0.912459    44A      0.940002    45A      0.972402  
      46A      0.993981    47A      1.055031    48A      1.116319  
      49A      1.146870    50A      1.155226    51A      1.170610  
      52A      1.182690    53A      1.186352    54A      1.202373  
      55A      1.208359    56A      1.236332    57A      1.245218  
      58A      1.284021    59A      1.314033    60A      1.415431  
      61A      1.463411    62A      1.587459    63A      1.636701  
      64A      1.676963    65A      1.694033    66A      1.762367  
      67A      1.884367    68A      1.974377    69A      2.037914  
      70A      2.085370    71A      2.132936    72A      2.224534  
      73A      2.304827    74A      2.334260    75A      2.396395  
      76A      2.445188    77A      2.452703    78A      2.515797  
      79A      2.546763    80A      2.580336    81A      2.603147  
      82A      2.613615    83A      2.703298    84A      2.749856  
      85A      2.815316    86A      2.900553    87A      2.967110  
      88A      3.071728    89A      3.257092    90A      3.322677  
      91A      4.382955    92A      4.614744    93A      4.678393  
      94A      4.719115    95A      4.965076  

    Final Occupation by Irrep:
              A 
    DOCC [    21 ]

  Energy converged.

  @DF-RHF Final Energy:  -232.13373450474703

   => Energetics <=

    Nuclear Repulsion Energy =            197.1084394220020783
    One-Electron Energy =                -705.3002183164076087
    Two-Electron Energy =                 276.0580443896582210
    DFT Exchange-Correlation Energy =       0.0000000000000000
    Empirical Dispersion Energy =           0.0000000000000000
    PCM Polarization Energy =               0.0000000000000000
    EFP Energy =                            0.0000000000000000
    Total Energy =                       -232.1337345047472809

    Alert: EFP and PCM quantities not currently incorporated into SCF psivars.

Properties will be evaluated at   0.000000,   0.000000,   0.000000 Bohr
  ==> Properties <==


Properties computed using the SCF density matrix

  Nuclear Dipole Moment: (a.u.)
     X:     2.1790      Y:     0.9372      Z:     1.9488

  Electronic Dipole Moment: (a.u.)
     X:    -1.9615      Y:    -0.9050      Z:    -1.4590

  Dipole Moment: (a.u.)
     X:     0.2174      Y:     0.0322      Z:     0.4898     Total:     0.5368

  Dipole Moment: (Debye)
     X:     0.5526      Y:     0.0818      Z:     1.2449     Total:     1.3645


  Saving occupied orbitals to File 180.

*** tstop() called on cx1-3-4-2.cx1.hpc.ic.ac.uk at Tue Jul  5 16:37:24 2016
Module time:
	user time   =       8.77 seconds =       0.15 minutes
	system time =       0.06 seconds =       0.00 minutes
	total time  =         10 seconds =       0.17 minutes
Total time:
	user time   =       8.77 seconds =       0.15 minutes
	system time =       0.06 seconds =       0.00 minutes
	total time  =         10 seconds =       0.17 minutes


Properties will be evaluated at   0.000000,   0.000000,   0.000000 Bohr

Properties computed using the  density matrix

  Nuclear Dipole Moment: (a.u.)
     X:     2.1790      Y:     0.9372      Z:     1.9488

  Electronic Dipole Moment: (a.u.)
     X:    -1.9615      Y:    -0.9050      Z:    -1.4590

  Dipole Moment: (a.u.)
     X:     0.2174      Y:     0.0322      Z:     0.4898     Total:     0.5368

  Dipole Moment: (Debye)
     X:     0.5526      Y:     0.0818      Z:     1.2449     Total:     1.3645

  Quadrupole Moment: (Debye Ang)
    XX:   -31.4206     YY:   -33.3924     ZZ:   -33.3325
    XY:    -0.1707     XZ:    -2.3225     YZ:    -0.3313

  Traceless Quadrupole Moment: (Debye Ang)
    XX:     1.2946     YY:    -0.6772     ZZ:    -0.6173
    XY:    -0.1707     XZ:    -2.3225     YZ:    -0.3313

  Mulliken Charges: (a.u.)
   Center  Symbol    Alpha    Beta     Spin     Total
       1     H     0.41144  0.41144  0.00000  0.17712
       2     C     3.08122  3.08122  0.00000 -0.16244
       3     O     4.31624  4.31624  0.00000 -0.63247
       4     H     0.42714  0.42714  0.00000  0.14571
       5     H     0.43154  0.43154  0.00000  0.13692
       6     C     2.89818  2.89818  0.00000  0.20364
       7     C     3.24492  3.24492  0.00000 -0.48984
       8     C     3.25822  3.25822  0.00000 -0.51643
       9     H     0.43220  0.43220  0.00000  0.13559
      10     H     0.41035  0.41035  0.00000  0.17931
      11     H     0.42020  0.42020  0.00000  0.15960
      12     H     0.41700  0.41700  0.00000  0.16600
      13     H     0.41639  0.41639  0.00000  0.16722
      14     H     0.41844  0.41844  0.00000  0.16311
      15     H     0.41652  0.41652  0.00000  0.16696

   Total alpha = 21.00000, Total beta = 21.00000, Total charge =  0.00000


*** PSI4 exiting successfully. Buy a developer a beer!
