    -----------------------------------------------------------------------
          Psi4: An Open-Source Ab Initio Electronic Structure Package
                              Psi4 (no tag) Driver

                          Git: Rev {detached?}  

    J. M. Turney, A. C. Simmonett, R. M. Parrish, E. G. Hohenstein,
    F. A. Evangelista, J. T. Fermann, B. J. Mintz, L. A. Burns, J. J. Wilke,
    M. L. Abrams, N. J. Russ, M. L. Leininger, C. L. Janssen, E. T. Seidl,
    W. D. Allen, H. F. Schaefer, R. A. King, E. F. Valeev, C. D. Sherrill,
    and T. D. Crawford, WIREs Comput. Mol. Sci. 2, 556-565 (2012)
    (doi: 10.1002/wcms.93)

                         Additional Contributions by
    A. E. DePrince, M. Saitow, U. Bozkaya, A. Yu. Sokolov
    -----------------------------------------------------------------------


    Psi4 started on: Tue Jul  5 17:54:04 2016

    Process ID:  28927
    PSI4DATADIR: /export131/home/mjharvey/miniconda3/share
    Memory level set to 256.000 MB

  ==> Input File <==

--------------------------------------------------------------------------
set {
	reference rhf
	basis 6-31G*
}


set_num_threads( 1 )
memory 2 gb

molecule MOL {
0 1

H	 5.817097	 -3.451177	 4.188709
C	 5.836031	 -4.252018	 3.456031
C	 6.906265	 -4.003742	 2.393895
H	 6.022115	 -5.181209	 3.986425
H	 4.846784	 -4.316814	 3.011069
C	 6.955315	 -5.112199	 1.339982
H	 7.875355	 -3.918630	 2.874750
H	 6.712747	 -3.050447	 1.904537
C	 5.583937	 -5.490337	 0.779983
H	 7.598228	 -4.807801	 0.521661
H	 7.401788	 -6.001134	 1.779865
C	 4.964761	 -4.436609	 -0.126394
H	 5.667413	 -6.399369	 0.186296
H	 4.888134	 -5.726167	 1.582117
C	 3.475324	 -4.538016	 -0.405696
O	 5.622661	 -3.569734	 -0.618431
C	 3.142513	 -5.197708	 -1.752249
H	 3.077758	 -3.530724	 -0.373804
H	 3.010537	 -5.105855	 0.398180
C	 3.906992	 -6.506058	 -1.962969
H	 2.073565	 -5.394231	 -1.800676
H	 3.371148	 -4.517137	 -2.568350
C	 3.584233	 -7.172245	 -3.299729
H	 3.675183	 -7.191428	 -1.151430
H	 4.975620	 -6.311267	 -1.903941
H	 2.526789	 -7.408725	 -3.374670
H	 3.837980	 -6.523738	 -4.133494
H	 4.139105	 -8.097216	 -3.419829

	symmetry c1
}
set optking {
	frozen_dihedral = ("
		10 6 3 2,
		12 15 17 21
	")
}

ee = energy('scf')
oeprop('DIPOLE', 'QUADRUPOLE', 'MULLIKEN_CHARGES')
f=open( 'psi4out.xyz', 'w' )
f.write( "28  " )
f.write( str(ee) + "\n" )
f.write( MOL.save_string_xyz() )
f.close()
--------------------------------------------------------------------------

  Memory set to   2.000 GiB by Python script.

*** tstart() called on cx1-3-4-4.cx1.hpc.ic.ac.uk
*** at Tue Jul  5 17:54:05 2016


         ---------------------------------------------------------
                                   SCF
            by Justin Turney, Rob Parrish, and Andy Simmonett
                              RHF Reference
                        1 Threads,   2000 MiB Core
         ---------------------------------------------------------

  ==> Geometry <==

    Molecular point group: c1
    Full point group: C1

    Geometry (in Angstrom), charge = 0, multiplicity = 1:

       Center              X                  Y                   Z               Mass       
    ------------   -----------------  -----------------  -----------------  -----------------
           H          0.819054419477     1.581309699794     4.210496109400     1.007825032070
           C          0.837988419477     0.780468699794     3.477818109400    12.000000000000
           C          1.908222419477     1.028744699794     2.415682109400    12.000000000000
           H          1.024072419477    -0.148722300206     4.008212109400     1.007825032070
           H         -0.151258580523     0.715672699794     3.032856109400     1.007825032070
           C          1.957272419477    -0.079712300206     1.361769109400    12.000000000000
           H          2.877312419477     1.113856699794     2.896537109400     1.007825032070
           H          1.714704419477     1.982039699794     1.926324109400     1.007825032070
           C          0.585894419477    -0.457850300206     0.801770109400    12.000000000000
           H          2.600185419477     0.224685699794     0.543448109400     1.007825032070
           H          2.403745419477    -0.968647300206     1.801652109400     1.007825032070
           C         -0.033281580523     0.595877699794    -0.104606890600    12.000000000000
           H          0.669370419477    -1.366882300206     0.208083109400     1.007825032070
           H         -0.109908580523    -0.693680300206     1.603904109400     1.007825032070
           C         -1.522718580523     0.494470699794    -0.383908890600    12.000000000000
           O          0.624618419477     1.462752699794    -0.596643890600    15.994914619560
           C         -1.855529580523    -0.165221300206    -1.730461890600    12.000000000000
           H         -1.920284580523     1.501762699794    -0.352016890600     1.007825032070
           H         -1.987505580523    -0.073368300206     0.419967109400     1.007825032070
           C         -1.091050580523    -1.473571300206    -1.941181890600    12.000000000000
           H         -2.924477580523    -0.361744300206    -1.778888890600     1.007825032070
           H         -1.626894580523     0.515349699794    -2.546562890600     1.007825032070
           C         -1.413809580523    -2.139758300206    -3.277941890600    12.000000000000
           H         -1.322859580523    -2.158941300206    -1.129642890600     1.007825032070
           H         -0.022422580523    -1.278780300206    -1.882153890600     1.007825032070
           H         -2.471253580523    -2.376238300206    -3.352882890600     1.007825032070
           H         -1.160062580523    -1.491251300206    -4.111706890600     1.007825032070
           H         -0.858937580523    -3.064729300206    -3.398041890600     1.007825032070

  Running in c1 symmetry.

  Rotational constants: A =      0.08777  B =      0.01828  C =      0.01768 [cm^-1]
  Rotational constants: A =   2631.39240  B =    548.12862  C =    529.91216 [MHz]
  Nuclear repulsion =  553.434623116928492

  Charge       = 0
  Multiplicity = 1
  Electrons    = 80
  Nalpha       = 40
  Nbeta        = 40

  ==> Algorithm <==

  SCF Algorithm Type is DF.
  DIIS enabled.
  MOM disabled.
  Fractional occupation disabled.
  Guess Type is CORE.
  Energy threshold   = 1.00e-06
  Density threshold  = 1.00e-06
  Integral threshold = 0.00e+00

  ==> Primary Basis <==

  Basis Set: 6-31G*
    Number of shells: 96
    Number of basis function: 186
    Number of Cartesian functions: 186
    Spherical Harmonics?: false
    Max angular momentum: 2

  ==> Pre-Iterations <==

   -------------------------------------------------------
    Irrep   Nso     Nmo     Nalpha   Nbeta   Ndocc  Nsocc
   -------------------------------------------------------
     A        186     186       0       0       0       0
   -------------------------------------------------------
    Total     186     186      40      40      40       0
   -------------------------------------------------------

 OEINTS: Overlap, kinetic, potential, dipole, and quadrupole integrals
         stored in file 35.

  ==> Integral Setup <==

  ==> DFJK: Density-Fitted J/K Matrices <==

    J tasked:                  Yes
    K tasked:                  Yes
    wK tasked:                  No
    OpenMP threads:              1
    Integrals threads:           1
    Memory (MB):              1430
    Algorithm:                Core
    Integral Cache:           NONE
    Schwarz Cutoff:          1E-12
    Fitting Condition:       1E-12

   => Auxiliary Basis Set <=

  Basis Set: 
    Number of shells: 402
    Number of basis function: 1260
    Number of Cartesian functions: 1260
    Spherical Harmonics?: false
    Max angular momentum: 3

  Minimum eigenvalue in the overlap matrix is 2.8619574219E-03.
  Using Symmetric Orthogonalization.
  SCF Guess: Core (One-Electron) Hamiltonian.

  ==> Iterations <==

                           Total Energy        Delta E     RMS |[F,P]|

   @DF-RHF iter   1:  -236.28001093090245   -2.36280e+02   6.89220e-02 
   @DF-RHF iter   2:  -152.10065025650442    8.41794e+01   7.02202e-02 DIIS
   @DF-RHF iter   3:  -377.17134429821590   -2.25071e+02   3.17027e-02 DIIS
   @DF-RHF iter   4:  -329.00822310063654    4.81631e+01   4.97771e-02 DIIS
   @DF-RHF iter   5:  -382.07737308842070   -5.30691e+01   3.78357e-02 DIIS
   @DF-RHF iter   6:  -413.28614772942910   -3.12088e+01   1.74600e-02 DIIS
   @DF-RHF iter   7:  -425.71900518901600   -1.24329e+01   4.59284e-03 DIIS
   @DF-RHF iter   8:  -426.12218608882824   -4.03181e-01   1.31503e-03 DIIS
   @DF-RHF iter   9:  -426.15318755318640   -3.10015e-02   4.97279e-04 DIIS
   @DF-RHF iter  10:  -426.15845747157175   -5.26992e-03   2.34824e-04 DIIS
   @DF-RHF iter  11:  -426.15966482536203   -1.20735e-03   6.30179e-05 DIIS
   @DF-RHF iter  12:  -426.15984561477546   -1.80789e-04   2.60880e-05 DIIS
   @DF-RHF iter  13:  -426.15987539751552   -2.97827e-05   9.42193e-06 DIIS
   @DF-RHF iter  14:  -426.15988119740371   -5.79989e-06   3.61551e-06 DIIS
   @DF-RHF iter  15:  -426.15988227311504   -1.07571e-06   1.43707e-06 DIIS
   @DF-RHF iter  16:  -426.15988246176448   -1.88649e-07   6.76738e-07 DIIS

  ==> Post-Iterations <==

    Orbital Energies (a.u.)
    -----------------------

    Doubly Occupied:                                                      

       1A    -20.547829     2A    -11.321856     3A    -11.230147  
       4A    -11.228453     5A    -11.226672     6A    -11.225385  
       7A    -11.215608     8A    -11.215333     9A    -11.211971  
      10A    -11.209557    11A     -1.393414    12A     -1.095654  
      13A     -1.079610    14A     -1.017791    15A     -0.988795  
      16A     -0.913067    17A     -0.880702    18A     -0.816236  
      19A     -0.783841    20A     -0.718659    21A     -0.670241  
      22A     -0.647837    23A     -0.636470    24A     -0.624583  
      25A     -0.604986    26A     -0.597815    27A     -0.579777  
      28A     -0.560711    29A     -0.542535    30A     -0.535892  
      31A     -0.530887    32A     -0.512080    33A     -0.502761  
      34A     -0.486604    35A     -0.476203    36A     -0.469587  
      37A     -0.463151    38A     -0.460098    39A     -0.456370  
      40A     -0.392098  

    Virtual:                                                              

      41A      0.160817    42A      0.215241    43A      0.239477  
      44A      0.252608    45A      0.270285    46A      0.277878  
      47A      0.280886    48A      0.296478    49A      0.300551  
      50A      0.319386    51A      0.323724    52A      0.328822  
      53A      0.332244    54A      0.333061    55A      0.343239  
      56A      0.345911    57A      0.367194    58A      0.373424  
      59A      0.379955    60A      0.389713    61A      0.399320  
      62A      0.410533    63A      0.432683    64A      0.441295  
      65A      0.462506    66A      0.471298    67A      0.514553  
      68A      0.531215    69A      0.686958    70A      0.706285  
      71A      0.724660    72A      0.730310    73A      0.736722  
      74A      0.746418    75A      0.756460    76A      0.776088  
      77A      0.801568    78A      0.826948    79A      0.858565  
      80A      0.874043    81A      0.901878    82A      0.916839  
      83A      0.925723    84A      0.938348    85A      0.953706  
      86A      0.979078    87A      0.989532    88A      0.995348  
      89A      1.016587    90A      1.043853    91A      1.076864  
      92A      1.091650    93A      1.095279    94A      1.114060  
      95A      1.133358    96A      1.143762    97A      1.154580  
      98A      1.158057    99A      1.173651   100A      1.178007  
     101A      1.181358   102A      1.190933   103A      1.198196  
     104A      1.203706   105A      1.209905   106A      1.221471  
     107A      1.232058   108A      1.244097   109A      1.255596  
     110A      1.261489   111A      1.267714   112A      1.273009  
     113A      1.288775   114A      1.310421   115A      1.350430  
     116A      1.386490   117A      1.414300   118A      1.436571  
     119A      1.480828   120A      1.557520   121A      1.651323  
     122A      1.664611   123A      1.703886   124A      1.748447  
     125A      1.758496   126A      1.797475   127A      1.825459  
     128A      1.851892   129A      1.880396   130A      1.885558  
     131A      1.946379   132A      1.985111   133A      2.008034  
     134A      2.089154   135A      2.111176   136A      2.129135  
     137A      2.154395   138A      2.177338   139A      2.198455  
     140A      2.219335   141A      2.234226   142A      2.259466  
     143A      2.281634   144A      2.303283   145A      2.309713  
     146A      2.320306   147A      2.339414   148A      2.378152  
     149A      2.381757   150A      2.409999   151A      2.437947  
     152A      2.495797   153A      2.527320   154A      2.575691  
     155A      2.600306   156A      2.645606   157A      2.657776  
     158A      2.685554   159A      2.686049   160A      2.691639  
     161A      2.714904   162A      2.729549   163A      2.753040  
     164A      2.789712   165A      2.818328   166A      2.854085  
     167A      2.911127   168A      2.940003   169A      2.960477  
     170A      2.985180   171A      3.054480   172A      3.082493  
     173A      3.133758   174A      3.189264   175A      3.394490  
     176A      3.410470   177A      4.520886   178A      4.550009  
     179A      4.593473   180A      4.641224   181A      4.727306  
     182A      4.786453   183A      4.850636   184A      4.929531  
     185A      4.996648   186A      5.047209  

    Final Occupation by Irrep:
              A 
    DOCC [    40 ]

  Energy converged.

  @DF-RHF Final Energy:  -426.15988246176448

   => Energetics <=

    Nuclear Repulsion Energy =            553.4346231169284920
    One-Electron Energy =               -1675.0462465206246634
    Two-Electron Energy =                 695.4517409419324849
    DFT Exchange-Correlation Energy =       0.0000000000000000
    Empirical Dispersion Energy =           0.0000000000000000
    PCM Polarization Energy =               0.0000000000000000
    EFP Energy =                            0.0000000000000000
    Total Energy =                       -426.1598824617638002

    Alert: EFP and PCM quantities not currently incorporated into SCF psivars.

Properties will be evaluated at   0.000000,   0.000000,   0.000000 Bohr
  ==> Properties <==


Properties computed using the SCF density matrix

  Nuclear Dipole Moment: (a.u.)
     X:    -2.2914      Y:    -5.9443      Z:     1.9654

  Electronic Dipole Moment: (a.u.)
     X:     1.6843      Y:     5.1014      Z:    -1.6451

  Dipole Moment: (a.u.)
     X:    -0.6071      Y:    -0.8430      Z:     0.3203     Total:     1.0871

  Dipole Moment: (Debye)
     X:    -1.5431      Y:    -2.1426      Z:     0.8142     Total:     2.7631


  Saving occupied orbitals to File 180.

*** tstop() called on cx1-3-4-4.cx1.hpc.ic.ac.uk at Tue Jul  5 17:54:42 2016
Module time:
	user time   =      36.91 seconds =       0.62 minutes
	system time =       0.33 seconds =       0.01 minutes
	total time  =         37 seconds =       0.62 minutes
Total time:
	user time   =      36.91 seconds =       0.62 minutes
	system time =       0.33 seconds =       0.01 minutes
	total time  =         37 seconds =       0.62 minutes


Properties will be evaluated at   0.000000,   0.000000,   0.000000 Bohr

Properties computed using the  density matrix

  Nuclear Dipole Moment: (a.u.)
     X:    -2.2914      Y:    -5.9443      Z:     1.9654

  Electronic Dipole Moment: (a.u.)
     X:     1.6843      Y:     5.1014      Z:    -1.6451

  Dipole Moment: (a.u.)
     X:    -0.6071      Y:    -0.8430      Z:     0.3203     Total:     1.0871

  Dipole Moment: (Debye)
     X:    -1.5431      Y:    -2.1426      Z:     0.8142     Total:     2.7631

  Quadrupole Moment: (Debye Ang)
    XX:   -64.2639     YY:   -68.5799     ZZ:   -65.2053
    XY:    -2.3222     XZ:     1.9444     YZ:     2.0918

  Traceless Quadrupole Moment: (Debye Ang)
    XX:     1.7525     YY:    -2.5635     ZZ:     0.8111
    XY:    -2.3222     XZ:     1.9444     YZ:     2.0918

  Mulliken Charges: (a.u.)
   Center  Symbol    Alpha    Beta     Spin     Total
       1     H     0.41688  0.41688  0.00000  0.16625
       2     C     3.24318  3.24318  0.00000 -0.48635
       3     C     3.15798  3.15798  0.00000 -0.31597
       4     H     0.42284  0.42284  0.00000  0.15432
       5     H     0.42591  0.42591  0.00000  0.14819
       6     C     3.15002  3.15002  0.00000 -0.30003
       7     H     0.41952  0.41952  0.00000  0.16096
       8     H     0.40937  0.40937  0.00000  0.18126
       9     C     3.21885  3.21885  0.00000 -0.43769
      10     H     0.40521  0.40521  0.00000  0.18957
      11     H     0.42223  0.42223  0.00000  0.15553
      12     C     2.74039  2.74039  0.00000  0.51922
      13     H     0.40005  0.40005  0.00000  0.19991
      14     H     0.40920  0.40920  0.00000  0.18161
      15     C     3.19709  3.19709  0.00000 -0.39418
      16     O     4.26753  4.26753  0.00000 -0.53506
      17     C     3.15186  3.15186  0.00000 -0.30372
      18     H     0.39959  0.39959  0.00000  0.20082
      19     H     0.41757  0.41757  0.00000  0.16485
      20     C     3.16432  3.16432  0.00000 -0.32863
      21     H     0.41643  0.41643  0.00000  0.16713
      22     H     0.40969  0.40969  0.00000  0.18062
      23     C     3.23898  3.23898  0.00000 -0.47795
      24     H     0.42235  0.42235  0.00000  0.15530
      25     H     0.41633  0.41633  0.00000  0.16734
      26     H     0.42087  0.42087  0.00000  0.15826
      27     H     0.41813  0.41813  0.00000  0.16375
      28     H     0.41764  0.41764  0.00000  0.16472

   Total alpha = 40.00000, Total beta = 40.00000, Total charge = -0.00000


*** PSI4 exiting successfully. Buy a developer a beer!
