    -----------------------------------------------------------------------
          Psi4: An Open-Source Ab Initio Electronic Structure Package
                              Psi4 (no tag) Driver

                          Git: Rev {detached?}  

    J. M. Turney, A. C. Simmonett, R. M. Parrish, E. G. Hohenstein,
    F. A. Evangelista, J. T. Fermann, B. J. Mintz, L. A. Burns, J. J. Wilke,
    M. L. Abrams, N. J. Russ, M. L. Leininger, C. L. Janssen, E. T. Seidl,
    W. D. Allen, H. F. Schaefer, R. A. King, E. F. Valeev, C. D. Sherrill,
    and T. D. Crawford, WIREs Comput. Mol. Sci. 2, 556-565 (2012)
    (doi: 10.1002/wcms.93)

                         Additional Contributions by
    A. E. DePrince, M. Saitow, U. Bozkaya, A. Yu. Sokolov
    -----------------------------------------------------------------------


    Psi4 started on: Tue Jul  5 16:30:32 2016

    Process ID:  16502
    PSI4DATADIR: /export131/home/mjharvey/miniconda3/share
    Memory level set to 256.000 MB

  ==> Input File <==

--------------------------------------------------------------------------
set {
	reference rhf
	basis 6-31G*
}


set_num_threads( 1 )
memory 2 gb

molecule MOL {
0 1

O	 -0.682937	 1.318834	 -0.186099
C	 -0.860635	 0.152188	 -0.042321
C	 -2.173363	 -0.477127	 0.338347
O	 0.083258	 -0.765189	 -0.202595
H	 -2.477673	 -1.180929	 -0.427595
H	 -2.923125	 0.290956	 0.455536
H	 -2.058825	 -1.029004	 1.264191
C	 1.391937	 -0.334737	 -0.569838
C	 1.380992	 1.085266	 -1.104739
H	 1.802090	 -1.023240	 -1.292941
H	 1.965010	 -0.399995	 0.343851
H	 2.397536	 1.410553	 -1.303628
H	 0.818029	 1.145605	 -2.027669
H	 0.942192	 1.762499	 -0.380014

	symmetry c1
}
set optking {
	frozen_dihedral = ("
		8 4 2 1
	")
}

ee = energy('scf')
oeprop('DIPOLE', 'QUADRUPOLE', 'MULLIKEN_CHARGES')
f=open( 'psi4out.xyz', 'w' )
f.write( "14  " )
f.write( str(ee) + "\n" )
f.write( MOL.save_string_xyz() )
f.close()
--------------------------------------------------------------------------

  Memory set to   2.000 GiB by Python script.

*** tstart() called on cx1-1-2-4.cx1.hpc.ic.ac.uk
*** at Tue Jul  5 16:30:32 2016


         ---------------------------------------------------------
                                   SCF
            by Justin Turney, Rob Parrish, and Andy Simmonett
                              RHF Reference
                        1 Threads,   2000 MiB Core
         ---------------------------------------------------------

  ==> Geometry <==

    Molecular point group: c1
    Full point group: C1

    Geometry (in Angstrom), charge = 0, multiplicity = 1:

       Center              X                  Y                   Z               Mass       
    ------------   -----------------  -----------------  -----------------  -----------------
           O         -0.543749836132     1.149086608547     0.110932726505    15.994914619560
           C         -0.721447836132    -0.017559391453     0.254710726505    12.000000000000
           C         -2.034175836132    -0.646874391453     0.635378726505    12.000000000000
           O          0.222445163868    -0.934936391453     0.094436726505    15.994914619560
           H         -2.338485836132    -1.350676391453    -0.130563273495     1.007825032070
           H         -2.783937836132     0.121208608547     0.752567726505     1.007825032070
           H         -1.919637836132    -1.198751391453     1.561222726505     1.007825032070
           C          1.531124163868    -0.504484391453    -0.272806273495    12.000000000000
           C          1.520179163868     0.915518608547    -0.807707273495    12.000000000000
           H          1.941277163868    -1.192987391453    -0.995909273495     1.007825032070
           H          2.104197163868    -0.569742391453     0.640882726505     1.007825032070
           H          2.536723163868     1.240805608547    -1.006596273495     1.007825032070
           H          0.957216163868     0.975857608547    -1.730637273495     1.007825032070
           H          1.081379163868     1.592751608547    -0.082982273495     1.007825032070

  Running in c1 symmetry.

  Rotational constants: A =      0.25407  B =      0.09517  C =      0.07267 [cm^-1]
  Rotational constants: A =   7616.76031  B =   2853.11483  C =   2178.64509 [MHz]
  Nuclear repulsion =  255.731799147167209

  Charge       = 0
  Multiplicity = 1
  Electrons    = 48
  Nalpha       = 24
  Nbeta        = 24

  ==> Algorithm <==

  SCF Algorithm Type is DF.
  DIIS enabled.
  MOM disabled.
  Fractional occupation disabled.
  Guess Type is CORE.
  Energy threshold   = 1.00e-06
  Density threshold  = 1.00e-06
  Integral threshold = 0.00e+00

  ==> Primary Basis <==

  Basis Set: 6-31G*
    Number of shells: 52
    Number of basis function: 106
    Number of Cartesian functions: 106
    Spherical Harmonics?: false
    Max angular momentum: 2

  ==> Pre-Iterations <==

   -------------------------------------------------------
    Irrep   Nso     Nmo     Nalpha   Nbeta   Ndocc  Nsocc
   -------------------------------------------------------
     A        106     106       0       0       0       0
   -------------------------------------------------------
    Total     106     106      24      24      24       0
   -------------------------------------------------------

 OEINTS: Overlap, kinetic, potential, dipole, and quadrupole integrals
         stored in file 35.

  ==> Integral Setup <==

  ==> DFJK: Density-Fitted J/K Matrices <==

    J tasked:                  Yes
    K tasked:                  Yes
    wK tasked:                  No
    OpenMP threads:              1
    Integrals threads:           1
    Memory (MB):              1430
    Algorithm:                Core
    Integral Cache:           NONE
    Schwarz Cutoff:          1E-12
    Fitting Condition:       1E-12

   => Auxiliary Basis Set <=

  Basis Set: 
    Number of shells: 216
    Number of basis function: 686
    Number of Cartesian functions: 686
    Spherical Harmonics?: false
    Max angular momentum: 3

  Minimum eigenvalue in the overlap matrix is 3.8089301465E-03.
  Using Symmetric Orthogonalization.
  SCF Guess: Core (One-Electron) Hamiltonian.

  ==> Iterations <==

                           Total Energy        Delta E     RMS |[F,P]|

   @DF-RHF iter   1:  -238.72989103100500   -2.38730e+02   8.39999e-02 
   @DF-RHF iter   2:  -230.96212374220792    7.76777e+00   6.28594e-02 DIIS
   @DF-RHF iter   3:  -275.88358588091739   -4.49215e+01   5.66758e-02 DIIS
   @DF-RHF iter   4:  -302.18667482416174   -2.63031e+01   1.90234e-02 DIIS
   @DF-RHF iter   5:  -304.58544508455827   -2.39877e+00   1.41144e-02 DIIS
   @DF-RHF iter   6:  -305.79410582871947   -1.20866e+00   2.02413e-03 DIIS
   @DF-RHF iter   7:  -305.82663581038526   -3.25300e-02   7.28560e-04 DIIS
   @DF-RHF iter   8:  -305.82916227349131   -2.52646e-03   3.22705e-04 DIIS
   @DF-RHF iter   9:  -305.82972259710607   -5.60324e-04   6.13732e-05 DIIS
   @DF-RHF iter  10:  -305.82976794628530   -4.53492e-05   2.18201e-05 DIIS
   @DF-RHF iter  11:  -305.82977297175375   -5.02547e-06   5.75139e-06 DIIS
   @DF-RHF iter  12:  -305.82977338931721   -4.17563e-07   1.87725e-06 DIIS
   @DF-RHF iter  13:  -305.82977343627124   -4.69540e-08   8.53469e-07 DIIS

  ==> Post-Iterations <==

    Orbital Energies (a.u.)
    -----------------------

    Doubly Occupied:                                                      

       1A    -20.603472     2A    -20.538526     3A    -11.381342  
       4A    -11.284377     5A    -11.234640     6A    -11.191223  
       7A     -1.473615     8A     -1.368407     9A     -1.055885  
      10A     -0.990261    11A     -0.884984    12A     -0.763321  
      13A     -0.699649    14A     -0.689211    15A     -0.668704  
      16A     -0.607333    17A     -0.587221    18A     -0.566635  
      19A     -0.540013    20A     -0.539297    21A     -0.523376  
      22A     -0.493625    23A     -0.442142    24A     -0.400281  

    Virtual:                                                              

      25A      0.192803    26A      0.246144    27A      0.262024  
      28A      0.294977    29A      0.305766    30A      0.316100  
      31A      0.333109    32A      0.335903    33A      0.346785  
      34A      0.378085    35A      0.406708    36A      0.430467  
      37A      0.510968    38A      0.563324    39A      0.714375  
      40A      0.716805    41A      0.748175    42A      0.754792  
      43A      0.796743    44A      0.819221    45A      0.822927  
      46A      0.868214    47A      0.918738    48A      0.970984  
      49A      0.976676    50A      1.001468    51A      1.071862  
      52A      1.117911    53A      1.132132    54A      1.154001  
      55A      1.167665    56A      1.181748    57A      1.195202  
      58A      1.202321    59A      1.228249    60A      1.239238  
      61A      1.285790    62A      1.303827    63A      1.373077  
      64A      1.397319    65A      1.475078    66A      1.566894  
      67A      1.599487    68A      1.652314    69A      1.729988  
      70A      1.799712    71A      1.812602    72A      1.852939  
      73A      1.878502    74A      1.970332    75A      2.059639  
      76A      2.083512    77A      2.159485    78A      2.216215  
      79A      2.219934    80A      2.254033    81A      2.286244  
      82A      2.291832    83A      2.380206    84A      2.450460  
      85A      2.474832    86A      2.549723    87A      2.575298  
      88A      2.619016    89A      2.673984    90A      2.705154  
      91A      2.736407    92A      2.784693    93A      2.821614  
      94A      2.898316    95A      2.988114    96A      3.055331  
      97A      3.184489    98A      3.365011    99A      3.413269  
     100A      3.562498   101A      4.430552   102A      4.534610  
     103A      4.614127   104A      4.709245   105A      4.831448  
     106A      4.941716  

    Final Occupation by Irrep:
              A 
    DOCC [    24 ]

  Energy converged.

  @DF-RHF Final Energy:  -305.82977343627124

   => Energetics <=

    Nuclear Repulsion Energy =            255.7317991471672087
    One-Electron Energy =                -924.0682845239268772
    Two-Electron Energy =                 362.5067119404884011
    DFT Exchange-Correlation Energy =       0.0000000000000000
    Empirical Dispersion Energy =           0.0000000000000000
    PCM Polarization Energy =               0.0000000000000000
    EFP Energy =                            0.0000000000000000
    Total Energy =                       -305.8297734362712959

    Alert: EFP and PCM quantities not currently incorporated into SCF psivars.

Properties will be evaluated at   0.000000,   0.000000,   0.000000 Bohr
  ==> Properties <==


Properties computed using the SCF density matrix

  Nuclear Dipole Moment: (a.u.)
     X:     1.4785      Y:    -0.3566      Z:    -0.9290

  Electronic Dipole Moment: (a.u.)
     X:    -1.4885      Y:    -0.3247      Z:     1.0232

  Dipole Moment: (a.u.)
     X:    -0.0100      Y:    -0.6813      Z:     0.0942     Total:     0.6879

  Dipole Moment: (Debye)
     X:    -0.0255      Y:    -1.7318      Z:     0.2394     Total:     1.7484


  Saving occupied orbitals to File 180.

*** tstop() called on cx1-1-2-4.cx1.hpc.ic.ac.uk at Tue Jul  5 16:30:38 2016
Module time:
	user time   =       5.56 seconds =       0.09 minutes
	system time =       0.03 seconds =       0.00 minutes
	total time  =          6 seconds =       0.10 minutes
Total time:
	user time   =       5.56 seconds =       0.09 minutes
	system time =       0.03 seconds =       0.00 minutes
	total time  =          6 seconds =       0.10 minutes


Properties will be evaluated at   0.000000,   0.000000,   0.000000 Bohr

Properties computed using the  density matrix

  Nuclear Dipole Moment: (a.u.)
     X:     1.4785      Y:    -0.3566      Z:    -0.9290

  Electronic Dipole Moment: (a.u.)
     X:    -1.4885      Y:    -0.3247      Z:     1.0232

  Dipole Moment: (a.u.)
     X:    -0.0100      Y:    -0.6813      Z:     0.0942     Total:     0.6879

  Dipole Moment: (Debye)
     X:    -0.0255      Y:    -1.7318      Z:     0.2394     Total:     1.7484

  Quadrupole Moment: (Debye Ang)
    XX:   -32.3278     YY:   -41.0382     ZZ:   -35.4089
    XY:     1.3817     XZ:    -0.7521     YZ:     0.2961

  Traceless Quadrupole Moment: (Debye Ang)
    XX:     3.9305     YY:    -4.7799     ZZ:     0.8494
    XY:     1.3817     XZ:    -0.7521     YZ:     0.2961

  Mulliken Charges: (a.u.)
   Center  Symbol    Alpha    Beta     Spin     Total
       1     O     4.28802  4.28802  0.00000 -0.57604
       2     C     2.61368  2.61368  0.00000  0.77264
       3     C     3.28082  3.28082  0.00000 -0.56164
       4     O     4.31113  4.31113  0.00000 -0.62226
       5     H     0.39989  0.39989  0.00000  0.20022
       6     H     0.39706  0.39706  0.00000  0.20587
       7     H     0.39988  0.39988  0.00000  0.20024
       8     C     2.99901  2.99901  0.00000  0.00199
       9     C     3.26688  3.26688  0.00000 -0.53376
      10     H     0.41049  0.41049  0.00000  0.17902
      11     H     0.41512  0.41512  0.00000  0.16975
      12     H     0.42868  0.42868  0.00000  0.14264
      13     H     0.41773  0.41773  0.00000  0.16454
      14     H     0.37161  0.37161  0.00000  0.25679

   Total alpha = 24.00000, Total beta = 24.00000, Total charge =  0.00000


*** PSI4 exiting successfully. Buy a developer a beer!
