    -----------------------------------------------------------------------
          Psi4: An Open-Source Ab Initio Electronic Structure Package
                              Psi4 (no tag) Driver

                          Git: Rev {detached?}  

    J. M. Turney, A. C. Simmonett, R. M. Parrish, E. G. Hohenstein,
    F. A. Evangelista, J. T. Fermann, B. J. Mintz, L. A. Burns, J. J. Wilke,
    M. L. Abrams, N. J. Russ, M. L. Leininger, C. L. Janssen, E. T. Seidl,
    W. D. Allen, H. F. Schaefer, R. A. King, E. F. Valeev, C. D. Sherrill,
    and T. D. Crawford, WIREs Comput. Mol. Sci. 2, 556-565 (2012)
    (doi: 10.1002/wcms.93)

                         Additional Contributions by
    A. E. DePrince, M. Saitow, U. Bozkaya, A. Yu. Sokolov
    -----------------------------------------------------------------------


    Psi4 started on: Tue Jul  5 18:27:34 2016

    Process ID:   6996
    PSI4DATADIR: /export131/home/mjharvey/miniconda3/share
    Memory level set to 256.000 MB

  ==> Input File <==

--------------------------------------------------------------------------
set {
	reference rhf
	basis 6-31G*
}


set_num_threads( 1 )
memory 2 gb

molecule MOL {
0 1

H	 -2.419011	 0.815210	 1.246554
O	 -1.644418	 0.278876	 1.332709
C	 -1.147539	 0.371727	 2.643642
C	 -2.003064	 -0.370044	 3.664709
H	 -0.156011	 -0.061473	 2.613932
H	 -1.035610	 1.415253	 2.935711
C	 -2.383170	 -1.791485	 3.242934
H	 -1.464547	 -0.401042	 4.608322
H	 -2.908013	 0.210908	 3.834791
C	 -3.350541	 -1.817420	 2.056200
H	 -2.831493	 -2.306803	 4.087812
H	 -1.481252	 -2.344745	 2.980658
C	 -2.966052	 -0.897265	 0.891802
H	 -3.443129	 -2.839033	 1.692080
H	 -4.339058	 -1.531181	 2.409191
C	 -3.034785	 0.600176	 1.203932
H	 -1.951225	 -1.141037	 0.584367
H	 -3.601654	 -1.116777	 0.035261
C	 -4.465221	 1.099239	 1.418936
H	 -2.579565	 1.158425	 0.387083
H	 -2.447531	 0.824935	 2.091017
C	 -5.411106	 0.710962	 0.283063
H	 -4.847259	 0.703375	 2.357459
H	 -4.456195	 2.181939	 1.526468
H	 -5.467273	 -0.368187	 0.171231
H	 -6.416738	 1.077069	 0.465559
H	 -5.076338	 1.123259	 -0.664726

	symmetry c1
}
set optking {
	frozen_dihedral = ("
		14 10 7 4,
		14 10 13 16,
		10 7 4 8,
		8 4 3 2,
		10 13 16 20,
		4 3 2 1
	")
}

ee = energy('scf')
oeprop('DIPOLE', 'QUADRUPOLE', 'MULLIKEN_CHARGES')
f=open( 'psi4out.xyz', 'w' )
f.write( "27  " )
f.write( str(ee) + "\n" )
f.write( MOL.save_string_xyz() )
f.close()
--------------------------------------------------------------------------

  Memory set to   2.000 GiB by Python script.

*** tstart() called on cx1-3-4-2.cx1.hpc.ic.ac.uk
*** at Tue Jul  5 18:27:34 2016


         ---------------------------------------------------------
                                   SCF
            by Justin Turney, Rob Parrish, and Andy Simmonett
                              RHF Reference
                        1 Threads,   2000 MiB Core
         ---------------------------------------------------------

  ==> Geometry <==

    Molecular point group: c1
    Full point group: C1

    Geometry (in Angstrom), charge = 0, multiplicity = 1:

       Center              X                  Y                   Z               Mass       
    ------------   -----------------  -----------------  -----------------  -----------------
           H          0.507220529369     0.994169039395    -0.596160161247     1.007825032070
           O          1.281813529369     0.457835039395    -0.510005161247    15.994914619560
           C          1.778692529369     0.550686039395     0.800927838753    12.000000000000
           C          0.923167529369    -0.191084960605     1.821994838753    12.000000000000
           H          2.770220529369     0.117486039395     0.771217838753     1.007825032070
           H          1.890621529369     1.594212039395     1.092996838753     1.007825032070
           C          0.543061529369    -1.612525960605     1.400219838753    12.000000000000
           H          1.461684529369    -0.222082960605     2.765607838753     1.007825032070
           H          0.018218529369     0.389867039395     1.992076838753     1.007825032070
           C         -0.424309470631    -1.638460960605     0.213485838753    12.000000000000
           H          0.094738529369    -2.127843960605     2.245097838753     1.007825032070
           H          1.444979529369    -2.165785960605     1.137943838753     1.007825032070
           C         -0.039820470631    -0.718305960605    -0.950912161247    12.000000000000
           H         -0.516897470631    -2.660073960605    -0.150634161247     1.007825032070
           H         -1.412826470631    -1.352221960605     0.566476838753     1.007825032070
           C         -0.108553470631     0.779135039395    -0.638782161247    12.000000000000
           H          0.975006529369    -0.962077960605    -1.258347161247     1.007825032070
           H         -0.675422470631    -0.937817960605    -1.807453161247     1.007825032070
           C         -1.538989470631     1.278198039395    -0.423778161247    12.000000000000
           H          0.346666529369     1.337384039395    -1.455631161247     1.007825032070
           H          0.478700529369     1.003894039395     0.248302838753     1.007825032070
           C         -2.484874470631     0.889921039395    -1.559651161247    12.000000000000
           H         -1.921027470631     0.882334039395     0.514744838753     1.007825032070
           H         -1.529963470631     2.360898039395    -0.316246161247     1.007825032070
           H         -2.541041470631    -0.189227960605    -1.671483161247     1.007825032070
           H         -3.490506470631     1.256028039395    -1.377155161247     1.007825032070
           H         -2.150106470631     1.302218039395    -2.507440161247     1.007825032070

  Running in c1 symmetry.

  Rotational constants: A =      0.08389  B =      0.04115  C =      0.03529 [cm^-1]
  Rotational constants: A =   2515.01884  B =   1233.69835  C =   1058.08865 [MHz]
  Nuclear repulsion =  554.303761023210996

  Charge       = 0
  Multiplicity = 1
  Electrons    = 74
  Nalpha       = 37
  Nbeta        = 37

  ==> Algorithm <==

  SCF Algorithm Type is DF.
  DIIS enabled.
  MOM disabled.
  Fractional occupation disabled.
  Guess Type is CORE.
  Energy threshold   = 1.00e-06
  Density threshold  = 1.00e-06
  Integral threshold = 0.00e+00

  ==> Primary Basis <==

  Basis Set: 6-31G*
    Number of shells: 90
    Number of basis function: 171
    Number of Cartesian functions: 171
    Spherical Harmonics?: false
    Max angular momentum: 2

  ==> Pre-Iterations <==

   -------------------------------------------------------
    Irrep   Nso     Nmo     Nalpha   Nbeta   Ndocc  Nsocc
   -------------------------------------------------------
     A        171     171       0       0       0       0
   -------------------------------------------------------
    Total     171     171      37      37      37       0
   -------------------------------------------------------

 OEINTS: Overlap, kinetic, potential, dipole, and quadrupole integrals
         stored in file 35.

  ==> Integral Setup <==

  ==> DFJK: Density-Fitted J/K Matrices <==

    J tasked:                  Yes
    K tasked:                  Yes
    wK tasked:                  No
    OpenMP threads:              1
    Integrals threads:           1
    Memory (MB):              1430
    Algorithm:                Core
    Integral Cache:           NONE
    Schwarz Cutoff:          1E-12
    Fitting Condition:       1E-12

   => Auxiliary Basis Set <=

  Basis Set: 
    Number of shells: 378
    Number of basis function: 1179
    Number of Cartesian functions: 1179
    Spherical Harmonics?: false
    Max angular momentum: 3

  Minimum eigenvalue in the overlap matrix is 1.2960511486E-03.
  Using Symmetric Orthogonalization.
  SCF Guess: Core (One-Electron) Hamiltonian.

  ==> Iterations <==

                           Total Energy        Delta E     RMS |[F,P]|

   @DF-RHF iter   1:  -249.22730284436022   -2.49227e+02   7.02043e-02 
   @DF-RHF iter   2:  -137.81576699927120    1.11412e+02   6.91834e-02 DIIS
   @DF-RHF iter   3:  -279.76521541609077   -1.41949e+02   5.49495e-02 DIIS
   @DF-RHF iter   4:  -313.90886736419941   -3.41437e+01   5.22268e-02 DIIS
   @DF-RHF iter   5:  -384.26514506954743   -7.03563e+01   1.11173e-02 DIIS
   @DF-RHF iter   6:  -386.82800796170443   -2.56286e+00   4.20736e-03 DIIS
   @DF-RHF iter   7:  -387.08040125880245   -2.52393e-01   1.34644e-03 DIIS
   @DF-RHF iter   8:  -387.10293825402698   -2.25370e-02   5.16260e-04 DIIS
   @DF-RHF iter   9:  -387.10745053439643   -4.51228e-03   2.04629e-04 DIIS
   @DF-RHF iter  10:  -387.10824579082851   -7.95256e-04   6.58510e-05 DIIS
   @DF-RHF iter  11:  -387.10835189964928   -1.06109e-04   1.87910e-05 DIIS
   @DF-RHF iter  12:  -387.10836311716741   -1.12175e-05   6.61744e-06 DIIS
   @DF-RHF iter  13:  -387.10836522785019   -2.11068e-06   2.53696e-06 DIIS
   @DF-RHF iter  14:  -387.10836565412922   -4.26279e-07   9.08290e-07 DIIS

  ==> Post-Iterations <==

    Orbital Energies (a.u.)
    -----------------------

    Doubly Occupied:                                                      

       1A    -20.494353     2A    -11.278681     3A    -11.268598  
       4A    -11.227637     5A    -11.219206     6A    -11.210917  
       7A    -11.190795     8A    -11.189433     9A    -11.175723  
      10A     -1.641574    11A     -1.146054    12A     -1.081463  
      13A     -1.016542    14A     -1.007176    15A     -0.912882  
      16A     -0.879717    17A     -0.834680    18A     -0.784507  
      19A     -0.751302    20A     -0.674760    21A     -0.664016  
      22A     -0.635706    23A     -0.615529    24A     -0.589721  
      25A     -0.574943    26A     -0.553464    27A     -0.553095  
      28A     -0.519539    29A     -0.504470    30A     -0.498742  
      31A     -0.468627    32A     -0.464079    33A     -0.462712  
      34A     -0.448546    35A     -0.439271    36A     -0.348584  
      37A     -0.248664  

    Virtual:                                                              

      38A      0.200370    39A      0.240094    40A      0.249031  
      41A      0.256522    42A      0.278825    43A      0.282575  
      44A      0.297263    45A      0.312724    46A      0.318503  
      47A      0.323870    48A      0.333062    49A      0.336385  
      50A      0.354032    51A      0.363175    52A      0.368820  
      53A      0.383706    54A      0.384298    55A      0.408912  
      56A      0.421487    57A      0.422909    58A      0.436178  
      59A      0.448928    60A      0.469985    61A      0.491852  
      62A      0.517424    63A      0.579366    64A      0.682684  
      65A      0.718588    66A      0.723818    67A      0.731354  
      68A      0.754036    69A      0.767026    70A      0.782026  
      71A      0.818907    72A      0.849640    73A      0.874317  
      74A      0.885048    75A      0.903659    76A      0.919948  
      77A      0.956908    78A      0.976269    79A      0.986281  
      80A      1.005932    81A      1.010025    82A      1.054261  
      83A      1.072129    84A      1.100656    85A      1.108531  
      86A      1.130420    87A      1.141336    88A      1.149344  
      89A      1.155784    90A      1.170552    91A      1.178966  
      92A      1.180393    93A      1.186135    94A      1.204796  
      95A      1.220203    96A      1.230659    97A      1.236448  
      98A      1.247244    99A      1.272752   100A      1.284430  
     101A      1.286040   102A      1.305425   103A      1.340181  
     104A      1.357290   105A      1.419719   106A      1.451248  
     107A      1.502393   108A      1.574980   109A      1.612313  
     110A      1.623005   111A      1.696173   112A      1.733406  
     113A      1.749376   114A      1.766603   115A      1.790920  
     116A      1.824265   117A      1.893267   118A      1.922236  
     119A      1.951950   120A      2.018627   121A      2.031261  
     122A      2.061675   123A      2.082911   124A      2.107997  
     125A      2.155265   126A      2.186046   127A      2.233661  
     128A      2.249869   129A      2.287475   130A      2.312116  
     131A      2.331862   132A      2.344756   133A      2.380215  
     134A      2.388835   135A      2.407517   136A      2.460062  
     137A      2.474779   138A      2.527249   139A      2.564600  
     140A      2.569989   141A      2.649863   142A      2.669087  
     143A      2.685711   144A      2.699514   145A      2.712996  
     146A      2.737684   147A      2.749752   148A      2.757475  
     149A      2.793043   150A      2.801439   151A      2.835532  
     152A      2.888717   153A      2.951164   154A      2.973818  
     155A      2.998049   156A      3.028868   157A      3.053407  
     158A      3.109067   159A      3.166036   160A      3.266377  
     161A      3.552961   162A      4.538523   163A      4.591220  
     164A      4.660904   165A      4.725707   166A      4.834814  
     167A      4.873513   168A      4.968209   169A      5.001562  
     170A      5.064249   171A      5.140771  

    Final Occupation by Irrep:
              A 
    DOCC [    37 ]

  Energy converged.

  @DF-RHF Final Energy:  -387.10836565412922

   => Energetics <=

    Nuclear Repulsion Energy =            554.3037610232109955
    One-Electron Energy =               -1623.6728001405808754
    Two-Electron Energy =                 682.2606734632406642
    DFT Exchange-Correlation Energy =       0.0000000000000000
    Empirical Dispersion Energy =           0.0000000000000000
    PCM Polarization Energy =               0.0000000000000000
    EFP Energy =                            0.0000000000000000
    Total Energy =                       -387.1083656541293294

    Alert: EFP and PCM quantities not currently incorporated into SCF psivars.

Properties will be evaluated at   0.000000,   0.000000,   0.000000 Bohr
  ==> Properties <==


Properties computed using the SCF density matrix

  Nuclear Dipole Moment: (a.u.)
     X:    -3.9778      Y:     0.5847      Z:     0.1793

  Electronic Dipole Moment: (a.u.)
     X:     4.5256      Y:    -0.4552      Z:     0.3848

  Dipole Moment: (a.u.)
     X:     0.5478      Y:     0.1295      Z:     0.5641     Total:     0.7969

  Dipole Moment: (Debye)
     X:     1.3924      Y:     0.3291      Z:     1.4339     Total:     2.0256


  Saving occupied orbitals to File 180.

*** tstop() called on cx1-3-4-2.cx1.hpc.ic.ac.uk at Tue Jul  5 18:28:08 2016
Module time:
	user time   =      33.34 seconds =       0.56 minutes
	system time =       0.30 seconds =       0.01 minutes
	total time  =         34 seconds =       0.57 minutes
Total time:
	user time   =      33.34 seconds =       0.56 minutes
	system time =       0.30 seconds =       0.01 minutes
	total time  =         34 seconds =       0.57 minutes


Properties will be evaluated at   0.000000,   0.000000,   0.000000 Bohr

Properties computed using the  density matrix

  Nuclear Dipole Moment: (a.u.)
     X:    -3.9778      Y:     0.5847      Z:     0.1793

  Electronic Dipole Moment: (a.u.)
     X:     4.5256      Y:    -0.4552      Z:     0.3848

  Dipole Moment: (a.u.)
     X:     0.5478      Y:     0.1295      Z:     0.5641     Total:     0.7969

  Dipole Moment: (Debye)
     X:     1.3924      Y:     0.3291      Z:     1.4339     Total:     2.0256

  Quadrupole Moment: (Debye Ang)
    XX:   -62.2049     YY:   -59.8497     ZZ:   -60.0177
    XY:     1.4710     XZ:     1.2236     YZ:    -0.8393

  Traceless Quadrupole Moment: (Debye Ang)
    XX:    -1.5141     YY:     0.8410     ZZ:     0.6731
    XY:     1.4710     XZ:     1.2236     YZ:    -0.8393

  Mulliken Charges: (a.u.)
   Center  Symbol    Alpha    Beta     Spin     Total
       1     H     0.42920  0.42920  0.00000  0.14160
       2     O     4.28411  4.28411  0.00000 -0.56821
       3     C     3.07068  3.07068  0.00000 -0.14136
       4     C     3.19100  3.19100  0.00000 -0.38201
       5     H     0.38856  0.38856  0.00000  0.22288
       6     H     0.40904  0.40904  0.00000  0.18193
       7     C     3.15054  3.15054  0.00000 -0.30109
       8     H     0.41148  0.41148  0.00000  0.17705
       9     H     0.40404  0.40404  0.00000  0.19192
      10     C     3.15031  3.15031  0.00000 -0.30062
      11     H     0.41585  0.41585  0.00000  0.16830
      12     H     0.42265  0.42265  0.00000  0.15471
      13     C     3.17248  3.17248  0.00000 -0.34497
      14     H     0.41831  0.41831  0.00000  0.16339
      15     H     0.42170  0.42170  0.00000  0.15660
      16     C     3.08785  3.08785  0.00000 -0.17569
      17     H     0.39176  0.39176  0.00000  0.21648
      18     H     0.43245  0.43245  0.00000  0.13510
      19     C     3.16291  3.16291  0.00000 -0.32582
      20     H     0.37252  0.37252  0.00000  0.25495
      21     H     0.42481  0.42481  0.00000  0.15037
      22     C     3.24463  3.24463  0.00000 -0.48927
      23     H     0.43216  0.43216  0.00000  0.13568
      24     H     0.43694  0.43694  0.00000  0.12612
      25     H     0.41990  0.41990  0.00000  0.16019
      26     H     0.42449  0.42449  0.00000  0.15101
      27     H     0.42962  0.42962  0.00000  0.14076

   Total alpha = 37.00000, Total beta = 37.00000, Total charge =  0.00000


*** PSI4 exiting successfully. Buy a developer a beer!
