    -----------------------------------------------------------------------
          Psi4: An Open-Source Ab Initio Electronic Structure Package
                              Psi4 (no tag) Driver

                          Git: Rev {detached?}  

    J. M. Turney, A. C. Simmonett, R. M. Parrish, E. G. Hohenstein,
    F. A. Evangelista, J. T. Fermann, B. J. Mintz, L. A. Burns, J. J. Wilke,
    M. L. Abrams, N. J. Russ, M. L. Leininger, C. L. Janssen, E. T. Seidl,
    W. D. Allen, H. F. Schaefer, R. A. King, E. F. Valeev, C. D. Sherrill,
    and T. D. Crawford, WIREs Comput. Mol. Sci. 2, 556-565 (2012)
    (doi: 10.1002/wcms.93)

                         Additional Contributions by
    A. E. DePrince, M. Saitow, U. Bozkaya, A. Yu. Sokolov
    -----------------------------------------------------------------------


    Psi4 started on: Tue Jul  5 16:24:07 2016

    Process ID:  26425
    PSI4DATADIR: /export131/home/mjharvey/miniconda3/share
    Memory level set to 256.000 MB

  ==> Input File <==

--------------------------------------------------------------------------
set {
	reference rhf
	basis 6-31G*
}


set_num_threads( 1 )
memory 2 gb

molecule MOL {
0 1

H	 -0.216825	 0.021369	 -3.357402
C	 0.374198	 0.036393	 -2.447010
C	 -0.521757	 -0.028637	 -1.217342
H	 0.969602	 0.942322	 -2.434777
H	 1.053364	 -0.811668	 -2.481329
N	 0.263400	 0.031178	 0.000000
H	 -1.199035	 0.820290	 -1.219355
H	 -1.147901	 -0.924895	 -1.265384
C	 -0.521757	 -0.028637	 1.217342
H	 0.935769	 -0.712709	 0.000000
C	 -2.008328	 0.101163	 0.913520
H	 -0.332613	 -0.988249	 1.689313
H	 -0.226104	 0.736694	 1.941565
H	 -2.325101	 -0.678576	 0.230127
H	 -2.596837	 0.026532	 1.822604
H	 -2.231376	 1.061084	 0.454768

	symmetry c1
}
ee = energy('scf')
oeprop('DIPOLE', 'QUADRUPOLE', 'MULLIKEN_CHARGES')
f=open( 'psi4out.xyz', 'w' )
f.write( "16  " )
f.write( str(ee) + "\n" )
f.write( MOL.save_string_xyz() )
f.close()
--------------------------------------------------------------------------

  Memory set to   2.000 GiB by Python script.

*** tstart() called on cx1-3-1-3.cx1.hpc.ic.ac.uk
*** at Tue Jul  5 16:24:07 2016


         ---------------------------------------------------------
                                   SCF
            by Justin Turney, Rob Parrish, and Andy Simmonett
                              RHF Reference
                        1 Threads,   2000 MiB Core
         ---------------------------------------------------------

  ==> Geometry <==

    Molecular point group: c1
    Full point group: C1

    Geometry (in Angstrom), charge = 0, multiplicity = 1:

       Center              X                  Y                   Z               Mass       
    ------------   -----------------  -----------------  -----------------  -----------------
           H          0.273229020708     0.009216823502    -3.041925614879     1.007825032070
           C          0.864252020708     0.024240823502    -2.131533614879    12.000000000000
           C         -0.031702979292    -0.040789176498    -0.901865614879    12.000000000000
           H          1.459656020708     0.930169823502    -2.119300614879     1.007825032070
           H          1.543418020708    -0.823820176498    -2.165852614879     1.007825032070
           N          0.753454020708     0.019025823502     0.315476385121    14.003074004780
           H         -0.708980979292     0.808137823502    -0.903878614879     1.007825032070
           H         -0.657846979292    -0.937047176498    -0.949907614879     1.007825032070
           C         -0.031702979292    -0.040789176498     1.532818385121    12.000000000000
           H          1.425823020708    -0.724861176498     0.315476385121     1.007825032070
           C         -1.518273979292     0.089010823502     1.228996385121    12.000000000000
           H          0.157441020708    -1.000401176498     2.004789385121     1.007825032070
           H          0.263950020708     0.724541823502     2.257041385121     1.007825032070
           H         -1.835046979292    -0.690728176498     0.545603385121     1.007825032070
           H         -2.106782979292     0.014379823502     2.138080385121     1.007825032070
           H         -1.741321979292     1.048931823502     0.770244385121     1.007825032070

  Running in c1 symmetry.

  Rotational constants: A =      0.37895  B =      0.09393  C =      0.08008 [cm^-1]
  Rotational constants: A =  11360.70218  B =   2815.80935  C =   2400.83302 [MHz]
  Nuclear repulsion =  194.806548448670895

  Charge       = 0
  Multiplicity = 1
  Electrons    = 42
  Nalpha       = 21
  Nbeta        = 21

  ==> Algorithm <==

  SCF Algorithm Type is DF.
  DIIS enabled.
  MOM disabled.
  Fractional occupation disabled.
  Guess Type is CORE.
  Energy threshold   = 1.00e-06
  Density threshold  = 1.00e-06
  Integral threshold = 0.00e+00

  ==> Primary Basis <==

  Basis Set: 6-31G*
    Number of shells: 52
    Number of basis function: 97
    Number of Cartesian functions: 97
    Spherical Harmonics?: false
    Max angular momentum: 2

  ==> Pre-Iterations <==

   -------------------------------------------------------
    Irrep   Nso     Nmo     Nalpha   Nbeta   Ndocc  Nsocc
   -------------------------------------------------------
     A         97      97       0       0       0       0
   -------------------------------------------------------
    Total      97      97      21      21      21       0
   -------------------------------------------------------

 OEINTS: Overlap, kinetic, potential, dipole, and quadrupole integrals
         stored in file 35.

  ==> Integral Setup <==

  ==> DFJK: Density-Fitted J/K Matrices <==

    J tasked:                  Yes
    K tasked:                  Yes
    wK tasked:                  No
    OpenMP threads:              1
    Integrals threads:           1
    Memory (MB):              1430
    Algorithm:                Core
    Integral Cache:           NONE
    Schwarz Cutoff:          1E-12
    Fitting Condition:       1E-12

   => Auxiliary Basis Set <=

  Basis Set: 
    Number of shells: 219
    Number of basis function: 680
    Number of Cartesian functions: 680
    Spherical Harmonics?: false
    Max angular momentum: 3

  Minimum eigenvalue in the overlap matrix is 3.6104453254E-03.
  Using Symmetric Orthogonalization.
  SCF Guess: Core (One-Electron) Hamiltonian.

  ==> Iterations <==

                           Total Energy        Delta E     RMS |[F,P]|

   @DF-RHF iter   1:  -162.85562466413458   -1.62856e+02   7.78593e-02 
   @DF-RHF iter   2:  -122.87145363262422    3.99842e+01   7.11792e-02 DIIS
   @DF-RHF iter   3:  -179.35792337183810   -5.64865e+01   4.85393e-02 DIIS
   @DF-RHF iter   4:  -186.23651282944732   -6.87859e+00   5.52024e-02 DIIS
   @DF-RHF iter   5:  -212.18748583104266   -2.59510e+01   4.43828e-03 DIIS
   @DF-RHF iter   6:  -212.28027480903964   -9.27890e-02   1.57832e-03 DIIS
   @DF-RHF iter   7:  -212.29189470498599   -1.16199e-02   4.69172e-04 DIIS
   @DF-RHF iter   8:  -212.29330292206092   -1.40822e-03   8.58368e-05 DIIS
   @DF-RHF iter   9:  -212.29335997023495   -5.70482e-05   3.75084e-05 DIIS
   @DF-RHF iter  10:  -212.29336852737387   -8.55714e-06   1.28081e-05 DIIS
   @DF-RHF iter  11:  -212.29337001129559   -1.48392e-06   2.69445e-06 DIIS
   @DF-RHF iter  12:  -212.29337008851834   -7.72228e-08   8.54855e-07 DIIS

  ==> Post-Iterations <==

    Orbital Energies (a.u.)
    -----------------------

    Doubly Occupied:                                                      

       1A    -15.530429     2A    -11.240382     3A    -11.238210  
       4A    -11.208487     5A    -11.206142     6A     -1.207054  
       7A     -1.020265     8A     -0.971109     9A     -0.859882  
      10A     -0.786679    11A     -0.669085    12A     -0.635721  
      13A     -0.603906    14A     -0.591604    15A     -0.539355  
      16A     -0.520688    17A     -0.502596    18A     -0.498202  
      19A     -0.487177    20A     -0.471537    21A     -0.349441  

    Virtual:                                                              

      22A      0.225849    23A      0.253796    24A      0.264408  
      25A      0.286027    26A      0.314562    27A      0.317022  
      28A      0.329737    29A      0.334600    30A      0.351241  
      31A      0.371350    32A      0.391127    33A      0.419433  
      34A      0.424410    35A      0.463009    36A      0.486862  
      37A      0.717454    38A      0.739933    39A      0.743041  
      40A      0.746207    41A      0.772769    42A      0.871390  
      43A      0.873334    44A      0.882879    45A      0.941847  
      46A      0.956304    47A      0.981464    48A      1.047961  
      49A      1.117763    50A      1.129486    51A      1.163028  
      52A      1.168543    53A      1.173392    54A      1.198843  
      55A      1.201391    56A      1.204678    57A      1.219862  
      58A      1.232073    59A      1.249809    60A      1.269999  
      61A      1.290206    62A      1.345025    63A      1.365617  
      64A      1.560848    65A      1.659673    66A      1.677858  
      67A      1.736664    68A      1.766136    69A      1.882604  
      70A      1.999469    71A      2.076625    72A      2.170434  
      73A      2.212407    74A      2.229705    75A      2.277534  
      76A      2.314519    77A      2.334223    78A      2.436178  
      79A      2.469603    80A      2.522179    81A      2.541964  
      82A      2.604772    83A      2.648749    84A      2.666737  
      85A      2.684870    86A      2.781585    87A      2.786568  
      88A      2.833544    89A      2.957322    90A      3.016210  
      91A      3.157726    92A      3.227551    93A      4.385575  
      94A      4.630637    95A      4.654813    96A      4.826515  
      97A      4.948575  

    Final Occupation by Irrep:
              A 
    DOCC [    21 ]

  Energy converged.

  @DF-RHF Final Energy:  -212.29337008851834

   => Energetics <=

    Nuclear Repulsion Energy =            194.8065484486708954
    One-Electron Energy =                -671.9241668910779026
    Two-Electron Energy =                 264.8242483538886631
    DFT Exchange-Correlation Energy =       0.0000000000000000
    Empirical Dispersion Energy =           0.0000000000000000
    PCM Polarization Energy =               0.0000000000000000
    EFP Energy =                            0.0000000000000000
    Total Energy =                       -212.2933700885183157

    Alert: EFP and PCM quantities not currently incorporated into SCF psivars.

Properties will be evaluated at   0.000000,   0.000000,   0.000000 Bohr
  ==> Properties <==


Properties computed using the SCF density matrix

  Nuclear Dipole Moment: (a.u.)
     X:    -1.8082      Y:    -0.6014      Z:    -1.0787

  Electronic Dipole Moment: (a.u.)
     X:     1.5860      Y:     0.1830      Z:     1.0829

  Dipole Moment: (a.u.)
     X:    -0.2222      Y:    -0.4185      Z:     0.0042     Total:     0.4738

  Dipole Moment: (Debye)
     X:    -0.5648      Y:    -1.0636      Z:     0.0107     Total:     1.2043


  Saving occupied orbitals to File 180.

*** tstop() called on cx1-3-1-3.cx1.hpc.ic.ac.uk at Tue Jul  5 16:24:12 2016
Module time:
	user time   =       4.99 seconds =       0.08 minutes
	system time =       0.04 seconds =       0.00 minutes
	total time  =          5 seconds =       0.08 minutes
Total time:
	user time   =       4.99 seconds =       0.08 minutes
	system time =       0.04 seconds =       0.00 minutes
	total time  =          5 seconds =       0.08 minutes


Properties will be evaluated at   0.000000,   0.000000,   0.000000 Bohr

Properties computed using the  density matrix

  Nuclear Dipole Moment: (a.u.)
     X:    -1.8082      Y:    -0.6014      Z:    -1.0787

  Electronic Dipole Moment: (a.u.)
     X:     1.5860      Y:     0.1830      Z:     1.0829

  Dipole Moment: (a.u.)
     X:    -0.2222      Y:    -0.4185      Z:     0.0042     Total:     0.4738

  Dipole Moment: (Debye)
     X:    -0.5648      Y:    -1.0636      Z:     0.0107     Total:     1.2043

  Quadrupole Moment: (Debye Ang)
    XX:   -34.8962     YY:   -33.9335     ZZ:   -33.6140
    XY:    -2.1357     XZ:     0.0599     YZ:    -0.5367

  Traceless Quadrupole Moment: (Debye Ang)
    XX:    -0.7483     YY:     0.2144     ZZ:     0.5339
    XY:    -2.1357     XZ:     0.0599     YZ:    -0.5367

  Mulliken Charges: (a.u.)
   Center  Symbol    Alpha    Beta     Spin     Total
       1     H     0.42124  0.42124  0.00000  0.15753
       2     C     3.23817  3.23817  0.00000 -0.47633
       3     C     3.06106  3.06106  0.00000 -0.12212
       4     H     0.41266  0.41266  0.00000  0.17469
       5     H     0.42601  0.42601  0.00000  0.14799
       6     N     3.85420  3.85420  0.00000 -0.70840
       7     H     0.41680  0.41680  0.00000  0.16641
       8     H     0.43417  0.43417  0.00000  0.13165
       9     C     3.04352  3.04352  0.00000 -0.08705
      10     H     0.33297  0.33297  0.00000  0.33406
      11     C     3.26063  3.26063  0.00000 -0.52126
      12     H     0.43061  0.43061  0.00000  0.13878
      13     H     0.42092  0.42092  0.00000  0.15815
      14     H     0.41624  0.41624  0.00000  0.16753
      15     H     0.41581  0.41581  0.00000  0.16837
      16     H     0.41500  0.41500  0.00000  0.17000

   Total alpha = 21.00000, Total beta = 21.00000, Total charge = -0.00000


*** PSI4 exiting successfully. Buy a developer a beer!
