    -----------------------------------------------------------------------
          Psi4: An Open-Source Ab Initio Electronic Structure Package
                              Psi4 (no tag) Driver

                          Git: Rev {detached?}  

    J. M. Turney, A. C. Simmonett, R. M. Parrish, E. G. Hohenstein,
    F. A. Evangelista, J. T. Fermann, B. J. Mintz, L. A. Burns, J. J. Wilke,
    M. L. Abrams, N. J. Russ, M. L. Leininger, C. L. Janssen, E. T. Seidl,
    W. D. Allen, H. F. Schaefer, R. A. King, E. F. Valeev, C. D. Sherrill,
    and T. D. Crawford, WIREs Comput. Mol. Sci. 2, 556-565 (2012)
    (doi: 10.1002/wcms.93)

                         Additional Contributions by
    A. E. DePrince, M. Saitow, U. Bozkaya, A. Yu. Sokolov
    -----------------------------------------------------------------------


    Psi4 started on: Tue Jul  5 16:45:24 2016

    Process ID:  16550
    PSI4DATADIR: /export131/home/mjharvey/miniconda3/share
    Memory level set to 256.000 MB

  ==> Input File <==

--------------------------------------------------------------------------
set {
	reference rhf
	basis 6-31G*
}


set_num_threads( 1 )
memory 2 gb

molecule MOL {
0 1

H	 -2.240291	 0.559484	 0.604969
C	 -2.008299	 -0.205926	 -0.129530
O	 -0.774054	 0.001095	 -0.743181
H	 -2.752932	 -0.160639	 -0.912984
H	 -2.076115	 -1.178578	 0.348530
C	 0.042438	 -1.109753	 -1.068587
C	 1.147385	 -0.505109	 -1.932016
C	 0.648196	 -1.737986	 0.190607
C	 -0.738588	 -2.152770	 -1.874335
H	 1.685144	 0.252621	 -1.373364
H	 0.719720	 -0.035384	 -2.810558
H	 1.852389	 -1.264954	 -2.253366
H	 1.137774	 -0.978347	 0.790850
H	 1.385582	 -2.486672	 -0.080191
H	 -0.100256	 -2.227723	 0.804230
H	 -1.222852	 -1.684675	 -2.724880
H	 -0.067859	 -2.921498	 -2.244084
H	 -1.498595	 -2.645711	 -1.277652

	symmetry c1
}
set optking {
	frozen_dihedral = ("
		2 3 6 7
	")
}

ee = energy('scf')
oeprop('DIPOLE', 'QUADRUPOLE', 'MULLIKEN_CHARGES')
f=open( 'psi4out.xyz', 'w' )
f.write( "18  " )
f.write( str(ee) + "\n" )
f.write( MOL.save_string_xyz() )
f.close()
--------------------------------------------------------------------------

  Memory set to   2.000 GiB by Python script.

*** tstart() called on cx1-1-4-3.cx1.hpc.ic.ac.uk
*** at Tue Jul  5 16:45:25 2016


         ---------------------------------------------------------
                                   SCF
            by Justin Turney, Rob Parrish, and Andy Simmonett
                              RHF Reference
                        1 Threads,   2000 MiB Core
         ---------------------------------------------------------

  ==> Geometry <==

    Molecular point group: c1
    Full point group: C1

    Geometry (in Angstrom), charge = 0, multiplicity = 1:

       Center              X                  Y                   Z               Mass       
    ------------   -----------------  -----------------  -----------------  -----------------
           H         -1.939566045661     1.506354286912     1.523008702398     1.007825032070
           C         -1.707574045661     0.740944286912     0.788509702398    12.000000000000
           O         -0.473329045661     0.947965286912     0.174858702398    15.994914619560
           H         -2.452207045661     0.786231286912     0.005055702398     1.007825032070
           H         -1.775390045661    -0.231707713088     1.266569702398     1.007825032070
           C          0.343162954339    -0.162882713088    -0.150547297602    12.000000000000
           C          1.448109954339     0.441761286912    -1.013976297602    12.000000000000
           C          0.948920954339    -0.791115713088     1.108646702398    12.000000000000
           C         -0.437863045661    -1.205899713088    -0.956295297602    12.000000000000
           H          1.985868954339     1.199491286912    -0.455324297602     1.007825032070
           H          1.020444954339     0.911486286912    -1.892518297602     1.007825032070
           H          2.153113954339    -0.318083713088    -1.335326297602     1.007825032070
           H          1.438498954339    -0.031476713088     1.708889702398     1.007825032070
           H          1.686306954339    -1.539801713088     0.837848702398     1.007825032070
           H          0.200468954339    -1.280852713088     1.722269702398     1.007825032070
           H         -0.922127045661    -0.737804713088    -1.806840297602     1.007825032070
           H          0.232865954339    -1.974627713088    -1.326044297602     1.007825032070
           H         -1.197870045661    -1.698840713088    -0.359612297602     1.007825032070

  Running in c1 symmetry.

  Rotational constants: A =      0.14724  B =      0.09163  C =      0.09147 [cm^-1]
  Rotational constants: A =   4414.13835  B =   2746.91933  C =   2742.21985 [MHz]
  Nuclear repulsion =  272.383453442934069

  Charge       = 0
  Multiplicity = 1
  Electrons    = 50
  Nalpha       = 25
  Nbeta        = 25

  ==> Algorithm <==

  SCF Algorithm Type is DF.
  DIIS enabled.
  MOM disabled.
  Fractional occupation disabled.
  Guess Type is CORE.
  Energy threshold   = 1.00e-06
  Density threshold  = 1.00e-06
  Integral threshold = 0.00e+00

  ==> Primary Basis <==

  Basis Set: 6-31G*
    Number of shells: 60
    Number of basis function: 114
    Number of Cartesian functions: 114
    Spherical Harmonics?: false
    Max angular momentum: 2

  ==> Pre-Iterations <==

   -------------------------------------------------------
    Irrep   Nso     Nmo     Nalpha   Nbeta   Ndocc  Nsocc
   -------------------------------------------------------
     A        114     114       0       0       0       0
   -------------------------------------------------------
    Total     114     114      25      25      25       0
   -------------------------------------------------------

 OEINTS: Overlap, kinetic, potential, dipole, and quadrupole integrals
         stored in file 35.

  ==> Integral Setup <==

  ==> DFJK: Density-Fitted J/K Matrices <==

    J tasked:                  Yes
    K tasked:                  Yes
    wK tasked:                  No
    OpenMP threads:              1
    Integrals threads:           1
    Memory (MB):              1430
    Algorithm:                Core
    Integral Cache:           NONE
    Schwarz Cutoff:          1E-12
    Fitting Condition:       1E-12

   => Auxiliary Basis Set <=

  Basis Set: 
    Number of shells: 252
    Number of basis function: 786
    Number of Cartesian functions: 786
    Spherical Harmonics?: false
    Max angular momentum: 3

  Minimum eigenvalue in the overlap matrix is 3.1629399266E-03.
  Using Symmetric Orthogonalization.
  SCF Guess: Core (One-Electron) Hamiltonian.

  ==> Iterations <==

                           Total Energy        Delta E     RMS |[F,P]|

   @DF-RHF iter   1:  -178.67574404034485   -1.78676e+02   9.78622e-02 
   @DF-RHF iter   2:  -221.16790172602794   -4.24922e+01   4.68633e-02 DIIS
   @DF-RHF iter   3:  -240.91494901884505   -1.97470e+01   5.48423e-02 DIIS
   @DF-RHF iter   4:  -263.14705838020905   -2.22321e+01   3.53345e-02 DIIS
   @DF-RHF iter   5:  -268.28785255800540   -5.14079e+00   2.08142e-02 DIIS
   @DF-RHF iter   6:  -270.48077640901340   -2.19292e+00   1.01460e-02 DIIS
   @DF-RHF iter   7:  -271.11487282903408   -6.34096e-01   2.79804e-03 DIIS
   @DF-RHF iter   8:  -271.16662339417906   -5.17506e-02   8.35771e-04 DIIS
   @DF-RHF iter   9:  -271.17186209654710   -5.23870e-03   1.60495e-04 DIIS
   @DF-RHF iter  10:  -271.17212700242703   -2.64906e-04   5.75426e-05 DIIS
   @DF-RHF iter  11:  -271.17216687989458   -3.98775e-05   2.68366e-05 DIIS
   @DF-RHF iter  12:  -271.17217346163636   -6.58174e-06   5.19196e-06 DIIS
   @DF-RHF iter  13:  -271.17217386367668   -4.02040e-07   1.15411e-06 DIIS
   @DF-RHF iter  14:  -271.17217388051040   -1.68337e-08   3.56686e-07 DIIS

  ==> Post-Iterations <==

    Orbital Energies (a.u.)
    -----------------------

    Doubly Occupied:                                                      

       1A    -20.543951     2A    -11.282203     3A    -11.260792  
       4A    -11.209674     5A    -11.207952     6A    -11.203224  
       7A     -1.368999     8A     -1.072876     9A     -0.946850  
      10A     -0.939176    11A     -0.911911    12A     -0.752493  
      13A     -0.654712    14A     -0.644684    15A     -0.639796  
      16A     -0.589539    17A     -0.572826    18A     -0.551298  
      19A     -0.538068    20A     -0.524207    21A     -0.515186  
      22A     -0.489800    23A     -0.486740    24A     -0.438057  
      25A     -0.400059  

    Virtual:                                                              

      26A      0.217615    27A      0.262478    28A      0.278874  
      29A      0.287598    30A      0.303839    31A      0.312533  
      32A      0.321003    33A      0.331354    34A      0.353080  
      35A      0.358079    36A      0.364209    37A      0.382351  
      38A      0.390165    39A      0.392486    40A      0.431038  
      41A      0.443502    42A      0.487266    43A      0.686039  
      44A      0.712481    45A      0.717407    46A      0.747793  
      47A      0.760954    48A      0.822812    49A      0.854340  
      50A      0.877592    51A      0.906066    52A      0.923528  
      53A      0.969146    54A      0.995666    55A      1.009739  
      56A      1.071567    57A      1.104652    58A      1.108638  
      59A      1.140219    60A      1.166767    61A      1.171157  
      62A      1.184871    63A      1.191042    64A      1.196971  
      65A      1.218852    66A      1.225166    67A      1.228595  
      68A      1.259693    69A      1.268824    70A      1.290578  
      71A      1.326566    72A      1.406820    73A      1.440134  
      74A      1.606349    75A      1.643859    76A      1.674365  
      77A      1.713137    78A      1.732031    79A      1.871004  
      80A      1.921692    81A      2.000018    82A      2.024360  
      83A      2.056404    84A      2.113357    85A      2.178617  
      86A      2.186992    87A      2.253453    88A      2.290631  
      89A      2.400638    90A      2.406389    91A      2.457543  
      92A      2.477146    93A      2.511939    94A      2.568529  
      95A      2.584281    96A      2.599444    97A      2.615880  
      98A      2.622752    99A      2.633887   100A      2.691093  
     101A      2.759413   102A      2.795402   103A      2.895426  
     104A      2.961243   105A      3.086696   106A      3.115442  
     107A      3.284609   108A      3.351270   109A      4.406520  
     110A      4.636698   111A      4.687517   112A      4.743088  
     113A      4.762156   114A      5.092586  

    Final Occupation by Irrep:
              A 
    DOCC [    25 ]

  Energy converged.

  @DF-RHF Final Energy:  -271.17217388051040

   => Energetics <=

    Nuclear Repulsion Energy =            272.3834534429340692
    One-Electron Energy =                -907.6209565859890063
    Two-Electron Energy =                 364.0653292625437416
    DFT Exchange-Correlation Energy =       0.0000000000000000
    Empirical Dispersion Energy =           0.0000000000000000
    PCM Polarization Energy =               0.0000000000000000
    EFP Energy =                            0.0000000000000000
    Total Energy =                       -271.1721738805111954

    Alert: EFP and PCM quantities not currently incorporated into SCF psivars.

Properties will be evaluated at   0.000000,   0.000000,   0.000000 Bohr
  ==> Properties <==


Properties computed using the SCF density matrix

  Nuclear Dipole Moment: (a.u.)
     X:     0.4012      Y:    -3.1919      Z:    -0.1042

  Electronic Dipole Moment: (a.u.)
     X:    -0.5563      Y:     2.6864      Z:     0.2213

  Dipole Moment: (a.u.)
     X:    -0.1550      Y:    -0.5055      Z:     0.1171     Total:     0.5415

  Dipole Moment: (Debye)
     X:    -0.3941      Y:    -1.2848      Z:     0.2977     Total:     1.3764


  Saving occupied orbitals to File 180.

*** tstop() called on cx1-1-4-3.cx1.hpc.ic.ac.uk at Tue Jul  5 16:45:34 2016
Module time:
	user time   =       8.70 seconds =       0.14 minutes
	system time =       0.05 seconds =       0.00 minutes
	total time  =          9 seconds =       0.15 minutes
Total time:
	user time   =       8.70 seconds =       0.14 minutes
	system time =       0.05 seconds =       0.00 minutes
	total time  =          9 seconds =       0.15 minutes


Properties will be evaluated at   0.000000,   0.000000,   0.000000 Bohr

Properties computed using the  density matrix

  Nuclear Dipole Moment: (a.u.)
     X:     0.4012      Y:    -3.1919      Z:    -0.1042

  Electronic Dipole Moment: (a.u.)
     X:    -0.5563      Y:     2.6864      Z:     0.2213

  Dipole Moment: (a.u.)
     X:    -0.1550      Y:    -0.5055      Z:     0.1171     Total:     0.5415

  Dipole Moment: (Debye)
     X:    -0.3941      Y:    -1.2848      Z:     0.2977     Total:     1.3764

  Quadrupole Moment: (Debye Ang)
    XX:   -37.6758     YY:   -41.6899     ZZ:   -39.3307
    XY:    -0.4491     XZ:    -1.2820     YZ:     0.4091

  Traceless Quadrupole Moment: (Debye Ang)
    XX:     1.8897     YY:    -2.1245     ZZ:     0.2348
    XY:    -0.4491     XZ:    -1.2820     YZ:     0.4091

  Mulliken Charges: (a.u.)
   Center  Symbol    Alpha    Beta     Spin     Total
       1     H     0.41622  0.41622  0.00000  0.16756
       2     C     3.07731  3.07731  0.00000 -0.15462
       3     O     4.32162  4.32162  0.00000 -0.64324
       4     H     0.42447  0.42447  0.00000  0.15105
       5     H     0.43073  0.43073  0.00000  0.13855
       6     C     2.84346  2.84346  0.00000  0.31308
       7     C     3.23278  3.23278  0.00000 -0.46557
       8     C     3.24290  3.24290  0.00000 -0.48580
       9     C     3.24937  3.24937  0.00000 -0.49874
      10     H     0.41365  0.41365  0.00000  0.17271
      11     H     0.41457  0.41457  0.00000  0.17086
      12     H     0.42532  0.42532  0.00000  0.14937
      13     H     0.41297  0.41297  0.00000  0.17407
      14     H     0.42114  0.42114  0.00000  0.15773
      15     H     0.42137  0.42137  0.00000  0.15726
      16     H     0.41350  0.41350  0.00000  0.17299
      17     H     0.41848  0.41848  0.00000  0.16304
      18     H     0.42014  0.42014  0.00000  0.15971

   Total alpha = 25.00000, Total beta = 25.00000, Total charge = -0.00000


*** PSI4 exiting successfully. Buy a developer a beer!
