    -----------------------------------------------------------------------
          Psi4: An Open-Source Ab Initio Electronic Structure Package
                              Psi4 (no tag) Driver

                          Git: Rev {detached?}  

    J. M. Turney, A. C. Simmonett, R. M. Parrish, E. G. Hohenstein,
    F. A. Evangelista, J. T. Fermann, B. J. Mintz, L. A. Burns, J. J. Wilke,
    M. L. Abrams, N. J. Russ, M. L. Leininger, C. L. Janssen, E. T. Seidl,
    W. D. Allen, H. F. Schaefer, R. A. King, E. F. Valeev, C. D. Sherrill,
    and T. D. Crawford, WIREs Comput. Mol. Sci. 2, 556-565 (2012)
    (doi: 10.1002/wcms.93)

                         Additional Contributions by
    A. E. DePrince, M. Saitow, U. Bozkaya, A. Yu. Sokolov
    -----------------------------------------------------------------------


    Psi4 started on: Tue Jul  5 16:30:02 2016

    Process ID:  11923
    PSI4DATADIR: /export131/home/mjharvey/miniconda3/share
    Memory level set to 256.000 MB

  ==> Input File <==

--------------------------------------------------------------------------
set {
	reference rhf
	basis 6-31G*
}


set_num_threads( 1 )
memory 2 gb

molecule MOL {
0 1

H	 -0.355247	 2.275840	 -0.821755
C	 0.557503	 1.679937	 -0.867300
N	 0.538815	 0.649616	 0.000000
O	 1.449749	 1.946133	 -1.617129
C	 1.521968	 -0.411503	 0.000000
H	 -0.192644	 0.624219	 0.672761
H	 2.150599	 -0.357004	 -0.881901
H	 0.999455	 -1.354525	 0.000000
H	 2.150599	 -0.357004	 0.881901

	symmetry c1
}
set optking {
	frozen_dihedral = ("
		6 3 5 7
	")
}

ee = energy('scf')
oeprop('DIPOLE', 'QUADRUPOLE', 'MULLIKEN_CHARGES')
f=open( 'psi4out.xyz', 'w' )
f.write( "9  " )
f.write( str(ee) + "\n" )
f.write( MOL.save_string_xyz() )
f.close()
--------------------------------------------------------------------------

  Memory set to   2.000 GiB by Python script.

*** tstart() called on cx1-1-4-3.cx1.hpc.ic.ac.uk
*** at Tue Jul  5 16:30:02 2016


         ---------------------------------------------------------
                                   SCF
            by Justin Turney, Rob Parrish, and Andy Simmonett
                              RHF Reference
                        1 Threads,   2000 MiB Core
         ---------------------------------------------------------

  ==> Geometry <==

    Molecular point group: c1
    Full point group: C1

    Geometry (in Angstrom), charge = 0, multiplicity = 1:

       Center              X                  Y                   Z               Mass       
    ------------   -----------------  -----------------  -----------------  -----------------
           H         -1.379641290858     1.322472038638    -0.204793942258     1.007825032070
           C         -0.466891290858     0.726569038638    -0.250338942258    12.000000000000
           N         -0.485579290858    -0.303751961362     0.616961057742    14.003074004780
           O          0.425354709142     0.992765038638    -1.000167942258    15.994914619560
           C          0.497573709142    -1.364870961362     0.616961057742    12.000000000000
           H         -1.217038290858    -0.329148961362     1.289722057742     1.007825032070
           H          1.126204709142    -1.310371961362    -0.264939942258     1.007825032070
           H         -0.024939290858    -2.307892961362     0.616961057742     1.007825032070
           H          1.126204709142    -1.310371961362     1.498862057742     1.007825032070

  Running in c1 symmetry.

  Rotational constants: A =      0.68643  B =      0.20465  C =      0.16266 [cm^-1]
  Rotational constants: A =  20578.65021  B =   6135.37827  C =   4876.32396 [MHz]
  Nuclear repulsion =  122.361700973358751

  Charge       = 0
  Multiplicity = 1
  Electrons    = 32
  Nalpha       = 16
  Nbeta        = 16

  ==> Algorithm <==

  SCF Algorithm Type is DF.
  DIIS enabled.
  MOM disabled.
  Fractional occupation disabled.
  Guess Type is CORE.
  Energy threshold   = 1.00e-06
  Density threshold  = 1.00e-06
  Integral threshold = 0.00e+00

  ==> Primary Basis <==

  Basis Set: 6-31G*
    Number of shells: 34
    Number of basis function: 70
    Number of Cartesian functions: 70
    Spherical Harmonics?: false
    Max angular momentum: 2

  ==> Pre-Iterations <==

   -------------------------------------------------------
    Irrep   Nso     Nmo     Nalpha   Nbeta   Ndocc  Nsocc
   -------------------------------------------------------
     A         70      70       0       0       0       0
   -------------------------------------------------------
    Total      70      70      16      16      16       0
   -------------------------------------------------------

 OEINTS: Overlap, kinetic, potential, dipole, and quadrupole integrals
         stored in file 35.

  ==> Integral Setup <==

  ==> DFJK: Density-Fitted J/K Matrices <==

    J tasked:                  Yes
    K tasked:                  Yes
    wK tasked:                  No
    OpenMP threads:              1
    Integrals threads:           1
    Memory (MB):              1430
    Algorithm:                Core
    Integral Cache:           NONE
    Schwarz Cutoff:          1E-12
    Fitting Condition:       1E-12

   => Auxiliary Basis Set <=

  Basis Set: 
    Number of shells: 141
    Number of basis function: 449
    Number of Cartesian functions: 449
    Spherical Harmonics?: false
    Max angular momentum: 3

  Minimum eigenvalue in the overlap matrix is 4.6460411075E-03.
  Using Symmetric Orthogonalization.
  SCF Guess: Core (One-Electron) Hamiltonian.

  ==> Iterations <==

                           Total Energy        Delta E     RMS |[F,P]|

   @DF-RHF iter   1:  -166.86543685846905   -1.66865e+02   9.45630e-02 
   @DF-RHF iter   2:  -130.40563231485814    3.64598e+01   8.32890e-02 DIIS
   @DF-RHF iter   3:  -190.16902605309056   -5.97634e+01   5.34941e-02 DIIS
   @DF-RHF iter   4:  -207.11611117805282   -1.69471e+01   1.88448e-02 DIIS
   @DF-RHF iter   5:  -207.89908696264976   -7.82976e-01   5.30741e-03 DIIS
   @DF-RHF iter   6:  -207.95694640925549   -5.78594e-02   8.92135e-04 DIIS
   @DF-RHF iter   7:  -207.95920976543246   -2.26336e-03   1.99784e-04 DIIS
   @DF-RHF iter   8:  -207.95939485141585   -1.85086e-04   6.45897e-05 DIIS
   @DF-RHF iter   9:  -207.95941158280286   -1.67314e-05   2.96643e-05 DIIS
   @DF-RHF iter  10:  -207.95941457645122   -2.99365e-06   1.68273e-05 DIIS
   @DF-RHF iter  11:  -207.95941566761590   -1.09116e-06   7.84881e-06 DIIS
   @DF-RHF iter  12:  -207.95941589505927   -2.27443e-07   1.50130e-06 DIIS
   @DF-RHF iter  13:  -207.95941591055336   -1.54941e-08   5.02300e-07 DIIS

  ==> Post-Iterations <==

    Orbital Energies (a.u.)
    -----------------------

    Doubly Occupied:                                                      

       1A    -20.525305     2A    -15.590145     3A    -11.343613  
       4A    -11.261154     5A     -1.388306     6A     -1.236324  
       7A     -0.969076     8A     -0.806951     9A     -0.745523  
      10A     -0.641633    11A     -0.628073    12A     -0.592424  
      13A     -0.555764    14A     -0.535755    15A     -0.423187  
      16A     -0.389556  

    Virtual:                                                              

      17A      0.212114    18A      0.223000    19A      0.266695  
      20A      0.294262    21A      0.318240    22A      0.326350  
      23A      0.385518    24A      0.444244    25A      0.565279  
      26A      0.713537    27A      0.719931    28A      0.778583  
      29A      0.814715    30A      0.846401    31A      0.950230  
      32A      0.994417    33A      1.018998    34A      1.077478  
      35A      1.094086    36A      1.118387    37A      1.146068  
      38A      1.182947    39A      1.203279    40A      1.223339  
      41A      1.317831    42A      1.326577    43A      1.425377  
      44A      1.532298    45A      1.607305    46A      1.653632  
      47A      1.740463    48A      1.806227    49A      1.866896  
      50A      2.060834    51A      2.131281    52A      2.149633  
      53A      2.214784    54A      2.328650    55A      2.366053  
      56A      2.443452    57A      2.561548    58A      2.634219  
      59A      2.667754    60A      2.707522    61A      2.808675  
      62A      2.939903    63A      3.034708    64A      3.127608  
      65A      3.327820    66A      3.490939    67A      4.250449  
      68A      4.391528    69A      4.583186    70A      4.732437  

    Final Occupation by Irrep:
              A 
    DOCC [    16 ]

  Energy converged.

  @DF-RHF Final Energy:  -207.95941591055336

   => Energetics <=

    Nuclear Repulsion Energy =            122.3617009733587508
    One-Electron Energy =                -525.3766863979205937
    Two-Electron Energy =                 195.0555695140084538
    DFT Exchange-Correlation Energy =       0.0000000000000000
    Empirical Dispersion Energy =           0.0000000000000000
    PCM Polarization Energy =               0.0000000000000000
    EFP Energy =                            0.0000000000000000
    Total Energy =                       -207.9594159105533606

    Alert: EFP and PCM quantities not currently incorporated into SCF psivars.

Properties will be evaluated at   0.000000,   0.000000,   0.000000 Bohr
  ==> Properties <==


Properties computed using the SCF density matrix

  Nuclear Dipole Moment: (a.u.)
     X:    -0.3427      Y:    -3.6836      Z:     2.7456

  Electronic Dipole Moment: (a.u.)
     X:    -0.5364      Y:     2.9357      Z:    -1.6397

  Dipole Moment: (a.u.)
     X:    -0.8791      Y:    -0.7479      Z:     1.1060     Total:     1.5985

  Dipole Moment: (Debye)
     X:    -2.2345      Y:    -1.9009      Z:     2.8111     Total:     4.0630


  Saving occupied orbitals to File 180.

*** tstop() called on cx1-1-4-3.cx1.hpc.ic.ac.uk at Tue Jul  5 16:30:05 2016
Module time:
	user time   =       3.02 seconds =       0.05 minutes
	system time =       0.04 seconds =       0.00 minutes
	total time  =          3 seconds =       0.05 minutes
Total time:
	user time   =       3.02 seconds =       0.05 minutes
	system time =       0.04 seconds =       0.00 minutes
	total time  =          3 seconds =       0.05 minutes


Properties will be evaluated at   0.000000,   0.000000,   0.000000 Bohr

Properties computed using the  density matrix

  Nuclear Dipole Moment: (a.u.)
     X:    -0.3427      Y:    -3.6836      Z:     2.7456

  Electronic Dipole Moment: (a.u.)
     X:    -0.5364      Y:     2.9357      Z:    -1.6397

  Dipole Moment: (a.u.)
     X:    -0.8791      Y:    -0.7479      Z:     1.1060     Total:     1.5985

  Dipole Moment: (Debye)
     X:    -2.2345      Y:    -1.9009      Z:     2.8111     Total:     4.0630

  Quadrupole Moment: (Debye Ang)
    XX:   -22.3487     YY:   -24.1585     ZZ:   -25.3030
    XY:    -2.7982     XZ:    -0.0126     YZ:     1.4511

  Traceless Quadrupole Moment: (Debye Ang)
    XX:     1.5880     YY:    -0.2218     ZZ:    -1.3663
    XY:    -2.7982     XZ:    -0.0126     YZ:     1.4511

  Mulliken Charges: (a.u.)
   Center  Symbol    Alpha    Beta     Spin     Total
       1     H     0.42846  0.42846  0.00000  0.14307
       2     C     2.74529  2.74529  0.00000  0.50942
       3     N     3.87533  3.87533  0.00000 -0.75066
       4     O     4.28312  4.28312  0.00000 -0.56624
       5     C     3.14282  3.14282  0.00000 -0.28565
       6     H     0.30902  0.30902  0.00000  0.38195
       7     H     0.38811  0.38811  0.00000  0.22379
       8     H     0.41459  0.41459  0.00000  0.17082
       9     H     0.41325  0.41325  0.00000  0.17350

   Total alpha = 16.00000, Total beta = 16.00000, Total charge = -0.00000


*** PSI4 exiting successfully. Buy a developer a beer!
