    -----------------------------------------------------------------------
          Psi4: An Open-Source Ab Initio Electronic Structure Package
                              Psi4 (no tag) Driver

                          Git: Rev {detached?}  

    J. M. Turney, A. C. Simmonett, R. M. Parrish, E. G. Hohenstein,
    F. A. Evangelista, J. T. Fermann, B. J. Mintz, L. A. Burns, J. J. Wilke,
    M. L. Abrams, N. J. Russ, M. L. Leininger, C. L. Janssen, E. T. Seidl,
    W. D. Allen, H. F. Schaefer, R. A. King, E. F. Valeev, C. D. Sherrill,
    and T. D. Crawford, WIREs Comput. Mol. Sci. 2, 556-565 (2012)
    (doi: 10.1002/wcms.93)

                         Additional Contributions by
    A. E. DePrince, M. Saitow, U. Bozkaya, A. Yu. Sokolov
    -----------------------------------------------------------------------


    Psi4 started on: Tue Jul  5 16:51:24 2016

    Process ID:  14550
    PSI4DATADIR: /export131/home/mjharvey/miniconda3/share
    Memory level set to 256.000 MB

  ==> Input File <==

--------------------------------------------------------------------------
set {
	reference rhf
	basis 6-31G*
}


set_num_threads( 1 )
memory 2 gb

molecule MOL {
0 1

H	 -2.153054	 -2.250733	 0.000000
O	 -2.462445	 -1.355403	 0.000000
C	 -1.434260	 -0.483044	 0.000000
C	 -0.160282	 -0.998433	 0.214627
C	 -1.606806	 0.873172	 -0.202032
H	 -0.050522	 -2.055314	 0.369249
C	 0.931284	 -0.154718	 0.225708
H	 -2.586306	 1.284548	 -0.369080
C	 -0.495009	 1.711703	 -0.187945
H	 1.912113	 -0.560710	 0.392185
C	 0.777868	 1.209965	 0.024721
C	 -0.683838	 3.129388	 -0.400099
H	 1.624995	 1.868669	 0.032793
N	 -0.830076	 4.243496	 -0.568272

	symmetry c1
}
set optking {
	frozen_dihedral = ("
		5 3 2 1
	")
}

ee = energy('scf')
oeprop('DIPOLE', 'QUADRUPOLE', 'MULLIKEN_CHARGES')
f=open( 'psi4out.xyz', 'w' )
f.write( "14  " )
f.write( str(ee) + "\n" )
f.write( MOL.save_string_xyz() )
f.close()
--------------------------------------------------------------------------

  Memory set to   2.000 GiB by Python script.

*** tstart() called on cx1-3-4-4.cx1.hpc.ic.ac.uk
*** at Tue Jul  5 16:51:24 2016


         ---------------------------------------------------------
                                   SCF
            by Justin Turney, Rob Parrish, and Andy Simmonett
                              RHF Reference
                        1 Threads,   2000 MiB Core
         ---------------------------------------------------------

  ==> Geometry <==

    Molecular point group: c1
    Full point group: C1

    Geometry (in Angstrom), charge = 0, multiplicity = 1:

       Center              X                  Y                   Z               Mass       
    ------------   -----------------  -----------------  -----------------  -----------------
           H         -1.444658916285    -3.086370538569     0.096014769836     1.007825032070
           O         -1.754049916285    -2.191040538569     0.096014769836    15.994914619560
           C         -0.725864916285    -1.318681538569     0.096014769836    12.000000000000
           C          0.548113083715    -1.834070538569     0.310641769836    12.000000000000
           C         -0.898410916285     0.037534461431    -0.106017230164    12.000000000000
           H          0.657873083715    -2.890951538569     0.465263769836     1.007825032070
           C          1.639679083715    -0.990355538569     0.321722769836    12.000000000000
           H         -1.877910916285     0.448910461431    -0.273065230164     1.007825032070
           C          0.213386083715     0.876065461431    -0.091930230164    12.000000000000
           H          2.620508083715    -1.396347538569     0.488199769836     1.007825032070
           C          1.486263083715     0.374327461431     0.120735769836    12.000000000000
           C          0.024557083715     2.293750461431    -0.304084230164    12.000000000000
           H          2.333390083715     1.033031461431     0.128807769836     1.007825032070
           N         -0.121680916285     3.407858461431    -0.472257230164    14.003074004780

  Running in c1 symmetry.

  Rotational constants: A =      0.11890  B =      0.04007  C =      0.02997 [cm^-1]
  Rotational constants: A =   3564.59627  B =   1201.31310  C =    898.57856 [MHz]
  Nuclear repulsion =  379.326710844284150

  Charge       = 0
  Multiplicity = 1
  Electrons    = 62
  Nalpha       = 31
  Nbeta        = 31

  ==> Algorithm <==

  SCF Algorithm Type is DF.
  DIIS enabled.
  MOM disabled.
  Fractional occupation disabled.
  Guess Type is CORE.
  Energy threshold   = 1.00e-06
  Density threshold  = 1.00e-06
  Integral threshold = 0.00e+00

  ==> Primary Basis <==

  Basis Set: 6-31G*
    Number of shells: 64
    Number of basis function: 145
    Number of Cartesian functions: 145
    Spherical Harmonics?: false
    Max angular momentum: 2

  ==> Pre-Iterations <==

   -------------------------------------------------------
    Irrep   Nso     Nmo     Nalpha   Nbeta   Ndocc  Nsocc
   -------------------------------------------------------
     A        145     145       0       0       0       0
   -------------------------------------------------------
    Total     145     145      31      31      31       0
   -------------------------------------------------------

 OEINTS: Overlap, kinetic, potential, dipole, and quadrupole integrals
         stored in file 35.

  ==> Integral Setup <==

  ==> DFJK: Density-Fitted J/K Matrices <==

    J tasked:                  Yes
    K tasked:                  Yes
    wK tasked:                  No
    OpenMP threads:              1
    Integrals threads:           1
    Memory (MB):              1430
    Algorithm:                Core
    Integral Cache:           NONE
    Schwarz Cutoff:          1E-12
    Fitting Condition:       1E-12

   => Auxiliary Basis Set <=

  Basis Set: 
    Number of shells: 261
    Number of basis function: 854
    Number of Cartesian functions: 854
    Spherical Harmonics?: false
    Max angular momentum: 3

  Minimum eigenvalue in the overlap matrix is 4.1965875893E-04.
  Using Symmetric Orthogonalization.
  SCF Guess: Core (One-Electron) Hamiltonian.

  ==> Iterations <==

                           Total Energy        Delta E     RMS |[F,P]|

   @DF-RHF iter   1:  -309.44434327779464   -3.09444e+02   6.50321e-02 
   @DF-RHF iter   2:  -146.51746389306567    1.62927e+02   7.87954e-02 DIIS
   @DF-RHF iter   3:  -317.78598218042504   -1.71269e+02   5.28348e-02 DIIS
   @DF-RHF iter   4:  -342.13511884377800   -2.43491e+01   5.26292e-02 DIIS
   @DF-RHF iter   5:  -395.86712252924195   -5.37320e+01   1.08483e-02 DIIS
   @DF-RHF iter   6:  -397.09207121056653   -1.22495e+00   4.27403e-03 DIIS
   @DF-RHF iter   7:  -397.27035725523575   -1.78286e-01   1.19139e-03 DIIS
   @DF-RHF iter   8:  -397.28592215890495   -1.55649e-02   4.33080e-04 DIIS
   @DF-RHF iter   9:  -397.28843716659622   -2.51501e-03   1.40615e-04 DIIS
   @DF-RHF iter  10:  -397.28882157507104   -3.84408e-04   6.02885e-05 DIIS
   @DF-RHF iter  11:  -397.28892438021620   -1.02805e-04   3.04247e-05 DIIS
   @DF-RHF iter  12:  -397.28897369716782   -4.93170e-05   1.36487e-05 DIIS
   @DF-RHF iter  13:  -397.28898328322174   -9.58605e-06   7.14750e-06 DIIS
   @DF-RHF iter  14:  -397.28898660910482   -3.32588e-06   2.39836e-06 DIIS
   @DF-RHF iter  15:  -397.28898685989572   -2.50791e-07   5.75561e-07 DIIS

  ==> Post-Iterations <==

    Orbital Energies (a.u.)
    -----------------------

    Doubly Occupied:                                                      

       1A    -20.611048     2A    -15.574811     3A    -11.327055  
       4A    -11.294964     5A    -11.275905     6A    -11.264872  
       7A    -11.261202     8A    -11.259549     9A    -11.258562  
      10A     -1.433016    11A     -1.232412    12A     -1.182514  
      13A     -1.063423    14A     -1.039938    15A     -0.898840  
      16A     -0.859236    17A     -0.793923    18A     -0.718018  
      19A     -0.691184    20A     -0.675856    21A     -0.629006  
      22A     -0.614659    23A     -0.592231    24A     -0.566873  
      25A     -0.547163    26A     -0.538132    27A     -0.522305  
      28A     -0.473587    29A     -0.472042    30A     -0.363662  
      31A     -0.337543  

    Virtual:                                                              

      32A      0.085757    33A      0.132538    34A      0.200294  
      35A      0.220382    36A      0.225860    37A      0.274086  
      38A      0.280422    39A      0.290822    40A      0.330303  
      41A      0.369332    42A      0.378524    43A      0.437623  
      44A      0.455216    45A      0.468638    46A      0.485872  
      47A      0.570689    48A      0.598742    49A      0.633665  
      50A      0.700287    51A      0.713991    52A      0.717190  
      53A      0.757324    54A      0.782766    55A      0.793275  
      56A      0.803105    57A      0.804022    58A      0.827380  
      59A      0.852285    60A      0.856732    61A      0.871013  
      62A      0.884254    63A      0.887595    64A      0.937565  
      65A      0.955024    66A      0.993265    67A      0.996669  
      68A      1.064732    69A      1.090034    70A      1.103504  
      71A      1.104233    72A      1.122913    73A      1.126896  
      74A      1.138832    75A      1.169613    76A      1.188536  
      77A      1.220735    78A      1.232511    79A      1.262362  
      80A      1.331441    81A      1.376224    82A      1.392029  
      83A      1.437434    84A      1.450287    85A      1.465303  
      86A      1.518358    87A      1.558892    88A      1.587428  
      89A      1.610057    90A      1.634451    91A      1.687968  
      92A      1.701496    93A      1.730376    94A      1.733405  
      95A      1.799781    96A      1.807064    97A      1.844830  
      98A      1.983397    99A      2.024215   100A      2.062132  
     101A      2.079541   102A      2.102892   103A      2.110576  
     104A      2.154371   105A      2.227574   106A      2.241612  
     107A      2.261974   108A      2.285161   109A      2.292194  
     110A      2.295456   111A      2.329945   112A      2.388451  
     113A      2.423105   114A      2.440348   115A      2.454360  
     116A      2.537110   117A      2.585574   118A      2.614092  
     119A      2.623411   120A      2.754268   121A      2.824863  
     122A      2.843160   123A      2.868016   124A      2.928845  
     125A      2.994070   126A      3.004557   127A      3.023848  
     128A      3.097824   129A      3.138880   130A      3.168873  
     131A      3.209036   132A      3.280585   133A      3.382167  
     134A      3.562747   135A      3.674720   136A      3.870799  
     137A      4.348283   138A      4.465603   139A      4.506299  
     140A      4.559564   141A      4.613497   142A      4.720958  
     143A      4.828660   144A      4.970601   145A      5.257861  

    Final Occupation by Irrep:
              A 
    DOCC [    31 ]

  Energy converged.

  @DF-RHF Final Energy:  -397.28898685989572

   => Energetics <=

    Nuclear Repulsion Energy =            379.3267108442841504
    One-Electron Energy =               -1290.4841193436832327
    Two-Electron Energy =                 513.8684216395042768
    DFT Exchange-Correlation Energy =       0.0000000000000000
    Empirical Dispersion Energy =           0.0000000000000000
    PCM Polarization Energy =               0.0000000000000000
    EFP Energy =                            0.0000000000000000
    Total Energy =                       -397.2889868598947487

    Alert: EFP and PCM quantities not currently incorporated into SCF psivars.

Properties will be evaluated at   0.000000,   0.000000,   0.000000 Bohr
  ==> Properties <==


Properties computed using the SCF density matrix

  Nuclear Dipole Moment: (a.u.)
     X:     2.1380      Y:    -5.5437      Z:     0.8504

  Electronic Dipole Moment: (a.u.)
     X:    -1.4442      Y:     3.3462      Z:    -0.5865

  Dipole Moment: (a.u.)
     X:     0.6938      Y:    -2.1975      Z:     0.2640     Total:     2.3195

  Dipole Moment: (Debye)
     X:     1.7634      Y:    -5.5855      Z:     0.6710     Total:     5.8956


  Saving occupied orbitals to File 180.

*** tstop() called on cx1-3-4-4.cx1.hpc.ic.ac.uk at Tue Jul  5 16:51:40 2016
Module time:
	user time   =      15.06 seconds =       0.25 minutes
	system time =       0.11 seconds =       0.00 minutes
	total time  =         16 seconds =       0.27 minutes
Total time:
	user time   =      15.06 seconds =       0.25 minutes
	system time =       0.11 seconds =       0.00 minutes
	total time  =         16 seconds =       0.27 minutes


Properties will be evaluated at   0.000000,   0.000000,   0.000000 Bohr

Properties computed using the  density matrix

  Nuclear Dipole Moment: (a.u.)
     X:     2.1380      Y:    -5.5437      Z:     0.8504

  Electronic Dipole Moment: (a.u.)
     X:    -1.4442      Y:     3.3462      Z:    -0.5865

  Dipole Moment: (a.u.)
     X:     0.6938      Y:    -2.1975      Z:     0.2640     Total:     2.3195

  Dipole Moment: (Debye)
     X:     1.7634      Y:    -5.5855      Z:     0.6710     Total:     5.8956

  Quadrupole Moment: (Debye Ang)
    XX:   -48.8398     YY:   -56.9812     ZZ:   -54.2011
    XY:    -0.2664     XZ:     1.0703     YZ:     1.3799

  Traceless Quadrupole Moment: (Debye Ang)
    XX:     4.5009     YY:    -3.6405     ZZ:    -0.8604
    XY:    -0.2664     XZ:     1.0703     YZ:     1.3799

  Mulliken Charges: (a.u.)
   Center  Symbol    Alpha    Beta     Spin     Total
       1     H     0.26692  0.26692  0.00000  0.46615
       2     O     4.37908  4.37908  0.00000 -0.75815
       3     C     2.78296  2.78296  0.00000  0.43408
       4     C     3.13897  3.13897  0.00000 -0.27794
       5     C     3.11596  3.11596  0.00000 -0.23191
       6     H     0.39660  0.39660  0.00000  0.20680
       7     C     3.09485  3.09485  0.00000 -0.18970
       8     H     0.37404  0.37404  0.00000  0.25191
       9     C     2.99088  2.99088  0.00000  0.01824
      10     H     0.38937  0.38937  0.00000  0.22125
      11     C     3.09950  3.09950  0.00000 -0.19899
      12     C     2.86527  2.86527  0.00000  0.26946
      13     H     0.38120  0.38120  0.00000  0.23760
      14     N     3.72440  3.72440  0.00000 -0.44879

   Total alpha = 31.00000, Total beta = 31.00000, Total charge =  0.00000


*** PSI4 exiting successfully. Buy a developer a beer!
