    -----------------------------------------------------------------------
          Psi4: An Open-Source Ab Initio Electronic Structure Package
                              Psi4 (no tag) Driver

                          Git: Rev {detached?}  

    J. M. Turney, A. C. Simmonett, R. M. Parrish, E. G. Hohenstein,
    F. A. Evangelista, J. T. Fermann, B. J. Mintz, L. A. Burns, J. J. Wilke,
    M. L. Abrams, N. J. Russ, M. L. Leininger, C. L. Janssen, E. T. Seidl,
    W. D. Allen, H. F. Schaefer, R. A. King, E. F. Valeev, C. D. Sherrill,
    and T. D. Crawford, WIREs Comput. Mol. Sci. 2, 556-565 (2012)
    (doi: 10.1002/wcms.93)

                         Additional Contributions by
    A. E. DePrince, M. Saitow, U. Bozkaya, A. Yu. Sokolov
    -----------------------------------------------------------------------


    Psi4 started on: Tue Jul  5 16:31:03 2016

    Process ID:  14844
    PSI4DATADIR: /export131/home/mjharvey/miniconda3/share
    Memory level set to 256.000 MB

  ==> Input File <==

--------------------------------------------------------------------------
set {
	reference rhf
	basis 6-31G*
}


set_num_threads( 1 )
memory 2 gb

molecule MOL {
0 1

H	 1.481737	 1.717194	 -1.445824
C	 0.557503	 1.679937	 -0.867300
N	 0.538815	 0.649616	 0.000000
O	 -0.315352	 2.482919	 -1.017480
C	 1.521968	 -0.411503	 0.000000
H	 -0.192644	 0.624219	 0.672761
H	 2.150599	 -0.357004	 -0.881901
H	 0.999455	 -1.354525	 0.000000
H	 2.150599	 -0.357004	 0.881901

	symmetry c1
}
set optking {
	frozen_dihedral = ("
		6 3 5 7
	")
}

ee = energy('scf')
oeprop('DIPOLE', 'QUADRUPOLE', 'MULLIKEN_CHARGES')
f=open( 'psi4out.xyz', 'w' )
f.write( "9  " )
f.write( str(ee) + "\n" )
f.write( MOL.save_string_xyz() )
f.close()
--------------------------------------------------------------------------

  Memory set to   2.000 GiB by Python script.

*** tstart() called on cx1-1-4-3.cx1.hpc.ic.ac.uk
*** at Tue Jul  5 16:31:04 2016


         ---------------------------------------------------------
                                   SCF
            by Justin Turney, Rob Parrish, and Andy Simmonett
                              RHF Reference
                        1 Threads,   2000 MiB Core
         ---------------------------------------------------------

  ==> Geometry <==

    Molecular point group: c1
    Full point group: C1

    Geometry (in Angstrom), charge = 0, multiplicity = 1:

       Center              X                  Y                   Z               Mass       
    ------------   -----------------  -----------------  -----------------  -----------------
           H          0.904201975119     0.627931373371    -0.980672230047     1.007825032070
           C         -0.020032024881     0.590674373371    -0.402148230047    12.000000000000
           N         -0.038720024881    -0.439646626629     0.465151769953    14.003074004780
           O         -0.892887024881     1.393656373371    -0.552328230047    15.994914619560
           C          0.944432975119    -1.500765626629     0.465151769953    12.000000000000
           H         -0.770179024881    -0.465043626629     1.137912769953     1.007825032070
           H          1.573063975119    -1.446266626629    -0.416749230047     1.007825032070
           H          0.421919975119    -2.443787626629     0.465151769953     1.007825032070
           H          1.573063975119    -1.446266626629     1.347052769953     1.007825032070

  Running in c1 symmetry.

  Rotational constants: A =      1.48541  B =      0.14889  C =      0.13917 [cm^-1]
  Rotational constants: A =  44531.47362  B =   4463.60872  C =   4172.20512 [MHz]
  Nuclear repulsion =  120.385748623779449

  Charge       = 0
  Multiplicity = 1
  Electrons    = 32
  Nalpha       = 16
  Nbeta        = 16

  ==> Algorithm <==

  SCF Algorithm Type is DF.
  DIIS enabled.
  MOM disabled.
  Fractional occupation disabled.
  Guess Type is CORE.
  Energy threshold   = 1.00e-06
  Density threshold  = 1.00e-06
  Integral threshold = 0.00e+00

  ==> Primary Basis <==

  Basis Set: 6-31G*
    Number of shells: 34
    Number of basis function: 70
    Number of Cartesian functions: 70
    Spherical Harmonics?: false
    Max angular momentum: 2

  ==> Pre-Iterations <==

   -------------------------------------------------------
    Irrep   Nso     Nmo     Nalpha   Nbeta   Ndocc  Nsocc
   -------------------------------------------------------
     A         70      70       0       0       0       0
   -------------------------------------------------------
    Total      70      70      16      16      16       0
   -------------------------------------------------------

 OEINTS: Overlap, kinetic, potential, dipole, and quadrupole integrals
         stored in file 35.

  ==> Integral Setup <==

  ==> DFJK: Density-Fitted J/K Matrices <==

    J tasked:                  Yes
    K tasked:                  Yes
    wK tasked:                  No
    OpenMP threads:              1
    Integrals threads:           1
    Memory (MB):              1430
    Algorithm:                Core
    Integral Cache:           NONE
    Schwarz Cutoff:          1E-12
    Fitting Condition:       1E-12

   => Auxiliary Basis Set <=

  Basis Set: 
    Number of shells: 141
    Number of basis function: 449
    Number of Cartesian functions: 449
    Spherical Harmonics?: false
    Max angular momentum: 3

  Minimum eigenvalue in the overlap matrix is 4.6650381330E-03.
  Using Symmetric Orthogonalization.
  SCF Guess: Core (One-Electron) Hamiltonian.

  ==> Iterations <==

                           Total Energy        Delta E     RMS |[F,P]|

   @DF-RHF iter   1:  -166.38651745521960   -1.66387e+02   9.40799e-02 
   @DF-RHF iter   2:  -127.86105911273017    3.85255e+01   8.22494e-02 DIIS
   @DF-RHF iter   3:  -187.63352162186041   -5.97725e+01   6.28682e-02 DIIS
   @DF-RHF iter   4:  -207.05971739720113   -1.94262e+01   1.93945e-02 DIIS
   @DF-RHF iter   5:  -207.75060839086902   -6.90891e-01   9.09508e-03 DIIS
   @DF-RHF iter   6:  -207.93494411782413   -1.84336e-01   2.42544e-03 DIIS
   @DF-RHF iter   7:  -207.95478046843587   -1.98364e-02   7.97450e-04 DIIS
   @DF-RHF iter   8:  -207.95682115529135   -2.04069e-03   3.97273e-04 DIIS
   @DF-RHF iter   9:  -207.95732649620189   -5.05341e-04   1.36941e-04 DIIS
   @DF-RHF iter  10:  -207.95742566844908   -9.91722e-05   3.37762e-05 DIIS
   @DF-RHF iter  11:  -207.95743213132684   -6.46288e-06   1.14663e-05 DIIS
   @DF-RHF iter  12:  -207.95743297868822   -8.47361e-07   5.12026e-06 DIIS
   @DF-RHF iter  13:  -207.95743312939911   -1.50711e-07   8.46028e-07 DIIS

  ==> Post-Iterations <==

    Orbital Energies (a.u.)
    -----------------------

    Doubly Occupied:                                                      

       1A    -20.524555     2A    -15.589371     3A    -11.343844  
       4A    -11.276333     5A     -1.387100     6A     -1.240523  
       7A     -0.965979     8A     -0.848297     9A     -0.690299  
      10A     -0.673608    11A     -0.635766    12A     -0.591607  
      13A     -0.575474    14A     -0.541029    15A     -0.422658  
      16A     -0.388583  

    Virtual:                                                              

      17A      0.209269    18A      0.233703    19A      0.246168  
      20A      0.290846    21A      0.302396    22A      0.320399  
      23A      0.375512    24A      0.444891    25A      0.576298  
      26A      0.696459    27A      0.714292    28A      0.751972  
      29A      0.824155    30A      0.852608    31A      0.962606  
      32A      0.994910    33A      1.018301    34A      1.042739  
      35A      1.103658    36A      1.128716    37A      1.135633  
      38A      1.173401    39A      1.208266    40A      1.214747  
      41A      1.312719    42A      1.319647    43A      1.383606  
      44A      1.525382    45A      1.582626    46A      1.683484  
      47A      1.734797    48A      1.834331    49A      1.874509  
      50A      2.080101    51A      2.137422    52A      2.154899  
      53A      2.225363    54A      2.313164    55A      2.323620  
      56A      2.431914    57A      2.531810    58A      2.596270  
      59A      2.621438    60A      2.732419    61A      2.871279  
      62A      2.904825    63A      3.014365    64A      3.184292  
      65A      3.343968    66A      3.461539    67A      4.276191  
      68A      4.341007    69A      4.655884    70A      4.696431  

    Final Occupation by Irrep:
              A 
    DOCC [    16 ]

  Energy converged.

  @DF-RHF Final Energy:  -207.95743312939911

   => Energetics <=

    Nuclear Repulsion Energy =            120.3857486237794490
    One-Electron Energy =                -521.2962816256487031
    Two-Electron Energy =                 192.9530998724701192
    DFT Exchange-Correlation Energy =       0.0000000000000000
    Empirical Dispersion Energy =           0.0000000000000000
    PCM Polarization Energy =               0.0000000000000000
    EFP Energy =                            0.0000000000000000
    Total Energy =                       -207.9574331293991065

    Alert: EFP and PCM quantities not currently incorporated into SCF psivars.

Properties will be evaluated at   0.000000,   0.000000,   0.000000 Bohr
  ==> Properties <==


Properties computed using the SCF density matrix

  Nuclear Dipole Moment: (a.u.)
     X:     3.4664      Y:    -4.8420      Z:     1.4516

  Electronic Dipole Moment: (a.u.)
     X:    -2.5335      Y:     3.5149      Z:    -0.9348

  Dipole Moment: (a.u.)
     X:     0.9329      Y:    -1.3271      Z:     0.5168     Total:     1.7025

  Dipole Moment: (Debye)
     X:     2.3712      Y:    -3.3731      Z:     1.3135     Total:     4.3273


  Saving occupied orbitals to File 180.

*** tstop() called on cx1-1-4-3.cx1.hpc.ic.ac.uk at Tue Jul  5 16:31:07 2016
Module time:
	user time   =       2.40 seconds =       0.04 minutes
	system time =       0.03 seconds =       0.00 minutes
	total time  =          3 seconds =       0.05 minutes
Total time:
	user time   =       2.40 seconds =       0.04 minutes
	system time =       0.03 seconds =       0.00 minutes
	total time  =          3 seconds =       0.05 minutes


Properties will be evaluated at   0.000000,   0.000000,   0.000000 Bohr

Properties computed using the  density matrix

  Nuclear Dipole Moment: (a.u.)
     X:     3.4664      Y:    -4.8420      Z:     1.4516

  Electronic Dipole Moment: (a.u.)
     X:    -2.5335      Y:     3.5149      Z:    -0.9348

  Dipole Moment: (a.u.)
     X:     0.9329      Y:    -1.3271      Z:     0.5168     Total:     1.7025

  Dipole Moment: (Debye)
     X:     2.3712      Y:    -3.3731      Z:     1.3135     Total:     4.3273

  Quadrupole Moment: (Debye Ang)
    XX:   -24.7331     YY:   -27.0181     ZZ:   -23.0834
    XY:     2.6457     XZ:    -2.7109     YZ:     0.5409

  Traceless Quadrupole Moment: (Debye Ang)
    XX:     0.2118     YY:    -2.0732     ZZ:     1.8614
    XY:     2.6457     XZ:    -2.7109     YZ:     0.5409

  Mulliken Charges: (a.u.)
   Center  Symbol    Alpha    Beta     Spin     Total
       1     H     0.43186  0.43186  0.00000  0.13628
       2     C     2.73948  2.73948  0.00000  0.52105
       3     N     3.87204  3.87204  0.00000 -0.74408
       4     O     4.28398  4.28398  0.00000 -0.56795
       5     C     3.14235  3.14235  0.00000 -0.28471
       6     H     0.30361  0.30361  0.00000  0.39279
       7     H     0.40745  0.40745  0.00000  0.18510
       8     H     0.40776  0.40776  0.00000  0.18448
       9     H     0.41148  0.41148  0.00000  0.17704

   Total alpha = 16.00000, Total beta = 16.00000, Total charge = -0.00000


*** PSI4 exiting successfully. Buy a developer a beer!
