    -----------------------------------------------------------------------
          Psi4: An Open-Source Ab Initio Electronic Structure Package
                              Psi4 (no tag) Driver

                          Git: Rev {detached?}  

    J. M. Turney, A. C. Simmonett, R. M. Parrish, E. G. Hohenstein,
    F. A. Evangelista, J. T. Fermann, B. J. Mintz, L. A. Burns, J. J. Wilke,
    M. L. Abrams, N. J. Russ, M. L. Leininger, C. L. Janssen, E. T. Seidl,
    W. D. Allen, H. F. Schaefer, R. A. King, E. F. Valeev, C. D. Sherrill,
    and T. D. Crawford, WIREs Comput. Mol. Sci. 2, 556-565 (2012)
    (doi: 10.1002/wcms.93)

                         Additional Contributions by
    A. E. DePrince, M. Saitow, U. Bozkaya, A. Yu. Sokolov
    -----------------------------------------------------------------------


    Psi4 started on: Tue Jul  5 16:27:44 2016

    Process ID:  13049
    PSI4DATADIR: /export131/home/mjharvey/miniconda3/share
    Memory level set to 256.000 MB

  ==> Input File <==

--------------------------------------------------------------------------
set {
	reference rhf
	basis 6-31G*
}


set_num_threads( 1 )
memory 2 gb

molecule MOL {
0 1

O	 0.787902	 0.643145	 2.081577
C	 0.307400	 0.876305	 1.004796
C	 -0.706429	 1.994397	 0.849533
N	 0.623947	 0.147590	 -0.102813
H	 -1.655031	 1.622116	 0.478529
H	 -0.855016	 2.432748	 1.824631
H	 -0.354705	 2.759725	 0.166053
C	 1.665360	 -0.855771	 0.000151
C	 0.254492	 0.520576	 -1.450637
H	 2.465253	 -0.618490	 -0.692587
H	 1.257730	 -1.821716	 -0.242189
H	 2.081488	 -0.891645	 1.004627
H	 0.111201	 -0.377255	 -2.040050
H	 -0.670654	 1.074353	 -1.469901
H	 1.025792	 1.118584	 -1.932607

	symmetry c1
}
set optking {
	frozen_dihedral = ("
		8 4 2 3
	")
}

ee = energy('scf')
oeprop('DIPOLE', 'QUADRUPOLE', 'MULLIKEN_CHARGES')
f=open( 'psi4out.xyz', 'w' )
f.write( "15  " )
f.write( str(ee) + "\n" )
f.write( MOL.save_string_xyz() )
f.close()
--------------------------------------------------------------------------

  Memory set to   2.000 GiB by Python script.

*** tstart() called on cx1-3-2-1.cx1.hpc.ic.ac.uk
*** at Tue Jul  5 16:27:45 2016


         ---------------------------------------------------------
                                   SCF
            by Justin Turney, Rob Parrish, and Andy Simmonett
                              RHF Reference
                        1 Threads,   2000 MiB Core
         ---------------------------------------------------------

  ==> Geometry <==

    Molecular point group: c1
    Full point group: C1

    Geometry (in Angstrom), charge = 0, multiplicity = 1:

       Center              X                  Y                   Z               Mass       
    ------------   -----------------  -----------------  -----------------  -----------------
           O          0.293782653911     0.090479283476     1.693665369481    15.994914619560
           C         -0.186719346089     0.323639283476     0.616884369481    12.000000000000
           C         -1.200548346089     1.441731283476     0.461621369481    12.000000000000
           N          0.129827653911    -0.405075716524    -0.490724630519    14.003074004780
           H         -2.149150346089     1.069450283476     0.090617369481     1.007825032070
           H         -1.349135346089     1.880082283476     1.436719369481     1.007825032070
           H         -0.848824346089     2.207059283476    -0.221858630519     1.007825032070
           C          1.171240653911    -1.408436716524    -0.387760630519    12.000000000000
           C         -0.239627346089    -0.032089716524    -1.838548630519    12.000000000000
           H          1.971133653911    -1.171155716524    -1.080498630519     1.007825032070
           H          0.763610653911    -2.374381716524    -0.630100630519     1.007825032070
           H          1.587368653911    -1.444310716524     0.616715369481     1.007825032070
           H         -0.382918346089    -0.929920716524    -2.427961630519     1.007825032070
           H         -1.164773346089     0.521687283476    -1.857812630519     1.007825032070
           H          0.531672653911     0.565918283476    -2.320518630519     1.007825032070

  Running in c1 symmetry.

  Rotational constants: A =      0.16611  B =      0.11519  C =      0.07082 [cm^-1]
  Rotational constants: A =   4979.77547  B =   3453.18875  C =   2123.17226 [MHz]
  Nuclear repulsion =  252.388963076655443

  Charge       = 0
  Multiplicity = 1
  Electrons    = 48
  Nalpha       = 24
  Nbeta        = 24

  ==> Algorithm <==

  SCF Algorithm Type is DF.
  DIIS enabled.
  MOM disabled.
  Fractional occupation disabled.
  Guess Type is CORE.
  Energy threshold   = 1.00e-06
  Density threshold  = 1.00e-06
  Integral threshold = 0.00e+00

  ==> Primary Basis <==

  Basis Set: 6-31G*
    Number of shells: 54
    Number of basis function: 108
    Number of Cartesian functions: 108
    Spherical Harmonics?: false
    Max angular momentum: 2

  ==> Pre-Iterations <==

   -------------------------------------------------------
    Irrep   Nso     Nmo     Nalpha   Nbeta   Ndocc  Nsocc
   -------------------------------------------------------
     A        108     108       0       0       0       0
   -------------------------------------------------------
    Total     108     108      24      24      24       0
   -------------------------------------------------------

 OEINTS: Overlap, kinetic, potential, dipole, and quadrupole integrals
         stored in file 35.

  ==> Integral Setup <==

  ==> DFJK: Density-Fitted J/K Matrices <==

    J tasked:                  Yes
    K tasked:                  Yes
    wK tasked:                  No
    OpenMP threads:              1
    Integrals threads:           1
    Memory (MB):              1430
    Algorithm:                Core
    Integral Cache:           NONE
    Schwarz Cutoff:          1E-12
    Fitting Condition:       1E-12

   => Auxiliary Basis Set <=

  Basis Set: 
    Number of shells: 225
    Number of basis function: 711
    Number of Cartesian functions: 711
    Spherical Harmonics?: false
    Max angular momentum: 3

  Minimum eigenvalue in the overlap matrix is 3.6766165533E-03.
  Using Symmetric Orthogonalization.
  SCF Guess: Core (One-Electron) Hamiltonian.

  ==> Iterations <==

                           Total Energy        Delta E     RMS |[F,P]|

   @DF-RHF iter   1:  -204.52574013373015   -2.04526e+02   8.85235e-02 
   @DF-RHF iter   2:  -226.15692806030125   -2.16312e+01   4.74636e-02 DIIS
   @DF-RHF iter   3:  -223.73391176834889    2.42302e+00   7.71062e-02 DIIS
   @DF-RHF iter   4:  -262.80988397433106   -3.90760e+01   5.55008e-02 DIIS
   @DF-RHF iter   5:  -273.25201512073210   -1.04421e+01   4.17789e-02 DIIS
   @DF-RHF iter   6:  -280.11772396388238   -6.86571e+00   2.97637e-02 DIIS
   @DF-RHF iter   7:  -281.58657084392104   -1.46885e+00   2.35508e-02 DIIS
   @DF-RHF iter   8:  -285.24341942351595   -3.65685e+00   1.06302e-02 DIIS
   @DF-RHF iter   9:  -285.91943867870174   -6.76019e-01   3.67658e-03 DIIS
   @DF-RHF iter  10:  -286.01388859512787   -9.44499e-02   1.41252e-03 DIIS
   @DF-RHF iter  11:  -286.02689402866559   -1.30054e-02   5.06091e-04 DIIS
   @DF-RHF iter  12:  -286.02841452561228   -1.52050e-03   1.51941e-04 DIIS
   @DF-RHF iter  13:  -286.02881040405981   -3.95878e-04   7.46659e-05 DIIS
   @DF-RHF iter  14:  -286.02888563490052   -7.52308e-05   2.79321e-05 DIIS
   @DF-RHF iter  15:  -286.02889814500901   -1.25101e-05   6.54255e-06 DIIS
   @DF-RHF iter  16:  -286.02889887456610   -7.29557e-07   1.56935e-06 DIIS
   @DF-RHF iter  17:  -286.02889890628302   -3.17169e-08   4.63264e-07 DIIS

  ==> Post-Iterations <==

    Orbital Energies (a.u.)
    -----------------------

    Doubly Occupied:                                                      

       1A    -20.513080     2A    -15.583437     3A    -11.341082  
       4A    -11.266830     5A    -11.247038     6A    -11.228003  
       7A     -1.383391     8A     -1.243416     9A     -1.013917  
      10A     -0.972367    11A     -0.919361    12A     -0.737347  
      13A     -0.680458    14A     -0.660224    15A     -0.650790  
      16A     -0.589737    17A     -0.575005    18A     -0.566122  
      19A     -0.564290    20A     -0.545722    21A     -0.528024  
      22A     -0.503527    23A     -0.409124    24A     -0.366109  

    Virtual:                                                              

      25A      0.206322    26A      0.223262    27A      0.262903  
      28A      0.290306    29A      0.298410    30A      0.308505  
      31A      0.315549    32A      0.325513    33A      0.335268  
      34A      0.354496    35A      0.377311    36A      0.387714  
      37A      0.444211    38A      0.506584    39A      0.582453  
      40A      0.696316    41A      0.708969    42A      0.740978  
      43A      0.756904    44A      0.777632    45A      0.805866  
      46A      0.874583    47A      0.908931    48A      0.931980  
      49A      0.943569    50A      0.956402    51A      0.998688  
      52A      1.054861    53A      1.093047    54A      1.112866  
      55A      1.133074    56A      1.149862    57A      1.151505  
      58A      1.159155    59A      1.182136    60A      1.201865  
      61A      1.224164    62A      1.239045    63A      1.257839  
      64A      1.284383    65A      1.305739    66A      1.360569  
      67A      1.417759    68A      1.550722    69A      1.585404  
      70A      1.635048    71A      1.659189    72A      1.706324  
      73A      1.757493    74A      1.804582    75A      1.935683  
      76A      2.049357    77A      2.085870    78A      2.090464  
      79A      2.178342    80A      2.203140    81A      2.231355  
      82A      2.284081    83A      2.310041    84A      2.332824  
      85A      2.394930    86A      2.430476    87A      2.432646  
      88A      2.519520    89A      2.564040    90A      2.609079  
      91A      2.632135    92A      2.643119    93A      2.706372  
      94A      2.749379    95A      2.854924    96A      2.918689  
      97A      2.963285    98A      3.034080    99A      3.067237  
     100A      3.329334   101A      3.395729   102A      3.586297  
     103A      4.436897   104A      4.457313   105A      4.606870  
     106A      4.710953   107A      4.767819   108A      4.937327  

    Final Occupation by Irrep:
              A 
    DOCC [    24 ]

  Energy converged.

  @DF-RHF Final Energy:  -286.02889890628302

   => Energetics <=

    Nuclear Repulsion Energy =            252.3889630766554433
    One-Electron Energy =                -888.6587092736880322
    Two-Electron Energy =                 350.2408472907493433
    DFT Exchange-Correlation Energy =       0.0000000000000000
    Empirical Dispersion Energy =           0.0000000000000000
    PCM Polarization Energy =               0.0000000000000000
    EFP Energy =                            0.0000000000000000
    Total Energy =                       -286.0288989062833025

    Alert: EFP and PCM quantities not currently incorporated into SCF psivars.

Properties will be evaluated at   0.000000,   0.000000,   0.000000 Bohr
  ==> Properties <==


Properties computed using the SCF density matrix

  Nuclear Dipole Moment: (a.u.)
     X:    -0.9749      Y:     0.3058      Z:    -5.9853

  Electronic Dipole Moment: (a.u.)
     X:     0.6254      Y:    -0.1574      Z:     4.4978

  Dipole Moment: (a.u.)
     X:    -0.3495      Y:     0.1483      Z:    -1.4874     Total:     1.5351

  Dipole Moment: (Debye)
     X:    -0.8883      Y:     0.3770      Z:    -3.7807     Total:     3.9019


  Saving occupied orbitals to File 180.

*** tstop() called on cx1-3-2-1.cx1.hpc.ic.ac.uk at Tue Jul  5 16:27:53 2016
Module time:
	user time   =       7.68 seconds =       0.13 minutes
	system time =       0.05 seconds =       0.00 minutes
	total time  =          8 seconds =       0.13 minutes
Total time:
	user time   =       7.68 seconds =       0.13 minutes
	system time =       0.05 seconds =       0.00 minutes
	total time  =          8 seconds =       0.13 minutes


Properties will be evaluated at   0.000000,   0.000000,   0.000000 Bohr

Properties computed using the  density matrix

  Nuclear Dipole Moment: (a.u.)
     X:    -0.9749      Y:     0.3058      Z:    -5.9853

  Electronic Dipole Moment: (a.u.)
     X:     0.6254      Y:    -0.1574      Z:     4.4978

  Dipole Moment: (a.u.)
     X:    -0.3495      Y:     0.1483      Z:    -1.4874     Total:     1.5351

  Dipole Moment: (Debye)
     X:    -0.8883      Y:     0.3770      Z:    -3.7807     Total:     3.9019

  Quadrupole Moment: (Debye Ang)
    XX:   -35.8030     YY:   -35.2628     ZZ:   -41.9395
    XY:    -2.0534     XZ:    -1.4095     YZ:     0.3085

  Traceless Quadrupole Moment: (Debye Ang)
    XX:     1.8654     YY:     2.4057     ZZ:    -4.2710
    XY:    -2.0534     XZ:    -1.4095     YZ:     0.3085

  Mulliken Charges: (a.u.)
   Center  Symbol    Alpha    Beta     Spin     Total
       1     O     4.30482  4.30482  0.00000 -0.60963
       2     C     2.62391  2.62391  0.00000  0.75217
       3     C     3.29898  3.29898  0.00000 -0.59795
       4     N     3.82282  3.82282  0.00000 -0.64563
       5     H     0.40663  0.40663  0.00000  0.18675
       6     H     0.39048  0.39048  0.00000  0.21905
       7     H     0.40801  0.40801  0.00000  0.18398
       8     C     3.14848  3.14848  0.00000 -0.29697
       9     C     3.14264  3.14264  0.00000 -0.28527
      10     H     0.42135  0.42135  0.00000  0.15729
      11     H     0.41560  0.41560  0.00000  0.16881
      12     H     0.38292  0.38292  0.00000  0.23417
      13     H     0.40987  0.40987  0.00000  0.18025
      14     H     0.40707  0.40707  0.00000  0.18587
      15     H     0.41644  0.41644  0.00000  0.16713

   Total alpha = 24.00000, Total beta = 24.00000, Total charge = -0.00000


*** PSI4 exiting successfully. Buy a developer a beer!
