    -----------------------------------------------------------------------
          Psi4: An Open-Source Ab Initio Electronic Structure Package
                              Psi4 (no tag) Driver

                          Git: Rev {detached?}  

    J. M. Turney, A. C. Simmonett, R. M. Parrish, E. G. Hohenstein,
    F. A. Evangelista, J. T. Fermann, B. J. Mintz, L. A. Burns, J. J. Wilke,
    M. L. Abrams, N. J. Russ, M. L. Leininger, C. L. Janssen, E. T. Seidl,
    W. D. Allen, H. F. Schaefer, R. A. King, E. F. Valeev, C. D. Sherrill,
    and T. D. Crawford, WIREs Comput. Mol. Sci. 2, 556-565 (2012)
    (doi: 10.1002/wcms.93)

                         Additional Contributions by
    A. E. DePrince, M. Saitow, U. Bozkaya, A. Yu. Sokolov
    -----------------------------------------------------------------------


    Psi4 started on: Tue Jul  5 16:44:03 2016

    Process ID:  31364
    PSI4DATADIR: /export131/home/mjharvey/miniconda3/share
    Memory level set to 256.000 MB

  ==> Input File <==

--------------------------------------------------------------------------
set {
	reference rhf
	basis 6-31G*
}


set_num_threads( 1 )
memory 2 gb

molecule MOL {
0 1

H	 -2.529928	 -0.743650	 1.870308
O	 -1.917411	 -0.045404	 1.688510
C	 -2.026376	 0.340750	 0.341611
C	 -0.673256	 0.843270	 -0.132153
H	 -2.339397	 -0.503104	 -0.270651
H	 -2.774606	 1.124267	 0.228006
C	 0.486613	 -0.083066	 0.235839
H	 -0.715586	 0.970948	 -1.210718
H	 -0.508072	 1.829858	 0.297090
C	 0.765248	 -0.120712	 1.739421
H	 1.378736	 0.236967	 -0.292564
H	 0.264762	 -1.091045	 -0.112873
C	 1.446297	 1.148314	 2.250711
H	 -0.170518	 -0.267562	 2.274673
H	 1.387866	 -0.982475	 1.972133
H	 0.831797	 2.024275	 2.063706
H	 1.629342	 1.094331	 3.319601
H	 2.402341	 1.305563	 1.759016

	symmetry c1
}
set optking {
	frozen_dihedral = ("
		14 10 7 11,
		10 7 4 8,
		2 3 4 8
	")
}

ee = energy('scf')
oeprop('DIPOLE', 'QUADRUPOLE', 'MULLIKEN_CHARGES')
f=open( 'psi4out.xyz', 'w' )
f.write( "18  " )
f.write( str(ee) + "\n" )
f.write( MOL.save_string_xyz() )
f.close()
--------------------------------------------------------------------------

  Memory set to   2.000 GiB by Python script.

*** tstart() called on cx1-3-2-3.cx1.hpc.ic.ac.uk
*** at Tue Jul  5 16:44:03 2016


         ---------------------------------------------------------
                                   SCF
            by Justin Turney, Rob Parrish, and Andy Simmonett
                              RHF Reference
                        1 Threads,   2000 MiB Core
         ---------------------------------------------------------

  ==> Geometry <==

    Molecular point group: c1
    Full point group: C1

    Geometry (in Angstrom), charge = 0, multiplicity = 1:

       Center              X                  Y                   Z               Mass       
    ------------   -----------------  -----------------  -----------------  -----------------
           H         -2.168489123752    -1.082557094211     0.823369766412     1.007825032070
           O         -1.555972123752    -0.384311094211     0.641571766412    15.994914619560
           C         -1.664937123752     0.001842905789    -0.705327233588    12.000000000000
           C         -0.311817123752     0.504362905789    -1.179091233588    12.000000000000
           H         -1.977958123752    -0.842011094211    -1.317589233588     1.007825032070
           H         -2.413167123752     0.785359905789    -0.818932233588     1.007825032070
           C          0.848051876248    -0.421973094211    -0.811099233588    12.000000000000
           H         -0.354147123752     0.632040905789    -2.257656233588     1.007825032070
           H         -0.146633123752     1.490950905789    -0.749848233588     1.007825032070
           C          1.126686876248    -0.459619094211     0.692482766412    12.000000000000
           H          1.740174876248    -0.101940094211    -1.339502233588     1.007825032070
           H          0.626200876248    -1.429952094211    -1.159811233588     1.007825032070
           C          1.807735876248     0.809406905789     1.203772766412    12.000000000000
           H          0.190920876248    -0.606469094211     1.227734766412     1.007825032070
           H          1.749304876248    -1.321382094211     0.925194766412     1.007825032070
           H          1.193235876248     1.685367905789     1.016767766412     1.007825032070
           H          1.990780876248     0.755423905789     2.272662766412     1.007825032070
           H          2.763779876248     0.966655905789     0.712077766412     1.007825032070

  Running in c1 symmetry.

  Rotational constants: A =      0.17641  B =      0.07769  C =      0.06614 [cm^-1]
  Rotational constants: A =   5288.78228  B =   2329.23204  C =   1982.74626 [MHz]
  Nuclear repulsion =  263.227283963101002

  Charge       = 0
  Multiplicity = 1
  Electrons    = 50
  Nalpha       = 25
  Nbeta        = 25

  ==> Algorithm <==

  SCF Algorithm Type is DF.
  DIIS enabled.
  MOM disabled.
  Fractional occupation disabled.
  Guess Type is CORE.
  Energy threshold   = 1.00e-06
  Density threshold  = 1.00e-06
  Integral threshold = 0.00e+00

  ==> Primary Basis <==

  Basis Set: 6-31G*
    Number of shells: 60
    Number of basis function: 114
    Number of Cartesian functions: 114
    Spherical Harmonics?: false
    Max angular momentum: 2

  ==> Pre-Iterations <==

   -------------------------------------------------------
    Irrep   Nso     Nmo     Nalpha   Nbeta   Ndocc  Nsocc
   -------------------------------------------------------
     A        114     114       0       0       0       0
   -------------------------------------------------------
    Total     114     114      25      25      25       0
   -------------------------------------------------------

 OEINTS: Overlap, kinetic, potential, dipole, and quadrupole integrals
         stored in file 35.

  ==> Integral Setup <==

  ==> DFJK: Density-Fitted J/K Matrices <==

    J tasked:                  Yes
    K tasked:                  Yes
    wK tasked:                  No
    OpenMP threads:              1
    Integrals threads:           1
    Memory (MB):              1430
    Algorithm:                Core
    Integral Cache:           NONE
    Schwarz Cutoff:          1E-12
    Fitting Condition:       1E-12

   => Auxiliary Basis Set <=

  Basis Set: 
    Number of shells: 252
    Number of basis function: 786
    Number of Cartesian functions: 786
    Spherical Harmonics?: false
    Max angular momentum: 3

  Minimum eigenvalue in the overlap matrix is 4.5668478967E-03.
  Using Symmetric Orthogonalization.
  SCF Guess: Core (One-Electron) Hamiltonian.

  ==> Iterations <==

                           Total Energy        Delta E     RMS |[F,P]|

   @DF-RHF iter   1:  -210.41094757223215   -2.10411e+02   7.51198e-02 
   @DF-RHF iter   2:  -141.14338777732490    6.92676e+01   8.03155e-02 DIIS
   @DF-RHF iter   3:  -226.63368492869711   -8.54903e+01   4.99926e-02 DIIS
   @DF-RHF iter   4:  -217.21554726459061    9.41814e+00   5.98126e-02 DIIS
   @DF-RHF iter   5:  -270.60648498620861   -5.33909e+01   9.45149e-03 DIIS
   @DF-RHF iter   6:  -271.06643308347515   -4.59948e-01   3.76822e-03 DIIS
   @DF-RHF iter   7:  -271.14906372240165   -8.26306e-02   1.25188e-03 DIIS
   @DF-RHF iter   8:  -271.15969276525385   -1.06290e-02   4.58026e-04 DIIS
   @DF-RHF iter   9:  -271.16167672478645   -1.98396e-03   1.38579e-04 DIIS
   @DF-RHF iter  10:  -271.16184689996061   -1.70175e-04   4.52902e-05 DIIS
   @DF-RHF iter  11:  -271.16186822762376   -2.13277e-05   1.07793e-05 DIIS
   @DF-RHF iter  12:  -271.16186928315625   -1.05553e-06   3.07175e-06 DIIS
   @DF-RHF iter  13:  -271.16186939902508   -1.15869e-07   8.61254e-07 DIIS

  ==> Post-Iterations <==

    Orbital Energies (a.u.)
    -----------------------

    Doubly Occupied:                                                      

       1A    -20.557855     2A    -11.271813     3A    -11.211642  
       4A    -11.205040     5A    -11.192413     6A    -11.184859  
       7A     -1.369657     8A     -1.069890     9A     -0.999908  
      10A     -0.911433    11A     -0.826115    12A     -0.764528  
      13A     -0.711542    14A     -0.655107    15A     -0.606007  
      16A     -0.594912    17A     -0.561740    18A     -0.549110  
      19A     -0.519387    20A     -0.511565    21A     -0.488988  
      22A     -0.461447    23A     -0.445337    24A     -0.442379  
      25A     -0.406472  

    Virtual:                                                              

      26A      0.215562    27A      0.251251    28A      0.277116  
      29A      0.279894    30A      0.307054    31A      0.313097  
      32A      0.323227    33A      0.336945    34A      0.351426  
      35A      0.367743    36A      0.375003    37A      0.392927  
      38A      0.402168    39A      0.434962    40A      0.448417  
      41A      0.461353    42A      0.487044    43A      0.712423  
      44A      0.729462    45A      0.743050    46A      0.767951  
      47A      0.778003    48A      0.806669    49A      0.840852  
      50A      0.896427    51A      0.928431    52A      0.949219  
      53A      0.979874    54A      0.999480    55A      1.027617  
      56A      1.084538    57A      1.122753    58A      1.135108  
      59A      1.150300    60A      1.158404    61A      1.188381  
      62A      1.193140    63A      1.203191    64A      1.210667  
      65A      1.235407    66A      1.245332    67A      1.261394  
      68A      1.276394    69A      1.290040    70A      1.314650  
      71A      1.374162    72A      1.422975    73A      1.447735  
      74A      1.532751    75A      1.653870    76A      1.678321  
      77A      1.706056    78A      1.805583    79A      1.854327  
      80A      1.876064    81A      1.921735    82A      2.022973  
      83A      2.052952    84A      2.144957    85A      2.163809  
      86A      2.207363    87A      2.230425    88A      2.292158  
      89A      2.314484    90A      2.360772    91A      2.395519  
      92A      2.422192    93A      2.453264    94A      2.490869  
      95A      2.588660    96A      2.623989    97A      2.650019  
      98A      2.697519    99A      2.721011   100A      2.767638  
     101A      2.816899   102A      2.823479   103A      2.906215  
     104A      2.976305   105A      3.006503   106A      3.037278  
     107A      3.108378   108A      3.228881   109A      4.257949  
     110A      4.596368   111A      4.667195   112A      4.805927  
     113A      4.946463   114A      4.984209  

    Final Occupation by Irrep:
              A 
    DOCC [    25 ]

  Energy converged.

  @DF-RHF Final Energy:  -271.16186939902508

   => Energetics <=

    Nuclear Repulsion Energy =            263.2272839631010015
    One-Electron Energy =                -889.7405575385749898
    Two-Electron Energy =                 355.3514041764490230
    DFT Exchange-Correlation Energy =       0.0000000000000000
    Empirical Dispersion Energy =           0.0000000000000000
    PCM Polarization Energy =               0.0000000000000000
    EFP Energy =                            0.0000000000000000
    Total Energy =                       -271.1618693990249085

    Alert: EFP and PCM quantities not currently incorporated into SCF psivars.

Properties will be evaluated at   0.000000,   0.000000,   0.000000 Bohr
  ==> Properties <==


Properties computed using the SCF density matrix

  Nuclear Dipole Moment: (a.u.)
     X:     2.9868      Y:     0.8714      Z:    -0.6208

  Electronic Dipole Moment: (a.u.)
     X:    -3.6239      Y:    -1.2297      Z:     0.2229

  Dipole Moment: (a.u.)
     X:    -0.6371      Y:    -0.3583      Z:    -0.3979     Total:     0.8322

  Dipole Moment: (Debye)
     X:    -1.6192      Y:    -0.9108      Z:    -1.0114     Total:     2.1153


  Saving occupied orbitals to File 180.

*** tstop() called on cx1-3-2-3.cx1.hpc.ic.ac.uk at Tue Jul  5 16:44:13 2016
Module time:
	user time   =       8.69 seconds =       0.14 minutes
	system time =       0.05 seconds =       0.00 minutes
	total time  =         10 seconds =       0.17 minutes
Total time:
	user time   =       8.69 seconds =       0.14 minutes
	system time =       0.05 seconds =       0.00 minutes
	total time  =         10 seconds =       0.17 minutes


Properties will be evaluated at   0.000000,   0.000000,   0.000000 Bohr

Properties computed using the  density matrix

  Nuclear Dipole Moment: (a.u.)
     X:     2.9868      Y:     0.8714      Z:    -0.6208

  Electronic Dipole Moment: (a.u.)
     X:    -3.6239      Y:    -1.2297      Z:     0.2229

  Dipole Moment: (a.u.)
     X:    -0.6371      Y:    -0.3583      Z:    -0.3979     Total:     0.8322

  Dipole Moment: (Debye)
     X:    -1.6192      Y:    -0.9108      Z:    -1.0114     Total:     2.1153

  Quadrupole Moment: (Debye Ang)
    XX:   -37.0151     YY:   -38.6930     ZZ:   -40.3518
    XY:     2.7128     XZ:     0.1756     YZ:    -1.2005

  Traceless Quadrupole Moment: (Debye Ang)
    XX:     1.6715     YY:    -0.0063     ZZ:    -1.6651
    XY:     2.7128     XZ:     0.1756     YZ:    -1.2005

  Mulliken Charges: (a.u.)
   Center  Symbol    Alpha    Beta     Spin     Total
       1     H     0.27904  0.27904  0.00000  0.44192
       2     O     4.37015  4.37015  0.00000 -0.74029
       3     C     2.99406  2.99406  0.00000  0.01188
       4     C     3.16940  3.16940  0.00000 -0.33880
       5     H     0.43154  0.43154  0.00000  0.13691
       6     H     0.42537  0.42537  0.00000  0.14926
       7     C     3.15426  3.15426  0.00000 -0.30852
       8     H     0.42079  0.42079  0.00000  0.15843
       9     H     0.41576  0.41576  0.00000  0.16848
      10     C     3.16349  3.16349  0.00000 -0.32698
      11     H     0.42229  0.42229  0.00000  0.15543
      12     H     0.42712  0.42712  0.00000  0.14577
      13     C     3.23888  3.23888  0.00000 -0.47777
      14     H     0.38233  0.38233  0.00000  0.23535
      15     H     0.43138  0.43138  0.00000  0.13725
      16     H     0.42406  0.42406  0.00000  0.15188
      17     H     0.42234  0.42234  0.00000  0.15531
      18     H     0.42775  0.42775  0.00000  0.14451

   Total alpha = 25.00000, Total beta = 25.00000, Total charge =  0.00000


*** PSI4 exiting successfully. Buy a developer a beer!
