    -----------------------------------------------------------------------
          Psi4: An Open-Source Ab Initio Electronic Structure Package
                              Psi4 (no tag) Driver

                          Git: Rev {detached?}  

    J. M. Turney, A. C. Simmonett, R. M. Parrish, E. G. Hohenstein,
    F. A. Evangelista, J. T. Fermann, B. J. Mintz, L. A. Burns, J. J. Wilke,
    M. L. Abrams, N. J. Russ, M. L. Leininger, C. L. Janssen, E. T. Seidl,
    W. D. Allen, H. F. Schaefer, R. A. King, E. F. Valeev, C. D. Sherrill,
    and T. D. Crawford, WIREs Comput. Mol. Sci. 2, 556-565 (2012)
    (doi: 10.1002/wcms.93)

                         Additional Contributions by
    A. E. DePrince, M. Saitow, U. Bozkaya, A. Yu. Sokolov
    -----------------------------------------------------------------------


    Psi4 started on: Tue Jul  5 17:38:53 2016

    Process ID:  17964
    PSI4DATADIR: /export131/home/mjharvey/miniconda3/share
    Memory level set to 256.000 MB

  ==> Input File <==

--------------------------------------------------------------------------
set {
	reference rhf
	basis 6-31G*
}


set_num_threads( 1 )
memory 2 gb

molecule MOL {
0 1

O	 -3.299479	 5.316029	 2.022070
C	 -3.589812	 4.457530	 1.246542
C	 -2.652680	 3.307590	 0.923494
C	 -4.923947	 4.460889	 0.528749
C	 -2.933125	 2.035105	 1.717450
H	 -2.717326	 3.115698	 -0.146734
H	 -1.633034	 3.650735	 1.093720
C	 -1.970234	 0.900009	 1.365086
H	 -3.956204	 1.721029	 1.536352
H	 -2.870479	 2.256545	 2.778198
C	 -2.259874	 0.272531	 0.000494
H	 -0.947422	 1.273829	 1.377850
H	 -2.021110	 0.128757	 2.132320
C	 -2.299309	 1.292585	 -1.138781
H	 -3.210635	 -0.255973	 0.042417
H	 -1.503664	 -0.479692	 -0.217000
C	 -3.566352	 2.147124	 -1.131721
H	 -1.427462	 1.940154	 -1.072741
H	 -2.220829	 0.772174	 -2.091079
H	 -3.656394	 2.706940	 -0.205088
H	 -3.564796	 2.860504	 -1.950126
H	 -4.455333	 1.530813	 -1.231810
H	 -5.476294	 3.552567	 0.751197
H	 -5.502545	 5.320129	 0.838209
H	 -4.775253	 4.492296	 -0.546676

	symmetry c1
}
set optking {
	frozen_dihedral = ("
		9 5 8 12,
		15 11 8 12,
		15 11 14 18,
		9 5 3 6
	")
}

ee = energy('scf')
oeprop('DIPOLE', 'QUADRUPOLE', 'MULLIKEN_CHARGES')
f=open( 'psi4out.xyz', 'w' )
f.write( "25  " )
f.write( str(ee) + "\n" )
f.write( MOL.save_string_xyz() )
f.close()
--------------------------------------------------------------------------

  Memory set to   2.000 GiB by Python script.

*** tstart() called on cx1-1-2-1.cx1.hpc.ic.ac.uk
*** at Tue Jul  5 17:38:53 2016


         ---------------------------------------------------------
                                   SCF
            by Justin Turney, Rob Parrish, and Andy Simmonett
                              RHF Reference
                        1 Threads,   2000 MiB Core
         ---------------------------------------------------------

  ==> Geometry <==

    Molecular point group: c1
    Full point group: C1

    Geometry (in Angstrom), charge = 0, multiplicity = 1:

       Center              X                  Y                   Z               Mass       
    ------------   -----------------  -----------------  -----------------  -----------------
           O         -0.228544876645     2.612574268304     1.416452579824    15.994914619560
           C         -0.518877876645     1.754075268304     0.640924579824    12.000000000000
           C          0.418254123355     0.604135268304     0.317876579824    12.000000000000
           C         -1.853012876645     1.757434268304    -0.076868420176    12.000000000000
           C          0.137809123355    -0.668349731696     1.111832579824    12.000000000000
           H          0.353608123355     0.412243268304    -0.752351420176     1.007825032070
           H          1.437900123355     0.947280268304     0.488102579824     1.007825032070
           C          1.100700123355    -1.803445731696     0.759468579824    12.000000000000
           H         -0.885269876645    -0.982425731696     0.930734579824     1.007825032070
           H          0.200455123355    -0.446909731696     2.172580579824     1.007825032070
           C          0.811060123355    -2.430923731696    -0.605123420176    12.000000000000
           H          2.123512123355    -1.429625731696     0.772232579824     1.007825032070
           H          1.049824123355    -2.574697731696     1.526702579824     1.007825032070
           C          0.771625123355    -1.410869731696    -1.744398420176    12.000000000000
           H         -0.139700876645    -2.959427731696    -0.563200420176     1.007825032070
           H          1.567270123355    -3.183146731696    -0.822617420176     1.007825032070
           C         -0.495417876645    -0.556330731696    -1.737338420176    12.000000000000
           H          1.643472123355    -0.763300731696    -1.678358420176     1.007825032070
           H          0.850105123355    -1.931280731696    -2.696696420176     1.007825032070
           H         -0.585459876645     0.003485268304    -0.810705420176     1.007825032070
           H         -0.493861876645     0.157049268304    -2.555743420176     1.007825032070
           H         -1.384398876645    -1.172641731696    -1.837427420176     1.007825032070
           H         -2.405359876645     0.849112268304     0.145579579824     1.007825032070
           H         -2.431610876645     2.616674268304     0.232591579824     1.007825032070
           H         -1.704318876645     1.788841268304    -1.152293420176     1.007825032070

  Running in c1 symmetry.

  Rotational constants: A =      0.08955  B =      0.03307  C =      0.02720 [cm^-1]
  Rotational constants: A =   2684.52467  B =    991.34704  C =    815.47522 [MHz]
  Nuclear repulsion =  489.327340297870990

  Charge       = 0
  Multiplicity = 1
  Electrons    = 72
  Nalpha       = 36
  Nbeta        = 36

  ==> Algorithm <==

  SCF Algorithm Type is DF.
  DIIS enabled.
  MOM disabled.
  Fractional occupation disabled.
  Guess Type is CORE.
  Energy threshold   = 1.00e-06
  Density threshold  = 1.00e-06
  Integral threshold = 0.00e+00

  ==> Primary Basis <==

  Basis Set: 6-31G*
    Number of shells: 86
    Number of basis function: 167
    Number of Cartesian functions: 167
    Spherical Harmonics?: false
    Max angular momentum: 2

  ==> Pre-Iterations <==

   -------------------------------------------------------
    Irrep   Nso     Nmo     Nalpha   Nbeta   Ndocc  Nsocc
   -------------------------------------------------------
     A        167     167       0       0       0       0
   -------------------------------------------------------
    Total     167     167      36      36      36       0
   -------------------------------------------------------

 OEINTS: Overlap, kinetic, potential, dipole, and quadrupole integrals
         stored in file 35.

  ==> Integral Setup <==

  ==> DFJK: Density-Fitted J/K Matrices <==

    J tasked:                  Yes
    K tasked:                  Yes
    wK tasked:                  No
    OpenMP threads:              1
    Integrals threads:           1
    Memory (MB):              1430
    Algorithm:                Core
    Integral Cache:           NONE
    Schwarz Cutoff:          1E-12
    Fitting Condition:       1E-12

   => Auxiliary Basis Set <=

  Basis Set: 
    Number of shells: 360
    Number of basis function: 1129
    Number of Cartesian functions: 1129
    Spherical Harmonics?: false
    Max angular momentum: 3

  Minimum eigenvalue in the overlap matrix is 2.3538965572E-03.
  Using Symmetric Orthogonalization.
  SCF Guess: Core (One-Electron) Hamiltonian.

  ==> Iterations <==

                           Total Energy        Delta E     RMS |[F,P]|

   @DF-RHF iter   1:  -303.56660044546953   -3.03567e+02   5.82554e-02 
   @DF-RHF iter   2:  -283.91672992614320    1.96499e+01   4.43725e-02 DIIS
   @DF-RHF iter   3:  -293.18186628141956   -9.26514e+00   5.96275e-02 DIIS
   @DF-RHF iter   4:  -370.64794793967582   -7.74661e+01   2.50218e-02 DIIS
   @DF-RHF iter   5:  -384.90085163027078   -1.42529e+01   1.02506e-02 DIIS
   @DF-RHF iter   6:  -386.66050608859854   -1.75965e+00   4.87463e-03 DIIS
   @DF-RHF iter   7:  -386.97197713439556   -3.11471e-01   1.20347e-03 DIIS
   @DF-RHF iter   8:  -386.99362330096284   -2.16462e-02   5.70016e-04 DIIS
   @DF-RHF iter   9:  -386.99860158734833   -4.97829e-03   1.36536e-04 DIIS
   @DF-RHF iter  10:  -386.99904708937703   -4.45502e-04   4.07703e-05 DIIS
   @DF-RHF iter  11:  -386.99909138682773   -4.42975e-05   1.26833e-05 DIIS
   @DF-RHF iter  12:  -386.99909621167495   -4.82485e-06   3.27635e-06 DIIS
   @DF-RHF iter  13:  -386.99909666293996   -4.51265e-07   1.29016e-06 DIIS
   @DF-RHF iter  14:  -386.99909675602663   -9.30867e-08   5.87526e-07 DIIS

  ==> Post-Iterations <==

    Orbital Energies (a.u.)
    -----------------------

    Doubly Occupied:                                                      

       1A    -20.547060     2A    -11.323628     3A    -11.232167  
       4A    -11.227059     5A    -11.226006     6A    -11.224883  
       7A    -11.222572     8A    -11.207842     9A    -11.203068  
      10A     -1.391928    11A     -1.132935    12A     -1.052116  
      13A     -1.030739    14A     -0.988125    15A     -0.897540  
      16A     -0.850455    17A     -0.786136    18A     -0.748808  
      19A     -0.701123    20A     -0.650264    21A     -0.627895  
      22A     -0.619519    23A     -0.615164    24A     -0.597004  
      25A     -0.581223    26A     -0.566042    27A     -0.555138  
      28A     -0.535997    29A     -0.519899    30A     -0.502755  
      31A     -0.480056    32A     -0.471902    33A     -0.465426  
      34A     -0.455913    35A     -0.417599    36A     -0.388281  

    Virtual:                                                              

      37A      0.169904    38A      0.219158    39A      0.233727  
      40A      0.252701    41A      0.254366    42A      0.278541  
      43A      0.293072    44A      0.298360    45A      0.304823  
      46A      0.312100    47A      0.319802    48A      0.332098  
      49A      0.337273    50A      0.352663    51A      0.370364  
      52A      0.379695    53A      0.391106    54A      0.399881  
      55A      0.428558    56A      0.447114    57A      0.455841  
      58A      0.475102    59A      0.484745    60A      0.513467  
      61A      0.532793    62A      0.697002    63A      0.712146  
      64A      0.729578    65A      0.739372    66A      0.758550  
      67A      0.772454    68A      0.775880    69A      0.822831  
      70A      0.863076    71A      0.896227    72A      0.906626  
      73A      0.916030    74A      0.943769    75A      0.953888  
      76A      0.980803    77A      0.989702    78A      0.998555  
      79A      1.023542    80A      1.049487    81A      1.067894  
      82A      1.083162    83A      1.100708    84A      1.122052  
      85A      1.126277    86A      1.132254    87A      1.148629  
      88A      1.150437    89A      1.161688    90A      1.179590  
      91A      1.194632    92A      1.197764    93A      1.218881  
      94A      1.226390    95A      1.236321    96A      1.248825  
      97A      1.259585    98A      1.270828    99A      1.275483  
     100A      1.294731   101A      1.318908   102A      1.339644  
     103A      1.374439   104A      1.440395   105A      1.461004  
     106A      1.508819   107A      1.549572   108A      1.662550  
     109A      1.696012   110A      1.731609   111A      1.763718  
     112A      1.785090   113A      1.807796   114A      1.834859  
     115A      1.935537   116A      1.951414   117A      1.997568  
     118A      2.029064   119A      2.076049   120A      2.086949  
     121A      2.107897   122A      2.113292   123A      2.155598  
     124A      2.190213   125A      2.198560   126A      2.224229  
     127A      2.245615   128A      2.255214   129A      2.265945  
     130A      2.310326   131A      2.324925   132A      2.346287  
     133A      2.386131   134A      2.395433   135A      2.470286  
     136A      2.477385   137A      2.545906   138A      2.584238  
     139A      2.591762   140A      2.638174   141A      2.678574  
     142A      2.694354   143A      2.707099   144A      2.729794  
     145A      2.750919   146A      2.761200   147A      2.797024  
     148A      2.824717   149A      2.891549   150A      2.952702  
     151A      2.981741   152A      3.004287   153A      3.018631  
     154A      3.084466   155A      3.117618   156A      3.143779  
     157A      3.382758   158A      3.389613   159A      4.460086  
     160A      4.577185   161A      4.608063   162A      4.707643  
     163A      4.792894   164A      4.865039   165A      4.938631  
     166A      4.992476   167A      5.106970  

    Final Occupation by Irrep:
              A 
    DOCC [    36 ]

  Energy converged.

  @DF-RHF Final Energy:  -386.99909675602663

   => Energetics <=

    Nuclear Repulsion Energy =            489.3273402978709896
    One-Electron Energy =               -1494.5644285503403808
    Two-Electron Energy =                 618.2379914964423051
    DFT Exchange-Correlation Energy =       0.0000000000000000
    Empirical Dispersion Energy =           0.0000000000000000
    PCM Polarization Energy =               0.0000000000000000
    EFP Energy =                            0.0000000000000000
    Total Energy =                       -386.9990967560271429

    Alert: EFP and PCM quantities not currently incorporated into SCF psivars.

Properties will be evaluated at   0.000000,   0.000000,   0.000000 Bohr
  ==> Properties <==


Properties computed using the SCF density matrix

  Nuclear Dipole Moment: (a.u.)
     X:    -0.7547      Y:    -8.1142      Z:    -6.1813

  Electronic Dipole Moment: (a.u.)
     X:     0.5447      Y:     7.0743      Z:     5.3980

  Dipole Moment: (a.u.)
     X:    -0.2099      Y:    -1.0399      Z:    -0.7833     Total:     1.3187

  Dipole Moment: (Debye)
     X:    -0.5336      Y:    -2.6431      Z:    -1.9909     Total:     3.3517


  Saving occupied orbitals to File 180.

*** tstop() called on cx1-1-2-1.cx1.hpc.ic.ac.uk at Tue Jul  5 17:39:19 2016
Module time:
	user time   =      24.69 seconds =       0.41 minutes
	system time =       0.23 seconds =       0.00 minutes
	total time  =         26 seconds =       0.43 minutes
Total time:
	user time   =      24.69 seconds =       0.41 minutes
	system time =       0.23 seconds =       0.00 minutes
	total time  =         26 seconds =       0.43 minutes


Properties will be evaluated at   0.000000,   0.000000,   0.000000 Bohr

Properties computed using the  density matrix

  Nuclear Dipole Moment: (a.u.)
     X:    -0.7547      Y:    -8.1142      Z:    -6.1813

  Electronic Dipole Moment: (a.u.)
     X:     0.5447      Y:     7.0743      Z:     5.3980

  Dipole Moment: (a.u.)
     X:    -0.2099      Y:    -1.0399      Z:    -0.7833     Total:     1.3187

  Dipole Moment: (Debye)
     X:    -0.5336      Y:    -2.6431      Z:    -1.9909     Total:     3.3517

  Quadrupole Moment: (Debye Ang)
    XX:   -56.9731     YY:   -67.2699     ZZ:   -61.8113
    XY:    -1.5002     XZ:    -0.5612     YZ:    -7.2120

  Traceless Quadrupole Moment: (Debye Ang)
    XX:     5.0449     YY:    -5.2518     ZZ:     0.2068
    XY:    -1.5002     XZ:    -0.5612     YZ:    -7.2120

  Mulliken Charges: (a.u.)
   Center  Symbol    Alpha    Beta     Spin     Total
       1     O     4.26118  4.26118  0.00000 -0.52235
       2     C     2.71717  2.71717  0.00000  0.56566
       3     C     3.26631  3.26631  0.00000 -0.53263
       4     C     3.30463  3.30463  0.00000 -0.60927
       5     C     3.17150  3.17150  0.00000 -0.34300
       6     H     0.37876  0.37876  0.00000  0.24248
       7     H     0.39873  0.39873  0.00000  0.20255
       8     C     3.15225  3.15225  0.00000 -0.30450
       9     H     0.41624  0.41624  0.00000  0.16752
      10     H     0.40154  0.40154  0.00000  0.19692
      11     C     3.15147  3.15147  0.00000 -0.30294
      12     H     0.41824  0.41824  0.00000  0.16353
      13     H     0.41595  0.41595  0.00000  0.16810
      14     C     3.17403  3.17403  0.00000 -0.34806
      15     H     0.42154  0.42154  0.00000  0.15691
      16     H     0.41728  0.41728  0.00000  0.16543
      17     C     3.26906  3.26906  0.00000 -0.53811
      18     H     0.41519  0.41519  0.00000  0.16962
      19     H     0.41095  0.41095  0.00000  0.17811
      20     H     0.40251  0.40251  0.00000  0.19497
      21     H     0.41510  0.41510  0.00000  0.16981
      22     H     0.41711  0.41711  0.00000  0.16578
      23     H     0.40557  0.40557  0.00000  0.18886
      24     H     0.39236  0.39236  0.00000  0.21527
      25     H     0.40532  0.40532  0.00000  0.18936

   Total alpha = 36.00000, Total beta = 36.00000, Total charge =  0.00000


*** PSI4 exiting successfully. Buy a developer a beer!
