    -----------------------------------------------------------------------
          Psi4: An Open-Source Ab Initio Electronic Structure Package
                              Psi4 (no tag) Driver

                          Git: Rev {detached?}  

    J. M. Turney, A. C. Simmonett, R. M. Parrish, E. G. Hohenstein,
    F. A. Evangelista, J. T. Fermann, B. J. Mintz, L. A. Burns, J. J. Wilke,
    M. L. Abrams, N. J. Russ, M. L. Leininger, C. L. Janssen, E. T. Seidl,
    W. D. Allen, H. F. Schaefer, R. A. King, E. F. Valeev, C. D. Sherrill,
    and T. D. Crawford, WIREs Comput. Mol. Sci. 2, 556-565 (2012)
    (doi: 10.1002/wcms.93)

                         Additional Contributions by
    A. E. DePrince, M. Saitow, U. Bozkaya, A. Yu. Sokolov
    -----------------------------------------------------------------------


    Psi4 started on: Tue Jul  5 16:31:30 2016

    Process ID:  20782
    PSI4DATADIR: /export131/home/mjharvey/miniconda3/share
    Memory level set to 256.000 MB

  ==> Input File <==

--------------------------------------------------------------------------
set {
	reference rhf
	basis 6-31G*
}


set_num_threads( 1 )
memory 2 gb

molecule MOL {
0 1

H	 2.962496	 -0.577202	 -1.744492
O	 2.045245	 -0.795659	 -1.831300
C	 1.301594	 -0.136111	 -0.916767
C	 1.860868	 0.737131	 0.007334
C	 -0.064799	 -0.356056	 -0.921907
H	 2.924453	 0.906888	 0.009632
C	 1.054245	 1.389249	 0.924815
H	 -0.498074	 -1.030309	 -1.635161
C	 -0.865228	 0.300799	 0.000000
H	 1.498493	 2.062700	 1.635086
C	 -0.312282	 1.175399	 0.926875
C	 -2.333960	 0.069074	 0.000000
H	 -0.940700	 1.680872	 1.638629
O	 -2.847347	 -1.003763	 0.000000
H	 -2.943845	 0.977528	 0.000000

	symmetry c1
}
set optking {
	frozen_dihedral = ("
		4 3 2 1
	")
}

ee = energy('scf')
oeprop('DIPOLE', 'QUADRUPOLE', 'MULLIKEN_CHARGES')
f=open( 'psi4out.xyz', 'w' )
f.write( "15  " )
f.write( str(ee) + "\n" )
f.write( MOL.save_string_xyz() )
f.close()
--------------------------------------------------------------------------

  Memory set to   2.000 GiB by Python script.

*** tstart() called on cx1-3-16-3.cx1.hpc.ic.ac.uk
*** at Tue Jul  5 16:31:30 2016


         ---------------------------------------------------------
                                   SCF
            by Justin Turney, Rob Parrish, and Andy Simmonett
                              RHF Reference
                        1 Threads,   2000 MiB Core
         ---------------------------------------------------------

  ==> Geometry <==

    Molecular point group: c1
    Full point group: C1

    Geometry (in Angstrom), charge = 0, multiplicity = 1:

       Center              X                  Y                   Z               Mass       
    ------------   -----------------  -----------------  -----------------  -----------------
           H          2.979851233642    -0.687202904395    -1.505675908031     1.007825032070
           O          2.062600233642    -0.905659904395    -1.592483908031    15.994914619560
           C          1.318949233642    -0.246111904395    -0.677950908031    12.000000000000
           C          1.878223233642     0.627130095605     0.246150091969    12.000000000000
           C         -0.047443766358    -0.466056904395    -0.683090908031    12.000000000000
           H          2.941808233642     0.796887095605     0.248448091969     1.007825032070
           C          1.071600233642     1.279248095605     1.163631091969    12.000000000000
           H         -0.480718766358    -1.140309904395    -1.396344908031     1.007825032070
           C         -0.847872766358     0.190798095605     0.238816091969    12.000000000000
           H          1.515848233642     1.952699095605     1.873902091969     1.007825032070
           C         -0.294926766358     1.065398095605     1.165691091969    12.000000000000
           C         -2.316604766358    -0.040926904395     0.238816091969    12.000000000000
           H         -0.923344766358     1.570871095605     1.877445091969     1.007825032070
           O         -2.829991766358    -1.113763904395     0.238816091969    15.994914619560
           H         -2.926489766358     0.867527095605     0.238816091969     1.007825032070

  Running in c1 symmetry.

  Rotational constants: A =      0.10250  B =      0.04208  C =      0.03039 [cm^-1]
  Rotational constants: A =   3072.72813  B =   1261.52909  C =    911.08900 [MHz]
  Nuclear repulsion =  402.614594417441481

  Charge       = 0
  Multiplicity = 1
  Electrons    = 64
  Nalpha       = 32
  Nbeta        = 32

  ==> Algorithm <==

  SCF Algorithm Type is DF.
  DIIS enabled.
  MOM disabled.
  Fractional occupation disabled.
  Guess Type is CORE.
  Energy threshold   = 1.00e-06
  Density threshold  = 1.00e-06
  Integral threshold = 0.00e+00

  ==> Primary Basis <==

  Basis Set: 6-31G*
    Number of shells: 66
    Number of basis function: 147
    Number of Cartesian functions: 147
    Spherical Harmonics?: false
    Max angular momentum: 2

  ==> Pre-Iterations <==

   -------------------------------------------------------
    Irrep   Nso     Nmo     Nalpha   Nbeta   Ndocc  Nsocc
   -------------------------------------------------------
     A        147     147       0       0       0       0
   -------------------------------------------------------
    Total     147     147      32      32      32       0
   -------------------------------------------------------

 OEINTS: Overlap, kinetic, potential, dipole, and quadrupole integrals
         stored in file 35.

  ==> Integral Setup <==

  ==> DFJK: Density-Fitted J/K Matrices <==

    J tasked:                  Yes
    K tasked:                  Yes
    wK tasked:                  No
    OpenMP threads:              1
    Integrals threads:           1
    Memory (MB):              1430
    Algorithm:                Core
    Integral Cache:           NONE
    Schwarz Cutoff:          1E-12
    Fitting Condition:       1E-12

   => Auxiliary Basis Set <=

  Basis Set: 
    Number of shells: 270
    Number of basis function: 879
    Number of Cartesian functions: 879
    Spherical Harmonics?: false
    Max angular momentum: 3

  Minimum eigenvalue in the overlap matrix is 4.1906802230E-04.
  Using Symmetric Orthogonalization.
  SCF Guess: Core (One-Electron) Hamiltonian.

  ==> Iterations <==

                           Total Energy        Delta E     RMS |[F,P]|

   @DF-RHF iter   1:  -337.80624048403297   -3.37806e+02   6.26627e-02 
   @DF-RHF iter   2:  -251.33827482380946    8.64680e+01   7.11945e-02 DIIS
   @DF-RHF iter   3:  -331.57659981740846   -8.02383e+01   5.14353e-02 DIIS
   @DF-RHF iter   4:  -339.75642825130876   -8.17983e+00   5.62396e-02 DIIS
   @DF-RHF iter   5:  -417.27596684389255   -7.75195e+01   9.79393e-03 DIIS
   @DF-RHF iter   6:  -417.86303624153732   -5.87069e-01   6.83119e-03 DIIS
   @DF-RHF iter   7:  -418.25581838124924   -3.92782e-01   1.17853e-03 DIIS
   @DF-RHF iter   8:  -418.27552179515078   -1.97034e-02   4.33410e-04 DIIS
   @DF-RHF iter   9:  -418.27816590763643   -2.64411e-03   1.63167e-04 DIIS
   @DF-RHF iter  10:  -418.27870565686942   -5.39749e-04   5.79599e-05 DIIS
   @DF-RHF iter  11:  -418.27879430174846   -8.86449e-05   2.37315e-05 DIIS
   @DF-RHF iter  12:  -418.27881688316074   -2.25814e-05   1.46299e-05 DIIS
   @DF-RHF iter  13:  -418.27882613436850   -9.25121e-06   4.92149e-06 DIIS
   @DF-RHF iter  14:  -418.27882763724131   -1.50287e-06   1.87093e-06 DIIS
   @DF-RHF iter  15:  -418.27882783371967   -1.96478e-07   8.81103e-07 DIIS

  ==> Post-Iterations <==

    Orbital Energies (a.u.)
    -----------------------

    Doubly Occupied:                                                      

       1A    -20.602226     2A    -20.569664     3A    -11.334416  
       4A    -11.313437     5A    -11.254856     6A    -11.253071  
       7A    -11.245625     8A    -11.243136     9A    -11.240087  
      10A     -1.421751    11A     -1.408251    12A     -1.169006  
      13A     -1.048866    14A     -1.026093    15A     -0.900482  
      16A     -0.844034    17A     -0.815720    18A     -0.736984  
      19A     -0.701337    20A     -0.682453    21A     -0.649090  
      22A     -0.639386    23A     -0.614455    24A     -0.600398  
      25A     -0.579829    26A     -0.544782    27A     -0.532664  
      28A     -0.513916    29A     -0.489471    30A     -0.424099  
      31A     -0.353362    32A     -0.324938  

    Virtual:                                                              

      33A      0.101370    34A      0.142403    35A      0.191061  
      36A      0.212733    37A      0.240568    38A      0.280090  
      39A      0.301587    40A      0.304637    41A      0.335062  
      42A      0.369367    43A      0.419894    44A      0.444335  
      45A      0.447352    46A      0.476339    47A      0.505852  
      48A      0.559050    49A      0.590891    50A      0.643312  
      51A      0.713190    52A      0.732358    53A      0.736244  
      54A      0.755857    55A      0.773020    56A      0.811072  
      57A      0.814190    58A      0.818866    59A      0.840422  
      60A      0.860106    61A      0.875571    62A      0.888968  
      63A      0.900048    64A      0.930202    65A      0.977159  
      66A      0.995862    67A      1.007168    68A      1.045669  
      69A      1.085382    70A      1.099429    71A      1.106012  
      72A      1.124471    73A      1.130974    74A      1.145585  
      75A      1.154482    76A      1.181735    77A      1.202166  
      78A      1.209177    79A      1.235292    80A      1.259644  
      81A      1.320192    82A      1.339682    83A      1.356210  
      84A      1.375830    85A      1.400109    86A      1.432867  
      87A      1.460119    88A      1.485623    89A      1.554757  
      90A      1.616970    91A      1.629075    92A      1.683263  
      93A      1.704703    94A      1.743105    95A      1.754229  
      96A      1.777048    97A      1.823539    98A      1.880688  
      99A      1.945721   100A      2.015906   101A      2.041707  
     102A      2.045921   103A      2.078672   104A      2.083836  
     105A      2.164020   106A      2.170654   107A      2.219857  
     108A      2.243323   109A      2.278133   110A      2.294144  
     111A      2.304054   112A      2.342142   113A      2.388282  
     114A      2.433575   115A      2.442325   116A      2.497283  
     117A      2.537378   118A      2.589178   119A      2.610821  
     120A      2.633956   121A      2.697380   122A      2.762673  
     123A      2.793122   124A      2.846531   125A      2.883907  
     126A      2.910604   127A      2.961855   128A      3.014350  
     129A      3.038196   130A      3.049485   131A      3.103584  
     132A      3.158750   133A      3.232076   134A      3.297160  
     135A      3.332614   136A      3.391092   137A      3.531955  
     138A      3.833993   139A      4.261801   140A      4.360962  
     141A      4.504780   142A      4.520183   143A      4.600359  
     144A      4.624521   145A      4.775896   146A      4.879874  
     147A      5.186522  

    Final Occupation by Irrep:
              A 
    DOCC [    32 ]

  Energy converged.

  @DF-RHF Final Energy:  -418.27882783371967

   => Energetics <=

    Nuclear Repulsion Energy =            402.6145944174414808
    One-Electron Energy =               -1367.6312512204506220
    Two-Electron Energy =                 546.7378289692901490
    DFT Exchange-Correlation Energy =       0.0000000000000000
    Empirical Dispersion Energy =           0.0000000000000000
    PCM Polarization Energy =               0.0000000000000000
    EFP Energy =                            0.0000000000000000
    Total Energy =                       -418.2788278337189922

    Alert: EFP and PCM quantities not currently incorporated into SCF psivars.

Properties will be evaluated at   0.000000,   0.000000,   0.000000 Bohr
  ==> Properties <==


Properties computed using the SCF density matrix

  Nuclear Dipole Moment: (a.u.)
     X:     2.9090      Y:     3.1406      Z:     1.2465

  Electronic Dipole Moment: (a.u.)
     X:    -1.6482      Y:    -1.8943      Z:    -1.0151

  Dipole Moment: (a.u.)
     X:     1.2608      Y:     1.2463      Z:     0.2314     Total:     1.7878

  Dipole Moment: (Debye)
     X:     3.2046      Y:     3.1678      Z:     0.5883     Total:     4.5442


  Saving occupied orbitals to File 180.

*** tstop() called on cx1-3-16-3.cx1.hpc.ic.ac.uk at Tue Jul  5 16:31:50 2016
Module time:
	user time   =      19.66 seconds =       0.33 minutes
	system time =       0.07 seconds =       0.00 minutes
	total time  =         20 seconds =       0.33 minutes
Total time:
	user time   =      19.66 seconds =       0.33 minutes
	system time =       0.07 seconds =       0.00 minutes
	total time  =         20 seconds =       0.33 minutes


Properties will be evaluated at   0.000000,   0.000000,   0.000000 Bohr

Properties computed using the  density matrix

  Nuclear Dipole Moment: (a.u.)
     X:     2.9090      Y:     3.1406      Z:     1.2465

  Electronic Dipole Moment: (a.u.)
     X:    -1.6482      Y:    -1.8943      Z:    -1.0151

  Dipole Moment: (a.u.)
     X:     1.2608      Y:     1.2463      Z:     0.2314     Total:     1.7878

  Dipole Moment: (Debye)
     X:     3.2046      Y:     3.1678      Z:     0.5883     Total:     4.5442

  Quadrupole Moment: (Debye Ang)
    XX:   -46.6503     YY:   -54.9046     ZZ:   -51.4748
    XY:    -5.1638     XZ:    -0.2378     YZ:     2.8215

  Traceless Quadrupole Moment: (Debye Ang)
    XX:     4.3596     YY:    -3.8947     ZZ:    -0.4649
    XY:    -5.1638     XZ:    -0.2378     YZ:     2.8215

  Mulliken Charges: (a.u.)
   Center  Symbol    Alpha    Beta     Spin     Total
       1     H     0.27026  0.27026  0.00000  0.45949
       2     O     4.37626  4.37626  0.00000 -0.75251
       3     C     2.79258  2.79258  0.00000  0.41485
       4     C     3.13918  3.13918  0.00000 -0.27835
       5     C     3.11917  3.11917  0.00000 -0.23833
       6     H     0.40024  0.40024  0.00000  0.19951
       7     C     3.09088  3.09088  0.00000 -0.18175
       8     H     0.37772  0.37772  0.00000  0.24456
       9     C     3.02898  3.02898  0.00000 -0.05796
      10     H     0.39299  0.39299  0.00000  0.21401
      11     C     3.11781  3.11781  0.00000 -0.23562
      12     C     2.84676  2.84676  0.00000  0.30648
      13     H     0.39423  0.39423  0.00000  0.21153
      14     O     4.23003  4.23003  0.00000 -0.46007
      15     H     0.42291  0.42291  0.00000  0.15417

   Total alpha = 32.00000, Total beta = 32.00000, Total charge =  0.00000


*** PSI4 exiting successfully. Buy a developer a beer!
