    -----------------------------------------------------------------------
          Psi4: An Open-Source Ab Initio Electronic Structure Package
                              Psi4 (no tag) Driver

                          Git: Rev {detached?}  

    J. M. Turney, A. C. Simmonett, R. M. Parrish, E. G. Hohenstein,
    F. A. Evangelista, J. T. Fermann, B. J. Mintz, L. A. Burns, J. J. Wilke,
    M. L. Abrams, N. J. Russ, M. L. Leininger, C. L. Janssen, E. T. Seidl,
    W. D. Allen, H. F. Schaefer, R. A. King, E. F. Valeev, C. D. Sherrill,
    and T. D. Crawford, WIREs Comput. Mol. Sci. 2, 556-565 (2012)
    (doi: 10.1002/wcms.93)

                         Additional Contributions by
    A. E. DePrince, M. Saitow, U. Bozkaya, A. Yu. Sokolov
    -----------------------------------------------------------------------


    Psi4 started on: Tue Jul  5 16:30:22 2016

    Process ID:  32391
    PSI4DATADIR: /export131/home/mjharvey/miniconda3/share
    Memory level set to 256.000 MB

  ==> Input File <==

--------------------------------------------------------------------------
set {
	reference rhf
	basis 6-31G*
}


set_num_threads( 1 )
memory 2 gb

molecule MOL {
0 1

H	 1.244419	 -2.264759	 -0.354766
C	 0.280727	 -1.787228	 -0.427687
O	 0.464886	 -0.454746	 -0.000158
H	 -0.425326	 -2.306582	 0.209327
H	 -0.059689	 -1.822928	 -1.455746
C	 -0.590998	 0.343045	 0.000118
O	 -1.699443	 -0.054298	 0.000227
H	 -0.340329	 1.404368	 0.000207

	symmetry c1
}
ee = energy('scf')
oeprop('DIPOLE', 'QUADRUPOLE', 'MULLIKEN_CHARGES')
f=open( 'psi4out.xyz', 'w' )
f.write( "8  " )
f.write( str(ee) + "\n" )
f.write( MOL.save_string_xyz() )
f.close()
--------------------------------------------------------------------------

  Memory set to   2.000 GiB by Python script.

*** tstart() called on cx1-3-15-4.cx1.hpc.ic.ac.uk
*** at Tue Jul  5 16:30:22 2016


         ---------------------------------------------------------
                                   SCF
            by Justin Turney, Rob Parrish, and Andy Simmonett
                              RHF Reference
                        1 Threads,   2000 MiB Core
         ---------------------------------------------------------

  ==> Geometry <==

    Molecular point group: c1
    Full point group: C1

    Geometry (in Angstrom), charge = 0, multiplicity = 1:

       Center              X                  Y                   Z               Mass       
    ------------   -----------------  -----------------  -----------------  -----------------
           H          1.628409301009    -1.756583649512    -0.242418396312     1.007825032070
           C          0.664717301009    -1.279052649512    -0.315339396312    12.000000000000
           O          0.848876301009     0.053429350488     0.112189603688    15.994914619560
           H         -0.041335698991    -1.798406649512     0.321674603688     1.007825032070
           H          0.324301301009    -1.314752649512    -1.343398396312     1.007825032070
           C         -0.207007698991     0.851220350488     0.112465603688    12.000000000000
           O         -1.315452698991     0.453877350488     0.112574603688    15.994914619560
           H          0.043661301009     1.912543350488     0.112554603688     1.007825032070

  Running in c1 symmetry.

  Rotational constants: A =      0.71053  B =      0.23036  C =      0.18103 [cm^-1]
  Rotational constants: A =  21301.00852  B =   6906.14037  C =   5427.22489 [MHz]
  Nuclear repulsion =  123.898910245288164

  Charge       = 0
  Multiplicity = 1
  Electrons    = 32
  Nalpha       = 16
  Nbeta        = 16

  ==> Algorithm <==

  SCF Algorithm Type is DF.
  DIIS enabled.
  MOM disabled.
  Fractional occupation disabled.
  Guess Type is CORE.
  Energy threshold   = 1.00e-06
  Density threshold  = 1.00e-06
  Integral threshold = 0.00e+00

  ==> Primary Basis <==

  Basis Set: 6-31G*
    Number of shells: 32
    Number of basis function: 68
    Number of Cartesian functions: 68
    Spherical Harmonics?: false
    Max angular momentum: 2

  ==> Pre-Iterations <==

   -------------------------------------------------------
    Irrep   Nso     Nmo     Nalpha   Nbeta   Ndocc  Nsocc
   -------------------------------------------------------
     A         68      68       0       0       0       0
   -------------------------------------------------------
    Total      68      68      16      16      16       0
   -------------------------------------------------------

 OEINTS: Overlap, kinetic, potential, dipole, and quadrupole integrals
         stored in file 35.

  ==> Integral Setup <==

  ==> DFJK: Density-Fitted J/K Matrices <==

    J tasked:                  Yes
    K tasked:                  Yes
    wK tasked:                  No
    OpenMP threads:              1
    Integrals threads:           1
    Memory (MB):              1430
    Algorithm:                Core
    Integral Cache:           NONE
    Schwarz Cutoff:          1E-12
    Fitting Condition:       1E-12

   => Auxiliary Basis Set <=

  Basis Set: 
    Number of shells: 132
    Number of basis function: 424
    Number of Cartesian functions: 424
    Spherical Harmonics?: false
    Max angular momentum: 3

  Minimum eigenvalue in the overlap matrix is 5.2245039561E-03.
  Using Symmetric Orthogonalization.
  SCF Guess: Core (One-Electron) Hamiltonian.

  ==> Iterations <==

                           Total Energy        Delta E     RMS |[F,P]|

   @DF-RHF iter   1:  -194.72348695490666   -1.94723e+02   8.86929e-02 
   @DF-RHF iter   2:  -162.26666053723125    3.24568e+01   8.12286e-02 DIIS
   @DF-RHF iter   3:  -210.24455387012540   -4.79779e+01   5.55451e-02 DIIS
   @DF-RHF iter   4:  -227.00823514994198   -1.67637e+01   1.91703e-02 DIIS
   @DF-RHF iter   5:  -227.73207505843669   -7.23840e-01   5.51975e-03 DIIS
   @DF-RHF iter   6:  -227.78212426626470   -5.00492e-02   1.09024e-03 DIIS
   @DF-RHF iter   7:  -227.78453952945830   -2.41526e-03   5.61068e-04 DIIS
   @DF-RHF iter   8:  -227.78509259177252   -5.53062e-04   2.71897e-04 DIIS
   @DF-RHF iter   9:  -227.78525301249039   -1.60421e-04   1.56210e-04 DIIS
   @DF-RHF iter  10:  -227.78531534220781   -6.23297e-05   4.34003e-05 DIIS
   @DF-RHF iter  11:  -227.78532107317034   -5.73096e-06   9.22179e-06 DIIS
   @DF-RHF iter  12:  -227.78532138036309   -3.07193e-07   3.18777e-06 DIIS
   @DF-RHF iter  13:  -227.78532142098101   -4.06179e-08   8.29871e-07 DIIS

  ==> Post-Iterations <==

    Orbital Energies (a.u.)
    -----------------------

    Doubly Occupied:                                                      

       1A    -20.611537     2A    -20.559667     3A    -11.381130  
       4A    -11.288435     5A     -1.479600     6A     -1.376303  
       7A     -0.994090     8A     -0.818773     9A     -0.745478  
      10A     -0.681027    11A     -0.677979    12A     -0.604346  
      13A     -0.557807    14A     -0.527088    15A     -0.464421  
      16A     -0.456928  

    Virtual:                                                              

      17A      0.186609    18A      0.256408    19A      0.271808  
      20A      0.312115    21A      0.324310    22A      0.331821  
      23A      0.441535    24A      0.511749    25A      0.706950  
      26A      0.735482    27A      0.766006    28A      0.775802  
      29A      0.841972    30A      0.975524    31A      0.996489  
      32A      1.082903    33A      1.096043    34A      1.119216  
      35A      1.128464    36A      1.194964    37A      1.208124  
      38A      1.265941    39A      1.319672    40A      1.351708  
      41A      1.415591    42A      1.493361    43A      1.662841  
      44A      1.686550    45A      1.717392    46A      1.836755  
      47A      1.886317    48A      1.972576    49A      2.082501  
      50A      2.139845    51A      2.206863    52A      2.367482  
      53A      2.389516    54A      2.416799    55A      2.521897  
      56A      2.634090    57A      2.635352    58A      2.770601  
      59A      2.830661    60A      2.967154    61A      3.060469  
      62A      3.268574    63A      3.323778    64A      3.464596  
      65A      4.248583    66A      4.379290    67A      4.570315  
      68A      4.697873  

    Final Occupation by Irrep:
              A 
    DOCC [    16 ]

  Energy converged.

  @DF-RHF Final Energy:  -227.78532142098101

   => Energetics <=

    Nuclear Repulsion Energy =            123.8989102452881639
    One-Electron Energy =                -556.9192418676655052
    Two-Electron Energy =                 205.2350102013962214
    DFT Exchange-Correlation Energy =       0.0000000000000000
    Empirical Dispersion Energy =           0.0000000000000000
    PCM Polarization Energy =               0.0000000000000000
    EFP Energy =                            0.0000000000000000
    Total Energy =                       -227.7853214209811199

    Alert: EFP and PCM quantities not currently incorporated into SCF psivars.

Properties will be evaluated at   0.000000,   0.000000,   0.000000 Bohr
  ==> Properties <==


Properties computed using the SCF density matrix

  Nuclear Dipole Moment: (a.u.)
     X:     1.8305      Y:    -2.7698      Z:    -1.0785

  Electronic Dipole Moment: (a.u.)
     X:    -1.1113      Y:     2.6293      Z:     0.8426

  Dipole Moment: (a.u.)
     X:     0.7192      Y:    -0.1405      Z:    -0.2359     Total:     0.7698

  Dipole Moment: (Debye)
     X:     1.8280      Y:    -0.3572      Z:    -0.5997     Total:     1.9568


  Saving occupied orbitals to File 180.

*** tstop() called on cx1-3-15-4.cx1.hpc.ic.ac.uk at Tue Jul  5 16:30:25 2016
Module time:
	user time   =       2.11 seconds =       0.04 minutes
	system time =       0.01 seconds =       0.00 minutes
	total time  =          3 seconds =       0.05 minutes
Total time:
	user time   =       2.11 seconds =       0.04 minutes
	system time =       0.01 seconds =       0.00 minutes
	total time  =          3 seconds =       0.05 minutes


Properties will be evaluated at   0.000000,   0.000000,   0.000000 Bohr

Properties computed using the  density matrix

  Nuclear Dipole Moment: (a.u.)
     X:     1.8305      Y:    -2.7698      Z:    -1.0785

  Electronic Dipole Moment: (a.u.)
     X:    -1.1113      Y:     2.6293      Z:     0.8426

  Dipole Moment: (a.u.)
     X:     0.7192      Y:    -0.1405      Z:    -0.2359     Total:     0.7698

  Dipole Moment: (Debye)
     X:     1.8280      Y:    -0.3572      Z:    -0.5997     Total:     1.9568

  Quadrupole Moment: (Debye Ang)
    XX:   -28.7096     YY:   -18.2974     ZZ:   -22.6649
    XY:    -0.3847     XZ:    -0.2702     YZ:     0.6088

  Traceless Quadrupole Moment: (Debye Ang)
    XX:    -5.4856     YY:     4.9266     ZZ:     0.5591
    XY:    -0.3847     XZ:    -0.2702     YZ:     0.6088

  Mulliken Charges: (a.u.)
   Center  Symbol    Alpha    Beta     Spin     Total
       1     H     0.40647  0.40647  0.00000  0.18706
       2     C     3.09425  3.09425  0.00000 -0.18850
       3     O     4.28731  4.28731  0.00000 -0.57461
       4     H     0.40455  0.40455  0.00000  0.19089
       5     H     0.41186  0.41186  0.00000  0.17628
       6     C     2.73242  2.73242  0.00000  0.53516
       7     O     4.25492  4.25492  0.00000 -0.50984
       8     H     0.40821  0.40821  0.00000  0.18357

   Total alpha = 16.00000, Total beta = 16.00000, Total charge =  0.00000


*** PSI4 exiting successfully. Buy a developer a beer!
