    -----------------------------------------------------------------------
          Psi4: An Open-Source Ab Initio Electronic Structure Package
                              Psi4 (no tag) Driver

                          Git: Rev {detached?}  

    J. M. Turney, A. C. Simmonett, R. M. Parrish, E. G. Hohenstein,
    F. A. Evangelista, J. T. Fermann, B. J. Mintz, L. A. Burns, J. J. Wilke,
    M. L. Abrams, N. J. Russ, M. L. Leininger, C. L. Janssen, E. T. Seidl,
    W. D. Allen, H. F. Schaefer, R. A. King, E. F. Valeev, C. D. Sherrill,
    and T. D. Crawford, WIREs Comput. Mol. Sci. 2, 556-565 (2012)
    (doi: 10.1002/wcms.93)

                         Additional Contributions by
    A. E. DePrince, M. Saitow, U. Bozkaya, A. Yu. Sokolov
    -----------------------------------------------------------------------


    Psi4 started on: Tue Jul  5 16:27:33 2016

    Process ID:  20446
    PSI4DATADIR: /export131/home/mjharvey/miniconda3/share
    Memory level set to 256.000 MB

  ==> Input File <==

--------------------------------------------------------------------------
set {
	reference rhf
	basis 6-31G*
}


set_num_threads( 1 )
memory 2 gb

molecule MOL {
0 1

H	 1.249935	 -1.972232	 -2.438460
C	 1.254847	 -1.107127	 -1.781340
C	 0.064120	 -1.156619	 -0.829058
H	 1.208089	 -0.211030	 -2.390098
H	 2.202866	 -1.102457	 -1.254299
N	 -0.000257	 -0.000071	 0.054619
H	 -0.840219	 -1.182662	 -1.423927
H	 0.078556	 -2.089398	 -0.257743
C	 -1.363055	 0.315058	 0.462241
C	 0.908831	 -0.112776	 1.187542
C	 -2.412078	 -0.285320	 -0.468531
H	 -1.482241	 1.391144	 0.451970
H	 -1.549931	 -0.001174	 1.492681
C	 1.380494	 1.242933	 1.704097
H	 1.780003	 -0.672639	 0.871684
H	 0.456695	 -0.688141	 2.000755
H	 -2.262839	 0.075384	 -1.480151
H	 -2.369300	 -1.368867	 -0.491760
H	 -3.410332	 -0.003975	 -0.144961
H	 1.881785	 1.789291	 0.912999
H	 0.559640	 1.854663	 2.062615
H	 2.075922	 1.112589	 2.528546

	symmetry c1
}
ee = energy('scf')
oeprop('DIPOLE', 'QUADRUPOLE', 'MULLIKEN_CHARGES')
f=open( 'psi4out.xyz', 'w' )
f.write( "22  " )
f.write( str(ee) + "\n" )
f.write( MOL.save_string_xyz() )
f.close()
--------------------------------------------------------------------------

  Memory set to   2.000 GiB by Python script.

*** tstart() called on cx1-3-15-2.cx1.hpc.ic.ac.uk
*** at Tue Jul  5 16:27:34 2016


         ---------------------------------------------------------
                                   SCF
            by Justin Turney, Rob Parrish, and Andy Simmonett
                              RHF Reference
                        1 Threads,   2000 MiB Core
         ---------------------------------------------------------

  ==> Geometry <==

    Molecular point group: c1
    Full point group: C1

    Geometry (in Angstrom), charge = 0, multiplicity = 1:

       Center              X                  Y                   Z               Mass       
    ------------   -----------------  -----------------  -----------------  -----------------
           H          1.273969298146    -1.810635317345    -2.483035936620     1.007825032070
           C          1.278881298146    -0.945530317345    -1.825915936620    12.000000000000
           C          0.088154298146    -0.995022317345    -0.873633936620    12.000000000000
           H          1.232123298146    -0.049433317345    -2.434673936620     1.007825032070
           H          2.226900298146    -0.940860317345    -1.298874936620     1.007825032070
           N          0.023777298146     0.161525682655     0.010043063380    14.003074004780
           H         -0.816184701854    -1.021065317345    -1.468502936620     1.007825032070
           H          0.102590298146    -1.927801317345    -0.302318936620     1.007825032070
           C         -1.339020701854     0.476654682655     0.417665063380    12.000000000000
           C          0.932865298146     0.048820682655     1.142966063380    12.000000000000
           C         -2.388043701854    -0.123723317345    -0.513106936620    12.000000000000
           H         -1.458206701854     1.552740682655     0.407394063380     1.007825032070
           H         -1.525896701854     0.160422682655     1.448105063380     1.007825032070
           C          1.404528298146     1.404529682655     1.659521063380    12.000000000000
           H          1.804037298146    -0.511042317345     0.827108063380     1.007825032070
           H          0.480729298146    -0.526544317345     1.956179063380     1.007825032070
           H         -2.238804701854     0.236980682655    -1.524726936620     1.007825032070
           H         -2.345265701854    -1.207270317345    -0.536335936620     1.007825032070
           H         -3.386297701854     0.157621682655    -0.189536936620     1.007825032070
           H          1.905819298146     1.950887682655     0.868423063380     1.007825032070
           H          0.583674298146     2.016259682655     2.018039063380     1.007825032070
           H          2.099956298146     1.274185682655     2.483970063380     1.007825032070

  Running in c1 symmetry.

  Rotational constants: A =      0.09000  B =      0.07144  C =      0.04386 [cm^-1]
  Rotational constants: A =   2698.14173  B =   2141.71122  C =   1314.87690 [MHz]
  Nuclear repulsion =  339.544739893535507

  Charge       = 0
  Multiplicity = 1
  Electrons    = 58
  Nalpha       = 29
  Nbeta        = 29

  ==> Algorithm <==

  SCF Algorithm Type is DF.
  DIIS enabled.
  MOM disabled.
  Fractional occupation disabled.
  Guess Type is CORE.
  Energy threshold   = 1.00e-06
  Density threshold  = 1.00e-06
  Integral threshold = 0.00e+00

  ==> Primary Basis <==

  Basis Set: 6-31G*
    Number of shells: 72
    Number of basis function: 135
    Number of Cartesian functions: 135
    Spherical Harmonics?: false
    Max angular momentum: 2

  ==> Pre-Iterations <==

   -------------------------------------------------------
    Irrep   Nso     Nmo     Nalpha   Nbeta   Ndocc  Nsocc
   -------------------------------------------------------
     A        135     135       0       0       0       0
   -------------------------------------------------------
    Total     135     135      29      29      29       0
   -------------------------------------------------------

 OEINTS: Overlap, kinetic, potential, dipole, and quadrupole integrals
         stored in file 35.

  ==> Integral Setup <==

  ==> DFJK: Density-Fitted J/K Matrices <==

    J tasked:                  Yes
    K tasked:                  Yes
    wK tasked:                  No
    OpenMP threads:              1
    Integrals threads:           1
    Memory (MB):              1430
    Algorithm:                Core
    Integral Cache:           NONE
    Schwarz Cutoff:          1E-12
    Fitting Condition:       1E-12

   => Auxiliary Basis Set <=

  Basis Set: 
    Number of shells: 303
    Number of basis function: 942
    Number of Cartesian functions: 942
    Spherical Harmonics?: false
    Max angular momentum: 3

  Minimum eigenvalue in the overlap matrix is 3.7903797633E-03.
  Using Symmetric Orthogonalization.
  SCF Guess: Core (One-Electron) Hamiltonian.

  ==> Iterations <==

                           Total Energy        Delta E     RMS |[F,P]|

   @DF-RHF iter   1:  -152.31351080282980   -1.52314e+02   8.81247e-02 
   @DF-RHF iter   2:  -197.69943170931367   -4.53859e+01   5.33392e-02 DIIS
   @DF-RHF iter   3:  -240.44260231600833   -4.27432e+01   5.17527e-02 DIIS
   @DF-RHF iter   4:  -280.82783979248541   -4.03852e+01   2.86097e-02 DIIS
   @DF-RHF iter   5:  -289.21401513412752   -8.38618e+00   1.09880e-02 DIIS
   @DF-RHF iter   6:  -290.28738312420830   -1.07337e+00   2.19494e-03 DIIS
   @DF-RHF iter   7:  -290.34829255372074   -6.09094e-02   6.73884e-04 DIIS
   @DF-RHF iter   8:  -290.35385891951080   -5.56637e-03   2.34829e-04 DIIS
   @DF-RHF iter   9:  -290.35455116059870   -6.92241e-04   6.94100e-05 DIIS
   @DF-RHF iter  10:  -290.35461458872862   -6.34281e-05   2.75845e-05 DIIS
   @DF-RHF iter  11:  -290.35462447318605   -9.88446e-06   6.32924e-06 DIIS
   @DF-RHF iter  12:  -290.35462501194536   -5.38759e-07   1.41685e-06 DIIS
   @DF-RHF iter  13:  -290.35462503941460   -2.74692e-08   3.42427e-07 DIIS

  ==> Post-Iterations <==

    Orbital Energies (a.u.)
    -----------------------

    Doubly Occupied:                                                      

       1A    -15.535766     2A    -11.240013     3A    -11.239239  
       4A    -11.233922     5A    -11.212731     6A    -11.203843  
       7A    -11.202374     8A     -1.224185     9A     -1.029046  
      10A     -1.018107    11A     -0.957065    12A     -0.861409  
      13A     -0.840433    14A     -0.760556    15A     -0.657367  
      16A     -0.644213    17A     -0.624929    18A     -0.591715  
      19A     -0.590712    20A     -0.547089    21A     -0.533393  
      22A     -0.524674    23A     -0.509620    24A     -0.503129  
      25A     -0.493378    26A     -0.482303    27A     -0.462001  
      28A     -0.455034    29A     -0.338123  

    Virtual:                                                              

      30A      0.234897    31A      0.251381    32A      0.256434  
      33A      0.286346    34A      0.302859    35A      0.305160  
      36A      0.314214    37A      0.315691    38A      0.325570  
      39A      0.339610    40A      0.343382    41A      0.348861  
      42A      0.349445    43A      0.368413    44A      0.383707  
      45A      0.396571    46A      0.423524    47A      0.437490  
      48A      0.443163    49A      0.476410    50A      0.496789  
      51A      0.694441    52A      0.729245    53A      0.735169  
      54A      0.750436    55A      0.763887    56A      0.778275  
      57A      0.793942    58A      0.822392    59A      0.857928  
      60A      0.879691    61A      0.908515    62A      0.937931  
      63A      0.949502    64A      0.984878    65A      1.010778  
      66A      1.052315    67A      1.079938    68A      1.111205  
      69A      1.130262    70A      1.151334    71A      1.152324  
      72A      1.156046    73A      1.170716    74A      1.181279  
      75A      1.187155    76A      1.201015    77A      1.201868  
      78A      1.209319    79A      1.226958    80A      1.243547  
      81A      1.258965    82A      1.280249    83A      1.284147  
      84A      1.293214    85A      1.331526    86A      1.343130  
      87A      1.387560    88A      1.528557    89A      1.572125  
      90A      1.598421    91A      1.657352    92A      1.719770  
      93A      1.810783    94A      1.858745    95A      1.862043  
      96A      1.922028    97A      1.998013    98A      2.086418  
      99A      2.097959   100A      2.138418   101A      2.220957  
     102A      2.246385   103A      2.267372   104A      2.285059  
     105A      2.312930   106A      2.329653   107A      2.352354  
     108A      2.370313   109A      2.394219   110A      2.487872  
     111A      2.532059   112A      2.550110   113A      2.602035  
     114A      2.646999   115A      2.668171   116A      2.676527  
     117A      2.681963   118A      2.698928   119A      2.709107  
     120A      2.724987   121A      2.832405   122A      2.845278  
     123A      2.905421   124A      3.010260   125A      3.100861  
     126A      3.127043   127A      3.240336   128A      3.260239  
     129A      4.513063   130A      4.632691   131A      4.641810  
     132A      4.677458   133A      4.854917   134A      4.873864  
     135A      4.956335  

    Final Occupation by Irrep:
              A 
    DOCC [    29 ]

  Energy converged.

  @DF-RHF Final Energy:  -290.35462503941460

   => Energetics <=

    Nuclear Repulsion Energy =            339.5447398935355068
    One-Electron Energy =               -1064.7659621043676452
    Two-Electron Energy =                 434.8665971714179932
    DFT Exchange-Correlation Energy =       0.0000000000000000
    Empirical Dispersion Energy =           0.0000000000000000
    PCM Polarization Energy =               0.0000000000000000
    EFP Energy =                            0.0000000000000000
    Total Energy =                       -290.3546250394141452

    Alert: EFP and PCM quantities not currently incorporated into SCF psivars.

Properties will be evaluated at   0.000000,   0.000000,   0.000000 Bohr
  ==> Properties <==


Properties computed using the SCF density matrix

  Nuclear Dipole Moment: (a.u.)
     X:    -0.0571      Y:    -0.6057      Z:    -0.2145

  Electronic Dipole Moment: (a.u.)
     X:    -0.1354      Y:     0.3572      Z:     0.3325

  Dipole Moment: (a.u.)
     X:    -0.1926      Y:    -0.2484      Z:     0.1180     Total:     0.3357

  Dipole Moment: (Debye)
     X:    -0.4895      Y:    -0.6314      Z:     0.3000     Total:     0.8534


  Saving occupied orbitals to File 180.

*** tstop() called on cx1-3-15-2.cx1.hpc.ic.ac.uk at Tue Jul  5 16:27:49 2016
Module time:
	user time   =      14.35 seconds =       0.24 minutes
	system time =       0.07 seconds =       0.00 minutes
	total time  =         15 seconds =       0.25 minutes
Total time:
	user time   =      14.35 seconds =       0.24 minutes
	system time =       0.07 seconds =       0.00 minutes
	total time  =         15 seconds =       0.25 minutes


Properties will be evaluated at   0.000000,   0.000000,   0.000000 Bohr

Properties computed using the  density matrix

  Nuclear Dipole Moment: (a.u.)
     X:    -0.0571      Y:    -0.6057      Z:    -0.2145

  Electronic Dipole Moment: (a.u.)
     X:    -0.1354      Y:     0.3572      Z:     0.3325

  Dipole Moment: (a.u.)
     X:    -0.1926      Y:    -0.2484      Z:     0.1180     Total:     0.3357

  Dipole Moment: (Debye)
     X:    -0.4895      Y:    -0.6314      Z:     0.3000     Total:     0.8534

  Quadrupole Moment: (Debye Ang)
    XX:   -46.6807     YY:   -48.2998     ZZ:   -47.4312
    XY:    -0.5105     XZ:     0.7245     YZ:     0.5507

  Traceless Quadrupole Moment: (Debye Ang)
    XX:     0.7899     YY:    -0.8292     ZZ:     0.0393
    XY:    -0.5105     XZ:     0.7245     YZ:     0.5507

  Mulliken Charges: (a.u.)
   Center  Symbol    Alpha    Beta     Spin     Total
       1     H     0.42473  0.42473  0.00000  0.15053
       2     C     3.23326  3.23326  0.00000 -0.46652
       3     C     3.06166  3.06166  0.00000 -0.12332
       4     H     0.41685  0.41685  0.00000  0.16630
       5     H     0.42257  0.42257  0.00000  0.15485
       6     N     3.79149  3.79149  0.00000 -0.58298
       7     H     0.40985  0.40985  0.00000  0.18030
       8     H     0.43524  0.43524  0.00000  0.12951
       9     C     3.03846  3.03846  0.00000 -0.07692
      10     C     3.05833  3.05833  0.00000 -0.11667
      11     C     3.27237  3.27237  0.00000 -0.54474
      12     H     0.41799  0.41799  0.00000  0.16402
      13     H     0.43150  0.43150  0.00000  0.13701
      14     C     3.23625  3.23625  0.00000 -0.47250
      15     H     0.41848  0.41848  0.00000  0.16303
      16     H     0.43187  0.43187  0.00000  0.13626
      17     H     0.41149  0.41149  0.00000  0.17702
      18     H     0.41285  0.41285  0.00000  0.17430
      19     H     0.41507  0.41507  0.00000  0.16986
      20     H     0.41524  0.41524  0.00000  0.16953
      21     H     0.42046  0.42046  0.00000  0.15909
      22     H     0.42398  0.42398  0.00000  0.15203

   Total alpha = 29.00000, Total beta = 29.00000, Total charge = -0.00000


*** PSI4 exiting successfully. Buy a developer a beer!
