    -----------------------------------------------------------------------
          Psi4: An Open-Source Ab Initio Electronic Structure Package
                              Psi4 (no tag) Driver

                          Git: Rev {detached?}  

    J. M. Turney, A. C. Simmonett, R. M. Parrish, E. G. Hohenstein,
    F. A. Evangelista, J. T. Fermann, B. J. Mintz, L. A. Burns, J. J. Wilke,
    M. L. Abrams, N. J. Russ, M. L. Leininger, C. L. Janssen, E. T. Seidl,
    W. D. Allen, H. F. Schaefer, R. A. King, E. F. Valeev, C. D. Sherrill,
    and T. D. Crawford, WIREs Comput. Mol. Sci. 2, 556-565 (2012)
    (doi: 10.1002/wcms.93)

                         Additional Contributions by
    A. E. DePrince, M. Saitow, U. Bozkaya, A. Yu. Sokolov
    -----------------------------------------------------------------------


    Psi4 started on: Tue Jul  5 16:32:45 2016

    Process ID:  17514
    PSI4DATADIR: /export131/home/mjharvey/miniconda3/share
    Memory level set to 256.000 MB

  ==> Input File <==

--------------------------------------------------------------------------
set {
	reference rhf
	basis 6-31G*
}


set_num_threads( 1 )
memory 2 gb

molecule MOL {
0 1

H	 1.283184	 1.134032	 1.312916
O	 0.428306	 1.057262	 0.900582
C	 0.489431	 0.077273	 0.000046
C	 -0.764129	 -0.759190	 0.000191
O	 1.436301	 -0.082777	 -0.698801
C	 -2.038368	 0.075731	 -0.000248
H	 -0.717284	 -1.412404	 -0.866059
H	 -0.717458	 -1.411724	 0.866967
H	 -2.086483	 0.712501	 -0.875098
H	 -2.908485	 -0.571682	 -0.000042
H	 -2.086576	 0.713280	 0.874068

	symmetry c1
}
set optking {
	frozen_dihedral = ("
		2 3 4 7
	")
}

ee = energy('scf')
oeprop('DIPOLE', 'QUADRUPOLE', 'MULLIKEN_CHARGES')
f=open( 'psi4out.xyz', 'w' )
f.write( "11  " )
f.write( str(ee) + "\n" )
f.write( MOL.save_string_xyz() )
f.close()
--------------------------------------------------------------------------

  Memory set to   2.000 GiB by Python script.

*** tstart() called on cx1-3-15-3.cx1.hpc.ic.ac.uk
*** at Tue Jul  5 16:32:45 2016


         ---------------------------------------------------------
                                   SCF
            by Justin Turney, Rob Parrish, and Andy Simmonett
                              RHF Reference
                        1 Threads,   2000 MiB Core
         ---------------------------------------------------------

  ==> Geometry <==

    Molecular point group: c1
    Full point group: C1

    Geometry (in Angstrom), charge = 0, multiplicity = 1:

       Center              X                  Y                   Z               Mass       
    ------------   -----------------  -----------------  -----------------  -----------------
           H          1.353720070466     1.033135746448     1.251455166232     1.007825032070
           O          0.498842070466     0.956365746448     0.839121166232    15.994914619560
           C          0.559967070466    -0.023623253552    -0.061414833768    12.000000000000
           C         -0.693592929534    -0.860086253552    -0.061269833768    12.000000000000
           O          1.506837070466    -0.183673253552    -0.760261833768    15.994914619560
           C         -1.967831929534    -0.025165253552    -0.061708833768    12.000000000000
           H         -0.646747929534    -1.513300253552    -0.927519833768     1.007825032070
           H         -0.646921929534    -1.512620253552     0.805506166232     1.007825032070
           H         -2.015946929534     0.611604746448    -0.936558833768     1.007825032070
           H         -2.837948929534    -0.672578253552    -0.061502833768     1.007825032070
           H         -2.016039929534     0.612383746448     0.812607166232     1.007825032070

  Running in c1 symmetry.

  Rotational constants: A =      0.31322  B =      0.13340  C =      0.10347 [cm^-1]
  Rotational constants: A =   9390.00182  B =   3999.17521  C =   3101.93363 [MHz]
  Nuclear repulsion =  180.452400704531499

  Charge       = 0
  Multiplicity = 1
  Electrons    = 40
  Nalpha       = 20
  Nbeta        = 20

  ==> Algorithm <==

  SCF Algorithm Type is DF.
  DIIS enabled.
  MOM disabled.
  Fractional occupation disabled.
  Guess Type is CORE.
  Energy threshold   = 1.00e-06
  Density threshold  = 1.00e-06
  Integral threshold = 0.00e+00

  ==> Primary Basis <==

  Basis Set: 6-31G*
    Number of shells: 42
    Number of basis function: 87
    Number of Cartesian functions: 87
    Spherical Harmonics?: false
    Max angular momentum: 2

  ==> Pre-Iterations <==

   -------------------------------------------------------
    Irrep   Nso     Nmo     Nalpha   Nbeta   Ndocc  Nsocc
   -------------------------------------------------------
     A         87      87       0       0       0       0
   -------------------------------------------------------
    Total      87      87      20      20      20       0
   -------------------------------------------------------

 OEINTS: Overlap, kinetic, potential, dipole, and quadrupole integrals
         stored in file 35.

  ==> Integral Setup <==

  ==> DFJK: Density-Fitted J/K Matrices <==

    J tasked:                  Yes
    K tasked:                  Yes
    wK tasked:                  No
    OpenMP threads:              1
    Integrals threads:           1
    Memory (MB):              1430
    Algorithm:                Core
    Integral Cache:           NONE
    Schwarz Cutoff:          1E-12
    Fitting Condition:       1E-12

   => Auxiliary Basis Set <=

  Basis Set: 
    Number of shells: 174
    Number of basis function: 555
    Number of Cartesian functions: 555
    Spherical Harmonics?: false
    Max angular momentum: 3

  Minimum eigenvalue in the overlap matrix is 3.6536033098E-03.
  Using Symmetric Orthogonalization.
  SCF Guess: Core (One-Electron) Hamiltonian.

  ==> Iterations <==

                           Total Energy        Delta E     RMS |[F,P]|

   @DF-RHF iter   1:  -217.49185841543982   -2.17492e+02   8.21782e-02 
   @DF-RHF iter   2:  -156.93625210658985    6.05556e+01   9.13505e-02 DIIS
   @DF-RHF iter   3:  -249.44677555976182   -9.25105e+01   4.15946e-02 DIIS
   @DF-RHF iter   4:  -239.98339017909456    9.46339e+00   6.14831e-02 DIIS
   @DF-RHF iter   5:  -266.47816537224679   -2.64948e+01   9.76535e-03 DIIS
   @DF-RHF iter   6:  -266.69375028427089   -2.15585e-01   6.89549e-03 DIIS
   @DF-RHF iter   7:  -266.82388340143399   -1.30133e-01   1.39662e-03 DIIS
   @DF-RHF iter   8:  -266.83297774862530   -9.09435e-03   5.84093e-04 DIIS
   @DF-RHF iter   9:  -266.83474896889152   -1.77122e-03   1.84719e-04 DIIS
   @DF-RHF iter  10:  -266.83488384730651   -1.34878e-04   7.43480e-05 DIIS
   @DF-RHF iter  11:  -266.83491496180926   -3.11145e-05   1.85611e-05 DIIS
   @DF-RHF iter  12:  -266.83491687615145   -1.91434e-06   5.73856e-06 DIIS
   @DF-RHF iter  13:  -266.83491710709586   -2.30944e-07   1.73975e-06 DIIS
   @DF-RHF iter  14:  -266.83491713624318   -2.91473e-08   5.71634e-07 DIIS

  ==> Post-Iterations <==

    Orbital Energies (a.u.)
    -----------------------

    Doubly Occupied:                                                      

       1A    -20.608429     2A    -20.553866     3A    -11.380801  
       4A    -11.242517     5A    -11.225948     6A     -1.473590  
       7A     -1.366647     8A     -1.067612     9A     -0.907473  
      10A     -0.822185    11A     -0.699502    12A     -0.680688  
      13A     -0.656413    14A     -0.610873    15A     -0.579996  
      16A     -0.536466    17A     -0.533739    18A     -0.505288  
      19A     -0.479405    20A     -0.440298  

    Virtual:                                                              

      21A      0.176066    22A      0.228734    23A      0.259210  
      24A      0.288564    25A      0.302111    26A      0.317299  
      27A      0.340949    28A      0.399953    29A      0.425663  
      30A      0.497223    31A      0.553345    32A      0.725543  
      33A      0.729267    34A      0.747639    35A      0.792520  
      36A      0.841538    37A      0.876403    38A      0.934410  
      39A      0.972496    40A      0.995783    41A      1.047845  
      42A      1.063105    43A      1.124154    44A      1.139668  
      45A      1.159422    46A      1.181136    47A      1.201537  
      48A      1.229362    49A      1.234296    50A      1.276762  
      51A      1.319331    52A      1.352014    53A      1.366961  
      54A      1.486971    55A      1.634648    56A      1.641783  
      57A      1.751346    58A      1.798497    59A      1.855059  
      60A      1.976539    61A      2.034035    62A      2.062161  
      63A      2.109331    64A      2.137650    65A      2.153880  
      66A      2.225077    67A      2.266899    68A      2.273058  
      69A      2.371200    70A      2.440467    71A      2.584550  
      72A      2.629746    73A      2.651858    74A      2.729060  
      75A      2.742382    76A      2.833416    77A      2.933920  
      78A      3.051875    79A      3.121165    80A      3.245100  
      81A      3.373690    82A      3.474036    83A      4.233784  
      84A      4.493718    85A      4.631401    86A      4.743405  
      87A      4.943092  

    Final Occupation by Irrep:
              A 
    DOCC [    20 ]

  Energy converged.

  @DF-RHF Final Energy:  -266.83491713624318

   => Energetics <=

    Nuclear Repulsion Energy =            180.4524007045314988
    One-Electron Energy =                -721.8312036123659254
    Two-Electron Energy =                 274.5438857715912491
    DFT Exchange-Correlation Energy =       0.0000000000000000
    Empirical Dispersion Energy =           0.0000000000000000
    PCM Polarization Energy =               0.0000000000000000
    EFP Energy =                            0.0000000000000000
    Total Energy =                       -266.8349171362431207

    Alert: EFP and PCM quantities not currently incorporated into SCF psivars.

Properties will be evaluated at   0.000000,   0.000000,   0.000000 Bohr
  ==> Properties <==


Properties computed using the SCF density matrix

  Nuclear Dipole Moment: (a.u.)
     X:    -6.3744      Y:    -1.3475      Z:     0.8853

  Electronic Dipole Moment: (a.u.)
     X:     5.8600      Y:     1.1946      Z:    -0.1214

  Dipole Moment: (a.u.)
     X:    -0.5144      Y:    -0.1530      Z:     0.7639     Total:     0.9336

  Dipole Moment: (Debye)
     X:    -1.3075      Y:    -0.3888      Z:     1.9417     Total:     2.3730


  Saving occupied orbitals to File 180.

*** tstop() called on cx1-3-15-3.cx1.hpc.ic.ac.uk at Tue Jul  5 16:32:49 2016
Module time:
	user time   =       3.22 seconds =       0.05 minutes
	system time =       0.03 seconds =       0.00 minutes
	total time  =          4 seconds =       0.07 minutes
Total time:
	user time   =       3.22 seconds =       0.05 minutes
	system time =       0.03 seconds =       0.00 minutes
	total time  =          4 seconds =       0.07 minutes


Properties will be evaluated at   0.000000,   0.000000,   0.000000 Bohr

Properties computed using the  density matrix

  Nuclear Dipole Moment: (a.u.)
     X:    -6.3744      Y:    -1.3475      Z:     0.8853

  Electronic Dipole Moment: (a.u.)
     X:     5.8600      Y:     1.1946      Z:    -0.1214

  Dipole Moment: (a.u.)
     X:    -0.5144      Y:    -0.1530      Z:     0.7639     Total:     0.9336

  Dipole Moment: (Debye)
     X:    -1.3075      Y:    -0.3888      Z:     1.9417     Total:     2.3730

  Quadrupole Moment: (Debye Ang)
    XX:   -31.0848     YY:   -29.9471     ZZ:   -29.7833
    XY:     2.5613     XZ:     5.4818     YZ:    -0.2802

  Traceless Quadrupole Moment: (Debye Ang)
    XX:    -0.8131     YY:     0.3246     ZZ:     0.4884
    XY:     2.5613     XZ:     5.4818     YZ:    -0.2802

  Mulliken Charges: (a.u.)
   Center  Symbol    Alpha    Beta     Spin     Total
       1     H     0.26550  0.26550  0.00000  0.46900
       2     O     4.35008  4.35008  0.00000 -0.70016
       3     C     2.63416  2.63416  0.00000  0.73168
       4     C     3.20244  3.20244  0.00000 -0.40488
       5     O     4.26950  4.26950  0.00000 -0.53900
       6     C     3.24880  3.24880  0.00000 -0.49760
       7     H     0.39818  0.39818  0.00000  0.20364
       8     H     0.40293  0.40293  0.00000  0.19414
       9     H     0.41168  0.41168  0.00000  0.17664
      10     H     0.41295  0.41295  0.00000  0.17410
      11     H     0.40379  0.40379  0.00000  0.19242

   Total alpha = 20.00000, Total beta = 20.00000, Total charge = -0.00000


*** PSI4 exiting successfully. Buy a developer a beer!
