    -----------------------------------------------------------------------
          Psi4: An Open-Source Ab Initio Electronic Structure Package
                              Psi4 (no tag) Driver

                          Git: Rev {detached?}  

    J. M. Turney, A. C. Simmonett, R. M. Parrish, E. G. Hohenstein,
    F. A. Evangelista, J. T. Fermann, B. J. Mintz, L. A. Burns, J. J. Wilke,
    M. L. Abrams, N. J. Russ, M. L. Leininger, C. L. Janssen, E. T. Seidl,
    W. D. Allen, H. F. Schaefer, R. A. King, E. F. Valeev, C. D. Sherrill,
    and T. D. Crawford, WIREs Comput. Mol. Sci. 2, 556-565 (2012)
    (doi: 10.1002/wcms.93)

                         Additional Contributions by
    A. E. DePrince, M. Saitow, U. Bozkaya, A. Yu. Sokolov
    -----------------------------------------------------------------------


    Psi4 started on: Tue Jul  5 16:24:42 2016

    Process ID:  10042
    PSI4DATADIR: /export131/home/mjharvey/miniconda3/share
    Memory level set to 256.000 MB

  ==> Input File <==

--------------------------------------------------------------------------
set {
	reference rhf
	basis 6-31G*
}


set_num_threads( 1 )
memory 2 gb

molecule MOL {
0 1

H	 -1.070890	 -1.366565	 0.180696
O	 -1.422729	 -0.573567	 -0.196946
C	 -0.731407	 0.539437	 0.309156
C	 0.680193	 0.672443	 -0.251532
H	 -1.319765	 1.404033	 0.030086
H	 -0.700012	 0.506517	 1.397677
C	 1.160810	 -0.569195	 -1.003228
H	 0.710271	 1.534111	 -0.912039
H	 1.356674	 0.880727	 0.574622
H	 0.548953	 -0.764303	 -1.878876
H	 2.182082	 -0.445276	 -1.347629
H	 1.132720	 -1.451256	 -0.368057

	symmetry c1
}
set optking {
	frozen_dihedral = ("
		1 2 3 4
	")
}

ee = energy('scf')
oeprop('DIPOLE', 'QUADRUPOLE', 'MULLIKEN_CHARGES')
f=open( 'psi4out.xyz', 'w' )
f.write( "12  " )
f.write( str(ee) + "\n" )
f.write( MOL.save_string_xyz() )
f.close()
--------------------------------------------------------------------------

  Memory set to   2.000 GiB by Python script.

*** tstart() called on cx1-1-3-4.cx1.hpc.ic.ac.uk
*** at Tue Jul  5 16:24:43 2016


         ---------------------------------------------------------
                                   SCF
            by Justin Turney, Rob Parrish, and Andy Simmonett
                              RHF Reference
                        1 Threads,   2000 MiB Core
         ---------------------------------------------------------

  ==> Geometry <==

    Molecular point group: c1
    Full point group: C1

    Geometry (in Angstrom), charge = 0, multiplicity = 1:

       Center              X                  Y                   Z               Mass       
    ------------   -----------------  -----------------  -----------------  -----------------
           H         -0.961344665898    -1.347223283475     0.461078631681     1.007825032070
           O         -1.313183665898    -0.554225283475     0.083436631681    15.994914619560
           C         -0.621861665898     0.558778716525     0.589538631681    12.000000000000
           C          0.789738334102     0.691784716525     0.028850631681    12.000000000000
           H         -1.210219665898     1.423374716525     0.310468631681     1.007825032070
           H         -0.590466665898     0.525858716525     1.678059631681     1.007825032070
           C          1.270355334102    -0.549853283475    -0.722845368319    12.000000000000
           H          0.819816334102     1.553452716525    -0.631656368319     1.007825032070
           H          1.466219334102     0.900068716525     0.855004631681     1.007825032070
           H          0.658498334102    -0.744961283475    -1.598493368319     1.007825032070
           H          2.291627334102    -0.425934283475    -1.067246368319     1.007825032070
           H          1.242265334102    -1.431914283475    -0.087674368319     1.007825032070

  Running in c1 symmetry.

  Rotational constants: A =      0.43050  B =      0.19843  C =      0.14860 [cm^-1]
  Rotational constants: A =  12905.95719  B =   5948.83121  C =   4454.79937 [MHz]
  Nuclear repulsion =  134.434823150973727

  Charge       = 0
  Multiplicity = 1
  Electrons    = 34
  Nalpha       = 17
  Nbeta        = 17

  ==> Algorithm <==

  SCF Algorithm Type is DF.
  DIIS enabled.
  MOM disabled.
  Fractional occupation disabled.
  Guess Type is CORE.
  Energy threshold   = 1.00e-06
  Density threshold  = 1.00e-06
  Integral threshold = 0.00e+00

  ==> Primary Basis <==

  Basis Set: 6-31G*
    Number of shells: 40
    Number of basis function: 76
    Number of Cartesian functions: 76
    Spherical Harmonics?: false
    Max angular momentum: 2

  ==> Pre-Iterations <==

   -------------------------------------------------------
    Irrep   Nso     Nmo     Nalpha   Nbeta   Ndocc  Nsocc
   -------------------------------------------------------
     A         76      76       0       0       0       0
   -------------------------------------------------------
    Total      76      76      17      17      17       0
   -------------------------------------------------------

 OEINTS: Overlap, kinetic, potential, dipole, and quadrupole integrals
         stored in file 35.

  ==> Integral Setup <==

  ==> DFJK: Density-Fitted J/K Matrices <==

    J tasked:                  Yes
    K tasked:                  Yes
    wK tasked:                  No
    OpenMP threads:              1
    Integrals threads:           1
    Memory (MB):              1430
    Algorithm:                Core
    Integral Cache:           NONE
    Schwarz Cutoff:          1E-12
    Fitting Condition:       1E-12

   => Auxiliary Basis Set <=

  Basis Set: 
    Number of shells: 168
    Number of basis function: 524
    Number of Cartesian functions: 524
    Spherical Harmonics?: false
    Max angular momentum: 3

  Minimum eigenvalue in the overlap matrix is 4.0328635210E-03.
  Using Symmetric Orthogonalization.
  SCF Guess: Core (One-Electron) Hamiltonian.

  ==> Iterations <==

                           Total Energy        Delta E     RMS |[F,P]|

   @DF-RHF iter   1:  -156.02450735140297   -1.56025e+02   8.76890e-02 
   @DF-RHF iter   2:  -130.43307354713380    2.55914e+01   8.09563e-02 DIIS
   @DF-RHF iter   3:  -169.78144885469072   -3.93484e+01   5.32651e-02 DIIS
   @DF-RHF iter   4:  -181.47455638924606   -1.16931e+01   5.46431e-02 DIIS
   @DF-RHF iter   5:  -192.96345682213285   -1.14889e+01   6.96881e-03 DIIS
   @DF-RHF iter   6:  -193.06816050309607   -1.04704e-01   3.82651e-03 DIIS
   @DF-RHF iter   7:  -193.09819947057434   -3.00390e-02   9.27068e-04 DIIS
   @DF-RHF iter   8:  -193.10102991222067   -2.83044e-03   3.64633e-04 DIIS
   @DF-RHF iter   9:  -193.10155167184320   -5.21760e-04   9.73803e-05 DIIS
   @DF-RHF iter  10:  -193.10159360180256   -4.19300e-05   2.80063e-05 DIIS
   @DF-RHF iter  11:  -193.10159722046455   -3.61866e-06   6.28861e-06 DIIS
   @DF-RHF iter  12:  -193.10159742200022   -2.01536e-07   1.62025e-06 DIIS
   @DF-RHF iter  13:  -193.10159743629873   -1.42985e-08   3.82359e-07 DIIS

  ==> Post-Iterations <==

    Orbital Energies (a.u.)
    -----------------------

    Doubly Occupied:                                                      

       1A    -20.551947     2A    -11.266704     3A    -11.216581  
       4A    -11.212678     5A     -1.360307     6A     -1.046905  
       7A     -0.928157     8A     -0.804153     9A     -0.693619  
      10A     -0.632520    11A     -0.620678    12A     -0.577770  
      13A     -0.523123    14A     -0.512641    15A     -0.496555  
      16A     -0.455828    17A     -0.430889  

    Virtual:                                                              

      18A      0.210146    19A      0.259687    20A      0.276188  
      21A      0.298319    22A      0.324008    23A      0.326595  
      24A      0.344435    25A      0.366091    26A      0.398412  
      27A      0.445168    28A      0.487482    29A      0.735140  
      30A      0.744206    31A      0.776631    32A      0.812078  
      33A      0.824964    34A      0.854942    35A      0.915887  
      36A      0.966917    37A      1.042786    38A      1.089788  
      39A      1.140091    40A      1.145159    41A      1.172193  
      42A      1.177045    43A      1.185686    44A      1.188173  
      45A      1.231443    46A      1.253430    47A      1.326868  
      48A      1.352162    49A      1.442408    50A      1.590883  
      51A      1.638225    52A      1.710897    53A      1.808162  
      54A      1.960154    55A      2.034029    56A      2.067218  
      57A      2.116603    58A      2.169146    59A      2.287472  
      60A      2.304173    61A      2.414120    62A      2.490930  
      63A      2.500289    64A      2.595088    65A      2.662191  
      66A      2.692465    67A      2.729625    68A      2.810707  
      69A      2.879415    70A      3.000763    71A      3.067015  
      72A      3.221037    73A      4.225581    74A      4.589866  
      75A      4.722214    76A      4.947653  

    Final Occupation by Irrep:
              A 
    DOCC [    17 ]

  Energy converged.

  @DF-RHF Final Energy:  -193.10159743629873

   => Energetics <=

    Nuclear Repulsion Energy =            134.4348231509737275
    One-Electron Energy =                -528.4106553267686195
    Two-Electron Energy =                 200.8742347394960746
    DFT Exchange-Correlation Energy =       0.0000000000000000
    Empirical Dispersion Energy =           0.0000000000000000
    PCM Polarization Energy =               0.0000000000000000
    EFP Energy =                            0.0000000000000000
    Total Energy =                       -193.1015974362988175

    Alert: EFP and PCM quantities not currently incorporated into SCF psivars.

Properties will be evaluated at   0.000000,   0.000000,   0.000000 Bohr
  ==> Properties <==


Properties computed using the SCF density matrix

  Nuclear Dipole Moment: (a.u.)
     X:     3.4777      Y:     0.4217      Z:    -0.0750

  Electronic Dipole Moment: (a.u.)
     X:    -2.9439      Y:    -0.4407      Z:     0.4892

  Dipole Moment: (a.u.)
     X:     0.5338      Y:    -0.0189      Z:     0.4142     Total:     0.6759

  Dipole Moment: (Debye)
     X:     1.3568      Y:    -0.0481      Z:     1.0527     Total:     1.7179


  Saving occupied orbitals to File 180.

*** tstop() called on cx1-1-3-4.cx1.hpc.ic.ac.uk at Tue Jul  5 16:24:46 2016
Module time:
	user time   =       3.08 seconds =       0.05 minutes
	system time =       0.03 seconds =       0.00 minutes
	total time  =          3 seconds =       0.05 minutes
Total time:
	user time   =       3.08 seconds =       0.05 minutes
	system time =       0.03 seconds =       0.00 minutes
	total time  =          3 seconds =       0.05 minutes


Properties will be evaluated at   0.000000,   0.000000,   0.000000 Bohr

Properties computed using the  density matrix

  Nuclear Dipole Moment: (a.u.)
     X:     3.4777      Y:     0.4217      Z:    -0.0750

  Electronic Dipole Moment: (a.u.)
     X:    -2.9439      Y:    -0.4407      Z:     0.4892

  Dipole Moment: (a.u.)
     X:     0.5338      Y:    -0.0189      Z:     0.4142     Total:     0.6759

  Dipole Moment: (Debye)
     X:     1.3568      Y:    -0.0481      Z:     1.0527     Total:     1.7179

  Quadrupole Moment: (Debye Ang)
    XX:   -30.3861     YY:   -23.9459     ZZ:   -25.9027
    XY:    -0.6060     XZ:    -0.7670     YZ:    -1.2081

  Traceless Quadrupole Moment: (Debye Ang)
    XX:    -3.6412     YY:     2.7990     ZZ:     0.8423
    XY:    -0.6060     XZ:    -0.7670     YZ:    -1.2081

  Mulliken Charges: (a.u.)
   Center  Symbol    Alpha    Beta     Spin     Total
       1     H     0.28056  0.28056  0.00000  0.43888
       2     O     4.36913  4.36913  0.00000 -0.73826
       3     C     2.99657  2.99657  0.00000  0.00685
       4     C     3.17434  3.17434  0.00000 -0.34868
       5     H     0.41397  0.41397  0.00000  0.17206
       6     H     0.42957  0.42957  0.00000  0.14086
       7     C     3.23914  3.23914  0.00000 -0.47828
       8     H     0.41659  0.41659  0.00000  0.16682
       9     H     0.42127  0.42127  0.00000  0.15747
      10     H     0.40748  0.40748  0.00000  0.18504
      11     H     0.41915  0.41915  0.00000  0.16171
      12     H     0.43223  0.43223  0.00000  0.13554

   Total alpha = 17.00000, Total beta = 17.00000, Total charge =  0.00000


*** PSI4 exiting successfully. Buy a developer a beer!
