    -----------------------------------------------------------------------
          Psi4: An Open-Source Ab Initio Electronic Structure Package
                              Psi4 (no tag) Driver

                          Git: Rev {detached?}  

    J. M. Turney, A. C. Simmonett, R. M. Parrish, E. G. Hohenstein,
    F. A. Evangelista, J. T. Fermann, B. J. Mintz, L. A. Burns, J. J. Wilke,
    M. L. Abrams, N. J. Russ, M. L. Leininger, C. L. Janssen, E. T. Seidl,
    W. D. Allen, H. F. Schaefer, R. A. King, E. F. Valeev, C. D. Sherrill,
    and T. D. Crawford, WIREs Comput. Mol. Sci. 2, 556-565 (2012)
    (doi: 10.1002/wcms.93)

                         Additional Contributions by
    A. E. DePrince, M. Saitow, U. Bozkaya, A. Yu. Sokolov
    -----------------------------------------------------------------------


    Psi4 started on: Tue Jul  5 16:30:42 2016

    Process ID:    971
    PSI4DATADIR: /export131/home/mjharvey/miniconda3/share
    Memory level set to 256.000 MB

  ==> Input File <==

--------------------------------------------------------------------------
set {
	reference rhf
	basis 6-31G*
}


set_num_threads( 1 )
memory 2 gb

molecule MOL {
0 1

H	 2.866480	 -0.465706	 0.876907
C	 2.405773	 -0.024801	 0.000000
N	 0.988830	 -0.304158	 0.000000
H	 2.866480	 -0.465706	 -0.876907
H	 2.629928	 1.045948	 0.000000
C	 0.445951	 -0.411189	 1.341564
C	 0.656791	 -1.480607	 -0.782104
H	 0.908359	 -1.232315	 1.898727
H	 0.648831	 0.508763	 1.880799
C	 -1.055197	 -0.638384	 1.271360
H	 1.014059	 -1.343731	 -1.797914
H	 1.134563	 -2.379661	 -0.379692
C	 -0.849947	 -1.679442	 -0.795991
H	 -1.463376	 -0.809265	 2.258886
H	 -1.537337	 0.238685	 0.843271
O	 -1.354698	 -1.772098	 0.506544
H	 -1.110082	 -2.601231	 -1.299630
H	 -1.322430	 -0.851353	 -1.321346

	symmetry c1
}
ee = energy('scf')
oeprop('DIPOLE', 'QUADRUPOLE', 'MULLIKEN_CHARGES')
f=open( 'psi4out.xyz', 'w' )
f.write( "18  " )
f.write( str(ee) + "\n" )
f.write( MOL.save_string_xyz() )
f.close()
--------------------------------------------------------------------------

  Memory set to   2.000 GiB by Python script.

*** tstart() called on cx1-3-15-4.cx1.hpc.ic.ac.uk
*** at Tue Jul  5 16:30:42 2016


         ---------------------------------------------------------
                                   SCF
            by Justin Turney, Rob Parrish, and Andy Simmonett
                              RHF Reference
                        1 Threads,   2000 MiB Core
         ---------------------------------------------------------

  ==> Geometry <==

    Molecular point group: c1
    Full point group: C1

    Geometry (in Angstrom), charge = 0, multiplicity = 1:

       Center              X                  Y                   Z               Mass       
    ------------   -----------------  -----------------  -----------------  -----------------
           H          2.687359474814     0.442822309965     0.653138025216     1.007825032070
           C          2.226652474814     0.883727309965    -0.223768974784    12.000000000000
           N          0.809709474814     0.604370309965    -0.223768974784    14.003074004780
           H          2.687359474814     0.442822309965    -1.100675974784     1.007825032070
           H          2.450807474814     1.954476309965    -0.223768974784     1.007825032070
           C          0.266830474814     0.497339309965     1.117795025216    12.000000000000
           C          0.477670474814    -0.572078690035    -1.005872974784    12.000000000000
           H          0.729238474814    -0.323786690035     1.674958025216     1.007825032070
           H          0.469710474814     1.417291309965     1.657030025216     1.007825032070
           C         -1.234317525186     0.270144309965     1.047591025216    12.000000000000
           H          0.834938474814    -0.435202690035    -2.021682974784     1.007825032070
           H          0.955442474814    -1.471132690035    -0.603460974784     1.007825032070
           C         -1.029067525186    -0.770913690035    -1.019759974784    12.000000000000
           H         -1.642496525186     0.099263309965     2.035117025216     1.007825032070
           H         -1.716457525186     1.147213309965     0.619502025216     1.007825032070
           O         -1.533818525186    -0.863569690035     0.282775025216    15.994914619560
           H         -1.289202525186    -1.692702690035    -1.523398974784     1.007825032070
           H         -1.501550525186     0.057175309965    -1.545114974784     1.007825032070

  Running in c1 symmetry.

  Rotational constants: A =      0.16249  B =      0.07909  C =      0.05781 [cm^-1]
  Rotational constants: A =   4871.33500  B =   2370.98020  C =   1732.98862 [MHz]
  Nuclear repulsion =  341.589169192063935

  Charge       = 0
  Multiplicity = 1
  Electrons    = 56
  Nalpha       = 28
  Nbeta        = 28

  ==> Algorithm <==

  SCF Algorithm Type is DF.
  DIIS enabled.
  MOM disabled.
  Fractional occupation disabled.
  Guess Type is CORE.
  Energy threshold   = 1.00e-06
  Density threshold  = 1.00e-06
  Integral threshold = 0.00e+00

  ==> Primary Basis <==

  Basis Set: 6-31G*
    Number of shells: 64
    Number of basis function: 127
    Number of Cartesian functions: 127
    Spherical Harmonics?: false
    Max angular momentum: 2

  ==> Pre-Iterations <==

   -------------------------------------------------------
    Irrep   Nso     Nmo     Nalpha   Nbeta   Ndocc  Nsocc
   -------------------------------------------------------
     A        127     127       0       0       0       0
   -------------------------------------------------------
    Total     127     127      28      28      28       0
   -------------------------------------------------------

 OEINTS: Overlap, kinetic, potential, dipole, and quadrupole integrals
         stored in file 35.

  ==> Integral Setup <==

  ==> DFJK: Density-Fitted J/K Matrices <==

    J tasked:                  Yes
    K tasked:                  Yes
    wK tasked:                  No
    OpenMP threads:              1
    Integrals threads:           1
    Memory (MB):              1430
    Algorithm:                Core
    Integral Cache:           NONE
    Schwarz Cutoff:          1E-12
    Fitting Condition:       1E-12

   => Auxiliary Basis Set <=

  Basis Set: 
    Number of shells: 267
    Number of basis function: 842
    Number of Cartesian functions: 842
    Spherical Harmonics?: false
    Max angular momentum: 3

  Minimum eigenvalue in the overlap matrix is 3.2388488989E-03.
  Using Symmetric Orthogonalization.
  SCF Guess: Core (One-Electron) Hamiltonian.

  ==> Iterations <==

                           Total Energy        Delta E     RMS |[F,P]|

   @DF-RHF iter   1:  -254.49267500972093   -2.54493e+02   7.04643e-02 
   @DF-RHF iter   2:  -175.68992102825638    7.88028e+01   7.46481e-02 DIIS
   @DF-RHF iter   3:  -269.66925061937610   -9.39793e+01   5.21344e-02 DIIS
   @DF-RHF iter   4:  -271.29718631486020   -1.62794e+00   6.09803e-02 DIIS
   @DF-RHF iter   5:  -324.31836922720885   -5.30212e+01   9.55913e-03 DIIS
   @DF-RHF iter   6:  -324.92649467503082   -6.08125e-01   3.54618e-03 DIIS
   @DF-RHF iter   7:  -325.00980911141079   -8.33144e-02   1.29051e-03 DIIS
   @DF-RHF iter   8:  -325.02248086582921   -1.26718e-02   3.63447e-04 DIIS
   @DF-RHF iter   9:  -325.02411611646966   -1.63525e-03   9.82504e-05 DIIS
   @DF-RHF iter  10:  -325.02420345914726   -8.73427e-05   4.09412e-05 DIIS
   @DF-RHF iter  11:  -325.02422472247537   -2.12633e-05   6.20264e-06 DIIS
   @DF-RHF iter  12:  -325.02422525304456   -5.30569e-07   2.03093e-06 DIIS
   @DF-RHF iter  13:  -325.02422529694212   -4.38976e-08   6.28379e-07 DIIS

  ==> Post-Iterations <==

    Orbital Energies (a.u.)
    -----------------------

    Doubly Occupied:                                                      

       1A    -20.553886     2A    -15.547283     3A    -11.265945  
       4A    -11.265829     5A    -11.244285     6A    -11.244234  
       7A    -11.240485     8A     -1.383256     9A     -1.232131  
      10A     -1.038421    11A     -0.980777    12A     -0.883240  
      13A     -0.868578    14A     -0.775145    15A     -0.683090  
      16A     -0.645405    17A     -0.643335    18A     -0.632676  
      19A     -0.628650    20A     -0.570197    21A     -0.558523  
      22A     -0.544126    23A     -0.527277    24A     -0.500936  
      25A     -0.483354    26A     -0.452189    27A     -0.407521  
      28A     -0.350903  

    Virtual:                                                              

      29A      0.236451    30A      0.258230    31A      0.275335  
      32A      0.284526    33A      0.303978    34A      0.311704  
      35A      0.312023    36A      0.322885    37A      0.336167  
      38A      0.341666    39A      0.350871    40A      0.362390  
      41A      0.385796    42A      0.425521    43A      0.441989  
      44A      0.447164    45A      0.471632    46A      0.489565  
      47A      0.727640    48A      0.733292    49A      0.748744  
      50A      0.788076    51A      0.794895    52A      0.809450  
      53A      0.833241    54A      0.847503    55A      0.882596  
      56A      0.913082    57A      0.933813    58A      0.962892  
      59A      0.972411    60A      1.057852    61A      1.070376  
      62A      1.103267    63A      1.110843    64A      1.133925  
      65A      1.136123    66A      1.149550    67A      1.162277  
      68A      1.170827    69A      1.189229    70A      1.193437  
      71A      1.201512    72A      1.225576    73A      1.241939  
      74A      1.248304    75A      1.301582    76A      1.328928  
      77A      1.397027    78A      1.475343    79A      1.527860  
      80A      1.607889    81A      1.630175    82A      1.656690  
      83A      1.667085    84A      1.695576    85A      1.727150  
      86A      1.875178    87A      1.904871    88A      1.983684  
      89A      2.003386    90A      2.079057    91A      2.155987  
      92A      2.186417    93A      2.215498    94A      2.230574  
      95A      2.302285    96A      2.327180    97A      2.352354  
      98A      2.367367    99A      2.399742   100A      2.434456  
     101A      2.442520   102A      2.487996   103A      2.510162  
     104A      2.550058   105A      2.609647   106A      2.620586  
     107A      2.659431   108A      2.684426   109A      2.773095  
     110A      2.788815   111A      2.806042   112A      2.892646  
     113A      2.912742   114A      2.944702   115A      3.084330  
     116A      3.135918   117A      3.161356   118A      3.227975  
     119A      3.254743   120A      3.327651   121A      4.398799  
     122A      4.517583   123A      4.643066   124A      4.690898  
     125A      4.773540   126A      4.942939   127A      4.953504  

    Final Occupation by Irrep:
              A 
    DOCC [    28 ]

  Energy converged.

  @DF-RHF Final Energy:  -325.02422529694212

   => Energetics <=

    Nuclear Repulsion Energy =            341.5891691920639346
    One-Electron Energy =               -1118.9233551347640514
    Two-Electron Energy =                 452.3099606457587925
    DFT Exchange-Correlation Energy =       0.0000000000000000
    Empirical Dispersion Energy =           0.0000000000000000
    PCM Polarization Energy =               0.0000000000000000
    EFP Energy =                            0.0000000000000000
    Total Energy =                       -325.0242252969412675

    Alert: EFP and PCM quantities not currently incorporated into SCF psivars.

Properties will be evaluated at   0.000000,   0.000000,   0.000000 Bohr
  ==> Properties <==


Properties computed using the SCF density matrix

  Nuclear Dipole Moment: (a.u.)
     X:     4.3637      Y:     1.5299      Z:    -0.3527

  Electronic Dipole Moment: (a.u.)
     X:    -3.8367      Y:    -1.3243      Z:     0.2785

  Dipole Moment: (a.u.)
     X:     0.5270      Y:     0.2056      Z:    -0.0742     Total:     0.5706

  Dipole Moment: (Debye)
     X:     1.3396      Y:     0.5227      Z:    -0.1885     Total:     1.4502


  Saving occupied orbitals to File 180.

*** tstop() called on cx1-3-15-4.cx1.hpc.ic.ac.uk at Tue Jul  5 16:30:54 2016
Module time:
	user time   =      10.70 seconds =       0.18 minutes
	system time =       0.08 seconds =       0.00 minutes
	total time  =         12 seconds =       0.20 minutes
Total time:
	user time   =      10.70 seconds =       0.18 minutes
	system time =       0.08 seconds =       0.00 minutes
	total time  =         12 seconds =       0.20 minutes


Properties will be evaluated at   0.000000,   0.000000,   0.000000 Bohr

Properties computed using the  density matrix

  Nuclear Dipole Moment: (a.u.)
     X:     4.3637      Y:     1.5299      Z:    -0.3527

  Electronic Dipole Moment: (a.u.)
     X:    -3.8367      Y:    -1.3243      Z:     0.2785

  Dipole Moment: (a.u.)
     X:     0.5270      Y:     0.2056      Z:    -0.0742     Total:     0.5706

  Dipole Moment: (Debye)
     X:     1.3396      Y:     0.5227      Z:    -0.1885     Total:     1.4502

  Quadrupole Moment: (Debye Ang)
    XX:   -45.2731     YY:   -46.0119     ZZ:   -41.0349
    XY:    -2.0045     XZ:     0.2083     YZ:     3.0466

  Traceless Quadrupole Moment: (Debye Ang)
    XX:    -1.1664     YY:    -1.9052     ZZ:     3.0717
    XY:    -2.0045     XZ:     0.2083     YZ:     3.0466

  Mulliken Charges: (a.u.)
   Center  Symbol    Alpha    Beta     Spin     Total
       1     H     0.42826  0.42826  0.00000  0.14348
       2     C     3.13938  3.13938  0.00000 -0.27876
       3     N     3.78732  3.78732  0.00000 -0.57463
       4     H     0.41877  0.41877  0.00000  0.16246
       5     H     0.41563  0.41563  0.00000  0.16875
       6     C     3.07009  3.07009  0.00000 -0.14017
       7     C     3.07016  3.07016  0.00000 -0.14033
       8     H     0.42801  0.42801  0.00000  0.14399
       9     H     0.41583  0.41583  0.00000  0.16835
      10     C     2.99751  2.99751  0.00000  0.00498
      11     H     0.41613  0.41613  0.00000  0.16773
      12     H     0.42877  0.42877  0.00000  0.14245
      13     C     2.99753  2.99753  0.00000  0.00495
      14     H     0.41340  0.41340  0.00000  0.17319
      15     H     0.42378  0.42378  0.00000  0.15244
      16     O     4.31207  4.31207  0.00000 -0.62413
      17     H     0.41348  0.41348  0.00000  0.17304
      18     H     0.42389  0.42389  0.00000  0.15222

   Total alpha = 28.00000, Total beta = 28.00000, Total charge =  0.00000


*** PSI4 exiting successfully. Buy a developer a beer!
