    -----------------------------------------------------------------------
          Psi4: An Open-Source Ab Initio Electronic Structure Package
                              Psi4 (no tag) Driver

                          Git: Rev {detached?}  

    J. M. Turney, A. C. Simmonett, R. M. Parrish, E. G. Hohenstein,
    F. A. Evangelista, J. T. Fermann, B. J. Mintz, L. A. Burns, J. J. Wilke,
    M. L. Abrams, N. J. Russ, M. L. Leininger, C. L. Janssen, E. T. Seidl,
    W. D. Allen, H. F. Schaefer, R. A. King, E. F. Valeev, C. D. Sherrill,
    and T. D. Crawford, WIREs Comput. Mol. Sci. 2, 556-565 (2012)
    (doi: 10.1002/wcms.93)

                         Additional Contributions by
    A. E. DePrince, M. Saitow, U. Bozkaya, A. Yu. Sokolov
    -----------------------------------------------------------------------


    Psi4 started on: Tue Jul  5 16:31:48 2016

    Process ID:   3956
    PSI4DATADIR: /export131/home/mjharvey/miniconda3/share
    Memory level set to 256.000 MB

  ==> Input File <==

--------------------------------------------------------------------------
set {
	reference rhf
	basis 6-31G*
}


set_num_threads( 1 )
memory 2 gb

molecule MOL {
0 1

H	 2.866480	 -0.465706	 0.876907
C	 2.405773	 -0.024801	 0.000000
N	 0.988830	 -0.304158	 0.000000
H	 2.866480	 -0.465706	 -0.876907
H	 2.629928	 1.045948	 0.000000
C	 0.221217	 0.728697	 0.670782
C	 0.682386	 -1.610428	 0.552919
H	 0.503724	 0.820055	 1.724510
H	 0.417264	 1.683306	 0.192731
C	 -1.261646	 0.408757	 0.577254
H	 1.216123	 -2.368632	 -0.011437
H	 0.998499	 -1.689521	 1.598058
C	 -0.812706	 -1.868337	 0.462517
H	 -1.843830	 1.120458	 1.147832
H	 -1.579829	 0.454215	 -0.462776
O	 -1.535001	 -0.857570	 1.107957
H	 -1.071073	 -2.799087	 0.950336
H	 -1.109767	 -1.930013	 -0.582912

	symmetry c1
}
ee = energy('scf')
oeprop('DIPOLE', 'QUADRUPOLE', 'MULLIKEN_CHARGES')
f=open( 'psi4out.xyz', 'w' )
f.write( "18  " )
f.write( str(ee) + "\n" )
f.write( MOL.save_string_xyz() )
f.close()
--------------------------------------------------------------------------

  Memory set to   2.000 GiB by Python script.

*** tstart() called on cx1-3-15-4.cx1.hpc.ic.ac.uk
*** at Tue Jul  5 16:31:49 2016


         ---------------------------------------------------------
                                   SCF
            by Justin Turney, Rob Parrish, and Andy Simmonett
                              RHF Reference
                        1 Threads,   2000 MiB Core
         ---------------------------------------------------------

  ==> Geometry <==

    Molecular point group: c1
    Full point group: C1

    Geometry (in Angstrom), charge = 0, multiplicity = 1:

       Center              X                  Y                   Z               Mass       
    ------------   -----------------  -----------------  -----------------  -----------------
           H          2.767009746552     0.038823442611     0.387459552076     1.007825032070
           C          2.306302746552     0.479728442611    -0.489447447924    12.000000000000
           N          0.889359746552     0.200371442611    -0.489447447924    14.003074004780
           H          2.767009746552     0.038823442611    -1.366354447924     1.007825032070
           H          2.530457746552     1.550477442611    -0.489447447924     1.007825032070
           C          0.121746746552     1.233226442611     0.181334552076    12.000000000000
           C          0.582915746552    -1.105898557389     0.063471552076    12.000000000000
           H          0.404253746552     1.324584442611     1.235062552076     1.007825032070
           H          0.317793746552     2.187835442611    -0.296716447924     1.007825032070
           C         -1.361116253448     0.913286442611     0.087806552076    12.000000000000
           H          1.116652746552    -1.864102557389    -0.500884447924     1.007825032070
           H          0.899028746552    -1.184991557389     1.108610552076     1.007825032070
           C         -0.912176253448    -1.363807557389    -0.026930447924    12.000000000000
           H         -1.943300253448     1.624987442611     0.658384552076     1.007825032070
           H         -1.679299253448     0.958744442611    -0.952223447924     1.007825032070
           O         -1.634471253448    -0.353040557389     0.618509552076    15.994914619560
           H         -1.170543253448    -2.294557557389     0.460888552076     1.007825032070
           H         -1.209237253448    -1.425483557389    -1.072359447924     1.007825032070

  Running in c1 symmetry.

  Rotational constants: A =      0.16246  B =      0.07908  C =      0.05780 [cm^-1]
  Rotational constants: A =   4870.56666  B =   2370.82946  C =   1732.80921 [MHz]
  Nuclear repulsion =  341.556383538791692

  Charge       = 0
  Multiplicity = 1
  Electrons    = 56
  Nalpha       = 28
  Nbeta        = 28

  ==> Algorithm <==

  SCF Algorithm Type is DF.
  DIIS enabled.
  MOM disabled.
  Fractional occupation disabled.
  Guess Type is CORE.
  Energy threshold   = 1.00e-06
  Density threshold  = 1.00e-06
  Integral threshold = 0.00e+00

  ==> Primary Basis <==

  Basis Set: 6-31G*
    Number of shells: 64
    Number of basis function: 127
    Number of Cartesian functions: 127
    Spherical Harmonics?: false
    Max angular momentum: 2

  ==> Pre-Iterations <==

   -------------------------------------------------------
    Irrep   Nso     Nmo     Nalpha   Nbeta   Ndocc  Nsocc
   -------------------------------------------------------
     A        127     127       0       0       0       0
   -------------------------------------------------------
    Total     127     127      28      28      28       0
   -------------------------------------------------------

 OEINTS: Overlap, kinetic, potential, dipole, and quadrupole integrals
         stored in file 35.

  ==> Integral Setup <==

  ==> DFJK: Density-Fitted J/K Matrices <==

    J tasked:                  Yes
    K tasked:                  Yes
    wK tasked:                  No
    OpenMP threads:              1
    Integrals threads:           1
    Memory (MB):              1430
    Algorithm:                Core
    Integral Cache:           NONE
    Schwarz Cutoff:          1E-12
    Fitting Condition:       1E-12

   => Auxiliary Basis Set <=

  Basis Set: 
    Number of shells: 267
    Number of basis function: 842
    Number of Cartesian functions: 842
    Spherical Harmonics?: false
    Max angular momentum: 3

  Minimum eigenvalue in the overlap matrix is 3.2321566342E-03.
  Using Symmetric Orthogonalization.
  SCF Guess: Core (One-Electron) Hamiltonian.

  ==> Iterations <==

                           Total Energy        Delta E     RMS |[F,P]|

   @DF-RHF iter   1:  -254.48742510914883   -2.54487e+02   7.04548e-02 
   @DF-RHF iter   2:  -176.08504575267705    7.84024e+01   7.38622e-02 DIIS
   @DF-RHF iter   3:  -269.55779100192046   -9.34727e+01   5.32330e-02 DIIS
   @DF-RHF iter   4:  -282.03749105648308   -1.24797e+01   5.89424e-02 DIIS
   @DF-RHF iter   5:  -324.33622001990352   -4.22987e+01   9.78301e-03 DIIS
   @DF-RHF iter   6:  -324.89852139546099   -5.62301e-01   4.22072e-03 DIIS
   @DF-RHF iter   7:  -325.01233054523811   -1.13809e-01   1.18567e-03 DIIS
   @DF-RHF iter   8:  -325.02379881669447   -1.14683e-02   3.02434e-04 DIIS
   @DF-RHF iter   9:  -325.02500115846965   -1.20234e-03   7.26637e-05 DIIS
   @DF-RHF iter  10:  -325.02505224291360   -5.10844e-05   3.16996e-05 DIIS
   @DF-RHF iter  11:  -325.02506530412359   -1.30612e-05   5.62600e-06 DIIS
   @DF-RHF iter  12:  -325.02506578772375   -4.83600e-07   1.62438e-06 DIIS
   @DF-RHF iter  13:  -325.02506582105741   -3.33337e-08   5.19421e-07 DIIS

  ==> Post-Iterations <==

    Orbital Energies (a.u.)
    -----------------------

    Doubly Occupied:                                                      

       1A    -20.553882     2A    -15.547473     3A    -11.266314  
       4A    -11.265601     5A    -11.244662     6A    -11.243636  
       7A    -11.240544     8A     -1.383265     9A     -1.232026  
      10A     -1.038342    11A     -0.980902    12A     -0.882920  
      13A     -0.868636    14A     -0.774936    15A     -0.683152  
      16A     -0.645389    17A     -0.643220    18A     -0.632310  
      19A     -0.629489    20A     -0.570947    21A     -0.557660  
      22A     -0.543271    23A     -0.527294    24A     -0.501126  
      25A     -0.483736    26A     -0.452097    27A     -0.407325  
      28A     -0.351138  

    Virtual:                                                              

      29A      0.235391    30A      0.258537    31A      0.274582  
      32A      0.284073    33A      0.307304    34A      0.312798  
      35A      0.314217    36A      0.321672    37A      0.337485  
      38A      0.339279    39A      0.350170    40A      0.360539  
      41A      0.386824    42A      0.426021    43A      0.442942  
      44A      0.446486    45A      0.470019    46A      0.487601  
      47A      0.723872    48A      0.732936    49A      0.747041  
      50A      0.786883    51A      0.795050    52A      0.809707  
      53A      0.833510    54A      0.846428    55A      0.888270  
      56A      0.910276    57A      0.934325    58A      0.962373  
      59A      0.975933    60A      1.060117    61A      1.068864  
      62A      1.104997    63A      1.111919    64A      1.130990  
      65A      1.135691    66A      1.151416    67A      1.164705  
      68A      1.173369    69A      1.188502    70A      1.197636  
      71A      1.201507    72A      1.233632    73A      1.242462  
      74A      1.249570    75A      1.300023    76A      1.327846  
      77A      1.398161    78A      1.473468    79A      1.529910  
      80A      1.622695    81A      1.634588    82A      1.655767  
      83A      1.667820    84A      1.695243    85A      1.724616  
      86A      1.875172    87A      1.904150    88A      1.984428  
      89A      2.002901    90A      2.077219    91A      2.155833  
      92A      2.183876    93A      2.209563    94A      2.233801  
      95A      2.302922    96A      2.325363    97A      2.354098  
      98A      2.363046    99A      2.403486   100A      2.430914  
     101A      2.448907   102A      2.489144   103A      2.508876  
     104A      2.538071   105A      2.610065   106A      2.619225  
     107A      2.657937   108A      2.680482   109A      2.775204  
     110A      2.784212   111A      2.806260   112A      2.893606  
     113A      2.918764   114A      2.942049   115A      3.084218  
     116A      3.136828   117A      3.160235   118A      3.228655  
     119A      3.254140   120A      3.327712   121A      4.397507  
     122A      4.512206   123A      4.644083   124A      4.694614  
     125A      4.770716   126A      4.942051   127A      4.953537  

    Final Occupation by Irrep:
              A 
    DOCC [    28 ]

  Energy converged.

  @DF-RHF Final Energy:  -325.02506582105741

   => Energetics <=

    Nuclear Repulsion Energy =            341.5563835387916924
    One-Electron Energy =               -1118.8602872560888954
    Two-Electron Energy =                 452.2788378962417823
    DFT Exchange-Correlation Energy =       0.0000000000000000
    Empirical Dispersion Energy =           0.0000000000000000
    PCM Polarization Energy =               0.0000000000000000
    EFP Energy =                            0.0000000000000000
    Total Energy =                       -325.0250658210554207

    Alert: EFP and PCM quantities not currently incorporated into SCF psivars.

Properties will be evaluated at   0.000000,   0.000000,   0.000000 Bohr
  ==> Properties <==


Properties computed using the SCF density matrix

  Nuclear Dipole Moment: (a.u.)
     X:     4.4893      Y:     0.8931      Z:    -0.7714

  Electronic Dipole Moment: (a.u.)
     X:    -3.9477      Y:    -0.7642      Z:     0.6414

  Dipole Moment: (a.u.)
     X:     0.5415      Y:     0.1290      Z:    -0.1300     Total:     0.5717

  Dipole Moment: (Debye)
     X:     1.3765      Y:     0.3278      Z:    -0.3305     Total:     1.4530


  Saving occupied orbitals to File 180.

*** tstop() called on cx1-3-15-4.cx1.hpc.ic.ac.uk at Tue Jul  5 16:32:00 2016
Module time:
	user time   =      10.38 seconds =       0.17 minutes
	system time =       0.06 seconds =       0.00 minutes
	total time  =         11 seconds =       0.18 minutes
Total time:
	user time   =      10.38 seconds =       0.17 minutes
	system time =       0.06 seconds =       0.00 minutes
	total time  =         11 seconds =       0.18 minutes


Properties will be evaluated at   0.000000,   0.000000,   0.000000 Bohr

Properties computed using the  density matrix

  Nuclear Dipole Moment: (a.u.)
     X:     4.4893      Y:     0.8931      Z:    -0.7714

  Electronic Dipole Moment: (a.u.)
     X:    -3.9477      Y:    -0.7642      Z:     0.6414

  Dipole Moment: (a.u.)
     X:     0.5415      Y:     0.1290      Z:    -0.1300     Total:     0.5717

  Dipole Moment: (Debye)
     X:     1.3765      Y:     0.3278      Z:    -0.3305     Total:     1.4530

  Quadrupole Moment: (Debye Ang)
    XX:   -45.8659     YY:   -39.6905     ZZ:   -46.7353
    XY:    -1.0805     XZ:     1.9960     YZ:     0.7684

  Traceless Quadrupole Moment: (Debye Ang)
    XX:    -1.7687     YY:     4.4068     ZZ:    -2.6381
    XY:    -1.0805     XZ:     1.9960     YZ:     0.7684

  Mulliken Charges: (a.u.)
   Center  Symbol    Alpha    Beta     Spin     Total
       1     H     0.42924  0.42924  0.00000  0.14153
       2     C     3.14127  3.14127  0.00000 -0.28253
       3     N     3.78744  3.78744  0.00000 -0.57488
       4     H     0.41451  0.41451  0.00000  0.17098
       5     H     0.41761  0.41761  0.00000  0.16478
       6     C     3.06902  3.06902  0.00000 -0.13804
       7     C     3.06974  3.06974  0.00000 -0.13949
       8     H     0.42910  0.42910  0.00000  0.14180
       9     H     0.41654  0.41654  0.00000  0.16693
      10     C     2.99768  2.99768  0.00000  0.00463
      11     H     0.41609  0.41609  0.00000  0.16783
      12     H     0.42783  0.42783  0.00000  0.14435
      13     C     2.99739  2.99739  0.00000  0.00521
      14     H     0.41354  0.41354  0.00000  0.17292
      15     H     0.42400  0.42400  0.00000  0.15200
      16     O     4.31205  4.31205  0.00000 -0.62409
      17     H     0.41324  0.41324  0.00000  0.17352
      18     H     0.42372  0.42372  0.00000  0.15255

   Total alpha = 28.00000, Total beta = 28.00000, Total charge =  0.00000


*** PSI4 exiting successfully. Buy a developer a beer!
