
    -----------------------------------------------------------------------
          Psi4: An Open-Source Ab Initio Electronic Structure Package
                               Psi4 1.1 release

                         Git: Rev {HEAD} add49b9 


    R. M. Parrish, L. A. Burns, D. G. A. Smith, A. C. Simmonett,
    A. E. DePrince III, E. G. Hohenstein, U. Bozkaya, A. Yu. Sokolov,
    R. Di Remigio, R. M. Richard, J. F. Gonthier, A. M. James,
    H. R. McAlexander, A. Kumar, M. Saitow, X. Wang, B. P. Pritchard,
    P. Verma, H. F. Schaefer III, K. Patkowski, R. A. King, E. F. Valeev,
    F. A. Evangelista, J. M. Turney, T. D. Crawford, and C. D. Sherrill,
    J. Chem. Theory Comput. in press (2017).
    (doi: 10.1021/acs.jctc.7b00174)

    -----------------------------------------------------------------------


    Psi4 started on: Wednesday, 06 September 2017 12:47PM

    Process ID:  31619
    PSIDATADIR: /home/raimis/opt/miniconda3/envs/htmd/share/psi4
    Memory:     500.0 MiB
    Threads:    1
    
  ==> Input File <==

--------------------------------------------------------------------------
set_num_threads( 8 )
memory 2.000000 gb

set { reference rks }
set { basis cc-pVDZ }

molecule MOL {
    0 1
    noreorient
    nocom
    symmetry c1
    O    1.141000   0.017000   0.083000
    C    2.558000   0.086000  -0.005000
    C    3.192000  -0.789000   1.067000
    O    2.253492  -1.753094   1.528621
    H    0.789000   0.590000  -0.620000
    H    2.874000   1.128000   0.115000
    H    2.871000  -0.243000  -1.001000
    H    3.523912  -0.177984   1.912241
    H    4.070066  -1.308117   0.666506
    H    2.708375  -2.281184   2.207656
}

set optking { frozen_dihedral = (" 1 2 3 4, 2 3 4 10 ") }

energy, wfn = energy('B3LYP-D3', return_wfn=True)

import os
os.chdir(os.environ['HTMD_PSI4_WORKDIR'])

oeprop(wfn, 'DIPOLE', 'QUADRUPOLE', 'MULLIKEN_CHARGES')

with open('psi4out.xyz', 'w') as f:
    f.write('10 ' )
    f.write('%.12f\n' % energy)
    f.write(MOL.save_string_xyz())
--------------------------------------------------------------------------
  Threads set to 8 by Python driver.

  Memory set to   1.863 GiB by Python driver.

*** tstart() called on computer03
*** at Wed Sep  6 12:47:50 2017

   => Loading Basis Set <=

    Name: CC-PVDZ
    Role: ORBITAL
    Keyword: BASIS
    atoms 1, 4 entry O          line   190 file /home/raimis/opt/miniconda3/envs/htmd/share/psi4/basis/cc-pvdz.gbs 
    atoms 2-3  entry C          line   130 file /home/raimis/opt/miniconda3/envs/htmd/share/psi4/basis/cc-pvdz.gbs 
    atoms 5-10 entry H          line    20 file /home/raimis/opt/miniconda3/envs/htmd/share/psi4/basis/cc-pvdz.gbs 


         ---------------------------------------------------------
                                   SCF
            by Justin Turney, Rob Parrish, and Andy Simmonett
                              RKS Reference
                        8 Threads,   1907 MiB Core
         ---------------------------------------------------------

  ==> Geometry <==

    Molecular point group: c1
    Full point group: C1

    Geometry (in Angstrom), charge = 0, multiplicity = 1:

       Center              X                  Y                   Z               Mass       
    ------------   -----------------  -----------------  -----------------  -----------------
           O          1.141000000000     0.017000000000     0.083000000000    15.994914619560
           C          2.558000000000     0.086000000000    -0.005000000000    12.000000000000
           C          3.192000000000    -0.789000000000     1.067000000000    12.000000000000
           O          2.253492000000    -1.753094000000     1.528621000000    15.994914619560
           H          0.789000000000     0.590000000000    -0.620000000000     1.007825032070
           H          2.874000000000     1.128000000000     0.115000000000     1.007825032070
           H          2.871000000000    -0.243000000000    -1.001000000000     1.007825032070
           H          3.523912000000    -0.177984000000     1.912241000000     1.007825032070
           H          4.070066000000    -1.308117000000     0.666506000000     1.007825032070
           H          2.708375000000    -2.281184000000     2.207656000000     1.007825032070

  Running in c1 symmetry.

  Rotational constants: A =      0.30552  B =      0.03900  C =      0.03512 [cm^-1]
  Rotational constants: A =   9159.36749  B =   1169.21600  C =   1052.83338 [MHz]
  Nuclear repulsion =  133.078592410006337

  Charge       = 0
  Multiplicity = 1
  Electrons    = 34
  Nalpha       = 17
  Nbeta        = 17

  ==> Algorithm <==

  SCF Algorithm Type is DF.
  DIIS enabled.
  MOM disabled.
  Fractional occupation disabled.
  Guess Type is SAD.
  Energy threshold   = 1.00e-06
  Density threshold  = 1.00e-06
  Integral threshold = 0.00e+00

  ==> Primary Basis <==

  Basis Set: CC-PVDZ
    Blend: CC-PVDZ
    Number of shells: 42
    Number of basis function: 86
    Number of Cartesian functions: 90
    Spherical Harmonics?: true
    Max angular momentum: 2

  ==> DFT Potential <==

   => B3LYP Composite Functional <= 

    B3LYP Hybrid-GGA Exchange-Correlation Functional (VWN1-RPA)

    P.J. Stephens et. al., J. Phys. Chem., 98, 11623-11627, 1994

    Points   =           5000
    Deriv    =              1
    GGA      =           TRUE
    Meta     =          FALSE

    X_LRC        =          FALSE
    X_Hybrid     =           TRUE
    X_Alpha      =   2.000000E-01
    X_Omega      =   0.000000E+00
    C_LRC        =          FALSE
    C_Hybrid     =          FALSE
    C_Alpha      =   0.000000E+00
    C_Omega      =   0.000000E+00

   => Exchange Functionals <=

    0.8000    B3_X
    0.2000      HF 

   => Correlation Functionals <=

    0.1900 VWN3RPA_C
    0.8100   LYP_C

   => Molecular Quadrature <=

    Radial Scheme    =       TREUTLER
    Pruning Scheme   =           FLAT
    Nuclear Scheme   =       TREUTLER

    BS radius alpha  =              1
    Pruning alpha    =              1
    Radial Points    =             75
    Spherical Points =            302
    Total Points     =         222572
    Total Blocks     =            206
    Max Points       =           4915
    Max Functions    =             86

   => -D3ZERO: Empirical Dispersion <=

    Grimme's -D3 (zero-damping) Dispersion Correction
    Grimme S.; Antony J.; Ehrlich S.; Krieg H. (2010), J. Chem. Phys., 132: 154104

        S6 =   1.000000E+00
        S8 =   1.703000E+00
       SR6 =   1.261000E+00
    ALPHA6 =   1.400000E+01

   => Loading Basis Set <=

    Name: (CC-PVDZ AUX)
    Role: JKFIT
    Keyword: DF_BASIS_SCF
    atoms 1, 4 entry O          line   220 file /home/raimis/opt/miniconda3/envs/htmd/share/psi4/basis/cc-pvdz-jkfit.gbs 
    atoms 2-3  entry C          line   120 file /home/raimis/opt/miniconda3/envs/htmd/share/psi4/basis/cc-pvdz-jkfit.gbs 
    atoms 5-10 entry H          line    50 file /home/raimis/opt/miniconda3/envs/htmd/share/psi4/basis/cc-pvdz-jkfit.gbs 

  ==> Pre-Iterations <==

   -------------------------------------------------------
    Irrep   Nso     Nmo     Nalpha   Nbeta   Ndocc  Nsocc
   -------------------------------------------------------
     A         86      86       0       0       0       0
   -------------------------------------------------------
    Total      86      86      17      17      17       0
   -------------------------------------------------------

  ==> Integral Setup <==

  ==> DFJK: Density-Fitted J/K Matrices <==

    J tasked:                  Yes
    K tasked:                  Yes
    wK tasked:                  No
    OpenMP threads:              8
    Integrals threads:           8
    Memory (MB):              1430
    Algorithm:                Core
    Integral Cache:           NONE
    Schwarz Cutoff:          1E-12
    Fitting Condition:       1E-12

   => Auxiliary Basis Set <=

  Basis Set: (CC-PVDZ AUX)
    Blend: CC-PVDZ-JKFIT
    Number of shells: 150
    Number of basis function: 418
    Number of Cartesian functions: 474
    Spherical Harmonics?: true
    Max angular momentum: 3

  Minimum eigenvalue in the overlap matrix is 4.9101582266E-03.
  Using Symmetric Orthogonalization.

  SCF Guess: Superposition of Atomic Densities via on-the-fly atomic UHF.

  ==> Iterations <==

                           Total Energy        Delta E     RMS |[F,P]|

   @DF-RKS iter   0:  -230.73769646218710   -2.30738e+02   6.13722e-02 
   @DF-RKS iter   1:  -230.14479390455443    5.92903e-01   1.05625e-02 
   @DF-RKS iter   2:  -230.08138342123448    6.34105e-02   1.05445e-02 DIIS
   @DF-RKS iter   3:  -230.24467524591554   -1.63292e-01   9.55906e-04 DIIS
   @DF-RKS iter   4:  -230.24587624217966   -1.20100e-03   4.27387e-04 DIIS
   @DF-RKS iter   5:  -230.24624298197790   -3.66740e-04   7.36255e-05 DIIS
   @DF-RKS iter   6:  -230.24625176566511   -8.78369e-06   6.18258e-06 DIIS
   @DF-RKS iter   7:  -230.24625184304421   -7.73791e-08   2.46294e-06 DIIS
   @DF-RKS iter   8:  -230.24625184881381   -5.76961e-09   1.67909e-06 DIIS
   @DF-RKS iter   9:  -230.24625185136452   -2.55071e-09   1.38661e-07 DIIS

  ==> Post-Iterations <==

    Orbital Energies (a.u.)
    -----------------------

    Doubly Occupied:                                                      

       1A    -19.122468     2A    -19.122404     3A    -10.226056  
       4A    -10.225868     5A     -1.016432     6A     -0.994355  
       7A     -0.733986     8A     -0.599536     9A     -0.526453  
      10A     -0.481969    11A     -0.456334    12A     -0.413640  
      13A     -0.394639    14A     -0.328564    15A     -0.322946  
      16A     -0.266111    17A     -0.245333  

    Virtual:                                                              

      18A      0.039833    19A      0.076239    20A      0.090109  
      21A      0.100990    22A      0.138517    23A      0.165881  
      24A      0.176022    25A      0.239855    26A      0.277175  
      27A      0.446017    28A      0.460472    29A      0.494674  
      30A      0.531644    31A      0.550101    32A      0.555969  
      33A      0.620170    34A      0.628278    35A      0.638774  
      36A      0.644820    37A      0.698026    38A      0.699398  
      39A      0.812920    40A      0.862068    41A      0.915532  
      42A      0.987117    43A      1.013464    44A      1.047817  
      45A      1.063697    46A      1.158657    47A      1.233037  
      48A      1.235351    49A      1.286982    50A      1.361052  
      51A      1.367405    52A      1.423136    53A      1.475059  
      54A      1.541370    55A      1.580173    56A      1.606247  
      57A      1.607323    58A      1.617488    59A      1.625727  
      60A      1.732827    61A      1.746640    62A      1.778115  
      63A      1.843294    64A      1.893313    65A      1.954968  
      66A      1.997558    67A      2.024005    68A      2.028341  
      69A      2.089499    70A      2.158029    71A      2.204078  
      72A      2.335622    73A      2.404031    74A      2.407973  
      75A      2.527420    76A      2.534367    77A      2.902693  
      78A      2.977340    79A      2.979227    80A      3.014875  
      81A      3.065599    82A      3.179109    83A      3.180259  
      84A      3.224763    85A      3.689803    86A      3.719857  

    Final Occupation by Irrep:
              A 
    DOCC [    17 ]

  Energy converged.

  @DF-RKS Final Energy:  -230.24625185136452

   => Energetics <=

    Nuclear Repulsion Energy =            133.0785924100063369
    One-Electron Energy =                -578.0628600098089009
    Two-Electron Energy =                 239.2819222175243112
    DFT Exchange-Correlation Energy =     -24.5398750390862475
    Empirical Dispersion Energy =          -0.0040314300000000
    PCM Polarization Energy =               0.0000000000000000
    EFP Energy =                            0.0000000000000000
    Total Energy =                       -230.2462518513645193



Properties will be evaluated at   0.000000,   0.000000,   0.000000 Bohr

Properties computed using the SCF density matrix

  Nuclear Dipole Moment: (a.u.)
     X:   148.3289      Y:   -38.5486      Z:    42.6046

  Electronic Dipole Moment: (a.u.)
     X:  -147.5634      Y:    38.8849      Z:   -42.7836

  Dipole Moment: (a.u.)
     X:     0.7655      Y:     0.3363      Z:    -0.1790     Total:     0.8551

  Dipole Moment: (Debye)
     X:     1.9457      Y:     0.8548      Z:    -0.4550     Total:     2.1734


*** tstop() called on computer03 at Wed Sep  6 12:48:09 2017
Module time:
	user time   =      33.93 seconds =       0.57 minutes
	system time =       0.97 seconds =       0.02 minutes
	total time  =         19 seconds =       0.32 minutes
Total time:
	user time   =      33.93 seconds =       0.57 minutes
	system time =       0.97 seconds =       0.02 minutes
	total time  =         19 seconds =       0.32 minutes


Properties will be evaluated at   0.000000,   0.000000,   0.000000 Bohr

Properties computed using the  density matrix

  Nuclear Dipole Moment: (a.u.)
     X:   148.3289      Y:   -38.5486      Z:    42.6046

  Electronic Dipole Moment: (a.u.)
     X:  -147.5634      Y:    38.8849      Z:   -42.7836

  Dipole Moment: (a.u.)
     X:     0.7655      Y:     0.3363      Z:    -0.1790     Total:     0.8551

  Dipole Moment: (Debye)
     X:     1.9457      Y:     0.8548      Z:    -0.4550     Total:     2.1734

  Quadrupole Moment: (Debye Ang)
    XX:   -15.4656     YY:   -23.0550     ZZ:   -21.2363
    XY:    -2.0199     XZ:     3.2930     YZ:    -3.0384

  Traceless Quadrupole Moment: (Debye Ang)
    XX:     4.4534     YY:    -3.1361     ZZ:    -1.3174
    XY:    -2.0199     XZ:     3.2930     YZ:    -3.0384

  Mulliken Charges: (a.u.)
   Center  Symbol    Alpha    Beta     Spin     Total
       1     O     4.12939  4.12939  0.00000 -0.25878
       2     C     2.93503  2.93503  0.00000  0.12993
       3     C     2.93519  2.93519  0.00000  0.12962
       4     O     4.12962  4.12962  0.00000 -0.25923
       5     H     0.43159  0.43159  0.00000  0.13681
       6     H     0.50253  0.50253  0.00000 -0.00506
       7     H     0.50141  0.50141  0.00000 -0.00282
       8     H     0.50128  0.50128  0.00000 -0.00257
       9     H     0.50241  0.50241  0.00000 -0.00482
      10     H     0.43154  0.43154  0.00000  0.13692

   Total alpha = 17.00000, Total beta = 17.00000, Total charge =  0.00000


*** Psi4 exiting successfully. Buy a developer a beer!
