    -----------------------------------------------------------------------
          Psi4: An Open-Source Ab Initio Electronic Structure Package
                              Psi4 (no tag) Driver

                          Git: Rev {detached?}  

    J. M. Turney, A. C. Simmonett, R. M. Parrish, E. G. Hohenstein,
    F. A. Evangelista, J. T. Fermann, B. J. Mintz, L. A. Burns, J. J. Wilke,
    M. L. Abrams, N. J. Russ, M. L. Leininger, C. L. Janssen, E. T. Seidl,
    W. D. Allen, H. F. Schaefer, R. A. King, E. F. Valeev, C. D. Sherrill,
    and T. D. Crawford, WIREs Comput. Mol. Sci. 2, 556-565 (2012)
    (doi: 10.1002/wcms.93)

                         Additional Contributions by
    A. E. DePrince, M. Saitow, U. Bozkaya, A. Yu. Sokolov
    -----------------------------------------------------------------------


    Psi4 started on: Tue Jul  5 16:30:43 2016

    Process ID:  16107
    PSI4DATADIR: /export131/home/mjharvey/miniconda3/share
    Memory level set to 256.000 MB

  ==> Input File <==

--------------------------------------------------------------------------
set {
	reference rhf
	basis 6-31G*
}


set_num_threads( 1 )
memory 2 gb

molecule MOL {
0 1

H	 -3.572414	 0.552595	 -0.000000
O	 -3.106097	 -0.272125	 0.000000
C	 -1.775806	 -0.076183	 0.000000
C	 -1.213894	 1.197102	 -0.000000
C	 -0.964386	 -1.203864	 0.000000
H	 -1.849936	 2.065872	 -0.000000
C	 0.157995	 1.337606	 -0.000000
H	 -1.421544	 -2.175088	 0.000000
C	 0.405958	 -1.047043	 0.000000
H	 0.605090	 2.313929	 -0.000000
C	 0.984182	 0.218375	 0.000000
H	 1.035209	 -1.920602	 0.000000
C	 2.452467	 0.370529	 0.000000
O	 3.228994	 -0.533774	 0.000000
H	 2.809473	 1.405765	 0.000000

	symmetry c1
}
set optking {
	frozen_dihedral = ("
		5 3 2 1
	")
}

ee = energy('scf')
oeprop('DIPOLE', 'QUADRUPOLE', 'MULLIKEN_CHARGES')
f=open( 'psi4out.xyz', 'w' )
f.write( "15  " )
f.write( str(ee) + "\n" )
f.write( MOL.save_string_xyz() )
f.close()
--------------------------------------------------------------------------

  Memory set to   2.000 GiB by Python script.

*** tstart() called on cx1-1-3-3.cx1.hpc.ic.ac.uk
*** at Tue Jul  5 16:30:44 2016


         ---------------------------------------------------------
                                   SCF
            by Justin Turney, Rob Parrish, and Andy Simmonett
                              RHF Reference
                        1 Threads,   2000 MiB Core
         ---------------------------------------------------------

  ==> Geometry <==

    Molecular point group: c1
    Full point group: Cs

    Geometry (in Angstrom), charge = 0, multiplicity = 1:

       Center              X                  Y                   Z               Mass       
    ------------   -----------------  -----------------  -----------------  -----------------
           H         -3.573324077610     0.561379264010     0.000000000000     1.007825032070
           O         -3.107007077610    -0.263340735990     0.000000000000    15.994914619560
           C         -1.776716077610    -0.067398735990     0.000000000000    12.000000000000
           C         -1.214804077610     1.205886264010     0.000000000000    12.000000000000
           C         -0.965296077610    -1.195079735990     0.000000000000    12.000000000000
           H         -1.850846077610     2.074656264010     0.000000000000     1.007825032070
           C          0.157084922390     1.346390264010     0.000000000000    12.000000000000
           H         -1.422454077610    -2.166303735990     0.000000000000     1.007825032070
           C          0.405047922390    -1.038258735990     0.000000000000    12.000000000000
           H          0.604179922390     2.322713264010     0.000000000000     1.007825032070
           C          0.983271922390     0.227159264010     0.000000000000    12.000000000000
           H          1.034298922390    -1.911817735990     0.000000000000     1.007825032070
           C          2.451556922390     0.379313264010     0.000000000000    12.000000000000
           O          3.228083922390    -0.524989735990     0.000000000000    15.994914619560
           H          2.808562922390     1.414549264010     0.000000000000     1.007825032070

  Running in c1 symmetry.

  Rotational constants: A =      0.17260  B =      0.03360  C =      0.02813 [cm^-1]
  Rotational constants: A =   5174.29100  B =   1007.44445  C =    843.26008 [MHz]
  Nuclear repulsion =  401.368556330937281

  Charge       = 0
  Multiplicity = 1
  Electrons    = 64
  Nalpha       = 32
  Nbeta        = 32

  ==> Algorithm <==

  SCF Algorithm Type is DF.
  DIIS enabled.
  MOM disabled.
  Fractional occupation disabled.
  Guess Type is CORE.
  Energy threshold   = 1.00e-06
  Density threshold  = 1.00e-06
  Integral threshold = 0.00e+00

  ==> Primary Basis <==

  Basis Set: 6-31G*
    Number of shells: 66
    Number of basis function: 147
    Number of Cartesian functions: 147
    Spherical Harmonics?: false
    Max angular momentum: 2

  ==> Pre-Iterations <==

   -------------------------------------------------------
    Irrep   Nso     Nmo     Nalpha   Nbeta   Ndocc  Nsocc
   -------------------------------------------------------
     A        147     147       0       0       0       0
   -------------------------------------------------------
    Total     147     147      32      32      32       0
   -------------------------------------------------------

 OEINTS: Overlap, kinetic, potential, dipole, and quadrupole integrals
         stored in file 35.

  ==> Integral Setup <==

  ==> DFJK: Density-Fitted J/K Matrices <==

    J tasked:                  Yes
    K tasked:                  Yes
    wK tasked:                  No
    OpenMP threads:              1
    Integrals threads:           1
    Memory (MB):              1430
    Algorithm:                Core
    Integral Cache:           NONE
    Schwarz Cutoff:          1E-12
    Fitting Condition:       1E-12

   => Auxiliary Basis Set <=

  Basis Set: 
    Number of shells: 270
    Number of basis function: 879
    Number of Cartesian functions: 879
    Spherical Harmonics?: false
    Max angular momentum: 3

  Minimum eigenvalue in the overlap matrix is 4.0535947079E-04.
  Using Symmetric Orthogonalization.
  SCF Guess: Core (One-Electron) Hamiltonian.

  ==> Iterations <==

                           Total Energy        Delta E     RMS |[F,P]|

   @DF-RHF iter   1:  -343.06179796688775   -3.43062e+02   6.07001e-02 
   @DF-RHF iter   2:  -196.10466931414192    1.46957e+02   8.95402e-02 DIIS
   @DF-RHF iter   3:  -330.40714767005170   -1.34302e+02   4.77064e-02 DIIS
   @DF-RHF iter   4:  -282.62996813417271    4.77772e+01   6.83771e-02 DIIS
   @DF-RHF iter   5:  -391.67389341357716   -1.09044e+02   3.34176e-02 DIIS
   @DF-RHF iter   6:  -416.66039041162389   -2.49865e+01   1.29842e-02 DIIS
   @DF-RHF iter   7:  -417.70343735649374   -1.04305e+00   7.49338e-03 DIIS
   @DF-RHF iter   8:  -418.23079070317237   -5.27353e-01   2.01576e-03 DIIS
   @DF-RHF iter   9:  -418.27590756713221   -4.51169e-02   9.19906e-04 DIIS
   @DF-RHF iter  10:  -418.28674568329109   -1.08381e-02   2.73834e-04 DIIS
   @DF-RHF iter  11:  -418.28905092417051   -2.30524e-03   1.03545e-04 DIIS
   @DF-RHF iter  12:  -418.28948632926893   -4.35405e-04   5.82678e-05 DIIS
   @DF-RHF iter  13:  -418.28961083292018   -1.24504e-04   3.26063e-05 DIIS
   @DF-RHF iter  14:  -418.28967034831931   -5.95154e-05   8.62312e-06 DIIS
   @DF-RHF iter  15:  -418.28967367134771   -3.32303e-06   3.22058e-06 DIIS
   @DF-RHF iter  16:  -418.28967396044970   -2.89102e-07   1.03865e-06 DIIS
   @DF-RHF iter  17:  -418.28967398751797   -2.70683e-08   3.00668e-07 DIIS

  ==> Post-Iterations <==

    Orbital Energies (a.u.)
    -----------------------

    Doubly Occupied:                                                      

       1A    -20.611351     2A    -20.555587     3A    -11.327886  
       4A    -11.324054     5A    -11.263351     6A    -11.254000  
       7A    -11.245824     8A    -11.238688     9A    -11.237279  
      10A     -1.432411    11A     -1.396758    12A     -1.170678  
      13A     -1.043255    14A     -1.036785    15A     -0.893914  
      16A     -0.858530    17A     -0.802893    18A     -0.756455  
      19A     -0.695545    20A     -0.686652    21A     -0.639287  
      22A     -0.623724    23A     -0.609710    24A     -0.608423  
      25A     -0.581734    26A     -0.557168    27A     -0.549132  
      28A     -0.506679    29A     -0.483813    30A     -0.418326  
      31A     -0.357379    32A     -0.326820  

    Virtual:                                                              

      33A      0.096237    34A      0.128571    35A      0.208770  
      36A      0.231087    37A      0.240008    38A      0.263810  
      39A      0.304666    40A      0.324039    41A      0.333255  
      42A      0.377364    43A      0.410708    44A      0.429300  
      45A      0.455943    46A      0.490580    47A      0.533108  
      48A      0.555257    49A      0.575948    50A      0.700565  
      51A      0.718579    52A      0.721534    53A      0.752133  
      54A      0.761801    55A      0.762905    56A      0.774851  
      57A      0.806388    58A      0.809132    59A      0.824617  
      60A      0.855700    61A      0.866340    62A      0.889441  
      63A      0.891640    64A      0.935300    65A      0.983372  
      66A      1.007764    67A      1.018557    68A      1.056545  
      69A      1.082309    70A      1.098843    71A      1.106813  
      72A      1.108479    73A      1.136683    74A      1.165845  
      75A      1.182317    76A      1.201570    77A      1.224106  
      78A      1.225001    79A      1.245361    80A      1.283883  
      81A      1.303587    82A      1.338643    83A      1.358765  
      84A      1.412181    85A      1.454157    86A      1.474905  
      87A      1.481167    88A      1.553460    89A      1.565593  
      90A      1.599997    91A      1.627286    92A      1.654916  
      93A      1.713184    94A      1.717968    95A      1.729805  
      96A      1.770406    97A      1.830888    98A      1.854368  
      99A      1.940069   100A      2.008561   101A      2.029644  
     102A      2.045514   103A      2.070541   104A      2.077415  
     105A      2.149053   106A      2.168519   107A      2.225215  
     108A      2.245724   109A      2.264582   110A      2.303808  
     111A      2.355896   112A      2.368944   113A      2.398177  
     114A      2.410270   115A      2.448624   116A      2.454706  
     117A      2.577504   118A      2.606817   119A      2.632246  
     120A      2.638975   121A      2.681921   122A      2.733998  
     123A      2.748909   124A      2.834062   125A      2.881410  
     126A      2.944454   127A      2.953399   128A      3.011630  
     129A      3.028001   130A      3.036161   131A      3.103030  
     132A      3.181566   133A      3.253133   134A      3.300050  
     135A      3.361089   136A      3.407656   137A      3.558697  
     138A      3.835038   139A      4.331748   140A      4.358233  
     141A      4.515498   142A      4.535206   143A      4.588347  
     144A      4.683719   145A      4.742313   146A      4.895339  
     147A      5.178421  

    Final Occupation by Irrep:
              A 
    DOCC [    32 ]

  Energy converged.

  @DF-RHF Final Energy:  -418.28967398751797

   => Energetics <=

    Nuclear Repulsion Energy =            401.3685563309372810
    One-Electron Energy =               -1365.1284821403903607
    Two-Electron Energy =                 545.4702518219357898
    DFT Exchange-Correlation Energy =       0.0000000000000000
    Empirical Dispersion Energy =           0.0000000000000000
    PCM Polarization Energy =               0.0000000000000000
    EFP Energy =                            0.0000000000000000
    Total Energy =                       -418.2896739875172898

    Alert: EFP and PCM quantities not currently incorporated into SCF psivars.

Properties will be evaluated at   0.000000,   0.000000,   0.000000 Bohr
  ==> Properties <==


Properties computed using the SCF density matrix

  Nuclear Dipole Moment: (a.u.)
     X:    -2.2490      Y:     2.1479      Z:     0.0000

  Electronic Dipole Moment: (a.u.)
     X:     0.9486      Y:    -0.9164      Z:    -0.0000

  Dipole Moment: (a.u.)
     X:    -1.3003      Y:     1.2315      Z:    -0.0000     Total:     1.7909

  Dipole Moment: (Debye)
     X:    -3.3051      Y:     3.1301      Z:    -0.0000     Total:     4.5520


  Saving occupied orbitals to File 180.

*** tstop() called on cx1-1-3-3.cx1.hpc.ic.ac.uk at Tue Jul  5 16:30:59 2016
Module time:
	user time   =      14.88 seconds =       0.25 minutes
	system time =       0.09 seconds =       0.00 minutes
	total time  =         15 seconds =       0.25 minutes
Total time:
	user time   =      14.88 seconds =       0.25 minutes
	system time =       0.09 seconds =       0.00 minutes
	total time  =         15 seconds =       0.25 minutes


Properties will be evaluated at   0.000000,   0.000000,   0.000000 Bohr

Properties computed using the  density matrix

  Nuclear Dipole Moment: (a.u.)
     X:    -2.2490      Y:     2.1479      Z:     0.0000

  Electronic Dipole Moment: (a.u.)
     X:     0.9486      Y:    -0.9164      Z:    -0.0000

  Dipole Moment: (a.u.)
     X:    -1.3003      Y:     1.2315      Z:    -0.0000     Total:     1.7909

  Dipole Moment: (Debye)
     X:    -3.3051      Y:     3.1301      Z:    -0.0000     Total:     4.5520

  Quadrupole Moment: (Debye Ang)
    XX:   -58.2237     YY:   -44.9207     ZZ:   -54.1440
    XY:    -0.2370     XZ:    -0.0000     YZ:    -0.0000

  Traceless Quadrupole Moment: (Debye Ang)
    XX:    -5.7942     YY:     7.5087     ZZ:    -1.7145
    XY:    -0.2370     XZ:    -0.0000     YZ:    -0.0000

  Mulliken Charges: (a.u.)
   Center  Symbol    Alpha    Beta     Spin     Total
       1     H     0.26878  0.26878  0.00000  0.46243
       2     O     4.37259  4.37259  0.00000 -0.74518
       3     C     2.78462  2.78462  0.00000  0.43076
       4     C     3.14899  3.14899  0.00000 -0.29798
       5     C     3.12740  3.12740  0.00000 -0.25480
       6     H     0.39914  0.39914  0.00000  0.20172
       7     C     3.09019  3.09019  0.00000 -0.18037
       8     H     0.38534  0.38534  0.00000  0.22931
       9     C     3.07935  3.07935  0.00000 -0.15870
      10     H     0.38957  0.38957  0.00000  0.22086
      11     C     3.06872  3.06872  0.00000 -0.13744
      12     H     0.37503  0.37503  0.00000  0.24994
      13     C     2.83057  2.83057  0.00000  0.33886
      14     O     4.25393  4.25393  0.00000 -0.50787
      15     H     0.42578  0.42578  0.00000  0.14844

   Total alpha = 32.00000, Total beta = 32.00000, Total charge =  0.00000


*** PSI4 exiting successfully. Buy a developer a beer!
