    -----------------------------------------------------------------------
          Psi4: An Open-Source Ab Initio Electronic Structure Package
                              Psi4 (no tag) Driver

                          Git: Rev {detached?}  

    J. M. Turney, A. C. Simmonett, R. M. Parrish, E. G. Hohenstein,
    F. A. Evangelista, J. T. Fermann, B. J. Mintz, L. A. Burns, J. J. Wilke,
    M. L. Abrams, N. J. Russ, M. L. Leininger, C. L. Janssen, E. T. Seidl,
    W. D. Allen, H. F. Schaefer, R. A. King, E. F. Valeev, C. D. Sherrill,
    and T. D. Crawford, WIREs Comput. Mol. Sci. 2, 556-565 (2012)
    (doi: 10.1002/wcms.93)

                         Additional Contributions by
    A. E. DePrince, M. Saitow, U. Bozkaya, A. Yu. Sokolov
    -----------------------------------------------------------------------


    Psi4 started on: Tue Jul  5 16:29:11 2016

    Process ID:   9748
    PSI4DATADIR: /export131/home/mjharvey/miniconda3/share
    Memory level set to 256.000 MB

  ==> Input File <==

--------------------------------------------------------------------------
set {
	reference rhf
	basis 6-31G*
}


set_num_threads( 1 )
memory 2 gb

molecule MOL {
0 1

H	 0.997806	 1.405155	 -1.826943
C	 0.557503	 1.679937	 -0.867300
N	 0.538815	 0.649616	 0.000000
O	 0.149642	 2.782748	 -0.651275
C	 1.521968	 -0.411503	 0.000000
H	 -0.192644	 0.624219	 0.672761
H	 2.150599	 -0.357004	 -0.881901
H	 0.999455	 -1.354525	 0.000000
H	 2.150599	 -0.357004	 0.881901

	symmetry c1
}
set optking {
	frozen_dihedral = ("
		6 3 5 7
	")
}

ee = energy('scf')
oeprop('DIPOLE', 'QUADRUPOLE', 'MULLIKEN_CHARGES')
f=open( 'psi4out.xyz', 'w' )
f.write( "9  " )
f.write( str(ee) + "\n" )
f.write( MOL.save_string_xyz() )
f.close()
--------------------------------------------------------------------------

  Memory set to   2.000 GiB by Python script.

*** tstart() called on cx1-1-4-3.cx1.hpc.ic.ac.uk
*** at Tue Jul  5 16:29:12 2016


         ---------------------------------------------------------
                                   SCF
            by Justin Turney, Rob Parrish, and Andy Simmonett
                              RHF Reference
                        1 Threads,   2000 MiB Core
         ---------------------------------------------------------

  ==> Geometry <==

    Molecular point group: c1
    Full point group: C1

    Geometry (in Angstrom), charge = 0, multiplicity = 1:

       Center              X                  Y                   Z               Mass       
    ------------   -----------------  -----------------  -----------------  -----------------
           H          0.302551440618     0.239986587112    -1.454500986486     1.007825032070
           C         -0.137751559382     0.514768587112    -0.494857986486    12.000000000000
           N         -0.156439559382    -0.515552412888     0.372442013514    14.003074004780
           O         -0.545612559382     1.617579587112    -0.278832986486    15.994914619560
           C          0.826713440618    -1.576671412888     0.372442013514    12.000000000000
           H         -0.887898559382    -0.540949412888     1.045203013514     1.007825032070
           H          1.455344440618    -1.522172412888    -0.509458986486     1.007825032070
           H          0.304200440618    -2.519693412888     0.372442013514     1.007825032070
           H          1.455344440618    -1.522172412888     1.254343013514     1.007825032070

  Running in c1 symmetry.

  Rotational constants: A =      1.37158  B =      0.14987  C =      0.14187 [cm^-1]
  Rotational constants: A =  41118.89989  B =   4492.90678  C =   4253.25864 [MHz]
  Nuclear repulsion =  120.437202428482422

  Charge       = 0
  Multiplicity = 1
  Electrons    = 32
  Nalpha       = 16
  Nbeta        = 16

  ==> Algorithm <==

  SCF Algorithm Type is DF.
  DIIS enabled.
  MOM disabled.
  Fractional occupation disabled.
  Guess Type is CORE.
  Energy threshold   = 1.00e-06
  Density threshold  = 1.00e-06
  Integral threshold = 0.00e+00

  ==> Primary Basis <==

  Basis Set: 6-31G*
    Number of shells: 34
    Number of basis function: 70
    Number of Cartesian functions: 70
    Spherical Harmonics?: false
    Max angular momentum: 2

  ==> Pre-Iterations <==

   -------------------------------------------------------
    Irrep   Nso     Nmo     Nalpha   Nbeta   Ndocc  Nsocc
   -------------------------------------------------------
     A         70      70       0       0       0       0
   -------------------------------------------------------
    Total      70      70      16      16      16       0
   -------------------------------------------------------

 OEINTS: Overlap, kinetic, potential, dipole, and quadrupole integrals
         stored in file 35.

  ==> Integral Setup <==

  ==> DFJK: Density-Fitted J/K Matrices <==

    J tasked:                  Yes
    K tasked:                  Yes
    wK tasked:                  No
    OpenMP threads:              1
    Integrals threads:           1
    Memory (MB):              1430
    Algorithm:                Core
    Integral Cache:           NONE
    Schwarz Cutoff:          1E-12
    Fitting Condition:       1E-12

   => Auxiliary Basis Set <=

  Basis Set: 
    Number of shells: 141
    Number of basis function: 449
    Number of Cartesian functions: 449
    Spherical Harmonics?: false
    Max angular momentum: 3

  Minimum eigenvalue in the overlap matrix is 4.8990342902E-03.
  Using Symmetric Orthogonalization.
  SCF Guess: Core (One-Electron) Hamiltonian.

  ==> Iterations <==

                           Total Energy        Delta E     RMS |[F,P]|

   @DF-RHF iter   1:  -166.40909762654968   -1.66409e+02   9.40457e-02 
   @DF-RHF iter   2:  -127.94787345721055    3.84612e+01   8.23126e-02 DIIS
   @DF-RHF iter   3:  -187.93689750098105   -5.99890e+01   6.19524e-02 DIIS
   @DF-RHF iter   4:  -207.12309556623359   -1.91862e+01   1.89516e-02 DIIS
   @DF-RHF iter   5:  -207.76653268990373   -6.43437e-01   8.64333e-03 DIIS
   @DF-RHF iter   6:  -207.92911514879455   -1.62582e-01   2.32015e-03 DIIS
   @DF-RHF iter   7:  -207.94692337254452   -1.78082e-02   8.07958e-04 DIIS
   @DF-RHF iter   8:  -207.94893993926013   -2.01657e-03   3.92393e-04 DIIS
   @DF-RHF iter   9:  -207.94940537407564   -4.65435e-04   1.31447e-04 DIIS
   @DF-RHF iter  10:  -207.94949747039237   -9.20963e-05   3.47188e-05 DIIS
   @DF-RHF iter  11:  -207.94950479164680   -7.32125e-06   1.18481e-05 DIIS
   @DF-RHF iter  12:  -207.94950578779805   -9.96151e-07   5.21762e-06 DIIS
   @DF-RHF iter  13:  -207.94950595267977   -1.64882e-07   8.43117e-07 DIIS

  ==> Post-Iterations <==

    Orbital Energies (a.u.)
    -----------------------

    Doubly Occupied:                                                      

       1A    -20.530712     2A    -15.582963     3A    -11.344480  
       4A    -11.274958     5A     -1.389888     6A     -1.238141  
       7A     -0.964621     8A     -0.844379     9A     -0.692990  
      10A     -0.674641    11A     -0.634832    12A     -0.596866  
      13A     -0.573942    14A     -0.530987    15A     -0.425383  
      16A     -0.387318  

    Virtual:                                                              

      17A      0.193240    18A      0.241068    19A      0.246789  
      20A      0.295677    21A      0.305184    22A      0.318570  
      23A      0.372977    24A      0.445313    25A      0.577017  
      26A      0.692916    27A      0.721609    28A      0.758013  
      29A      0.821636    30A      0.856029    31A      0.963680  
      32A      0.991783    33A      1.024579    34A      1.051289  
      35A      1.098706    36A      1.126090    37A      1.138653  
      38A      1.175124    39A      1.209529    40A      1.215850  
      41A      1.310173    42A      1.317881    43A      1.395531  
      44A      1.436156    45A      1.577339    46A      1.703091  
      47A      1.743445    48A      1.831417    49A      1.881343  
      50A      2.084777    51A      2.137868    52A      2.145351  
      53A      2.218426    54A      2.293635    55A      2.354163  
      56A      2.433677    57A      2.516447    58A      2.584128  
      59A      2.640426    60A      2.725558    61A      2.872895  
      62A      2.909886    63A      3.025043    64A      3.192718  
      65A      3.330748    66A      3.442634    67A      4.286721  
      68A      4.315178    69A      4.638749    70A      4.691359  

    Final Occupation by Irrep:
              A 
    DOCC [    16 ]

  Energy converged.

  @DF-RHF Final Energy:  -207.94950595267977

   => Energetics <=

    Nuclear Repulsion Energy =            120.4372024284824221
    One-Electron Energy =                -521.3991963602879878
    Two-Electron Energy =                 193.0124879791258365
    DFT Exchange-Correlation Energy =       0.0000000000000000
    Empirical Dispersion Energy =           0.0000000000000000
    PCM Polarization Energy =               0.0000000000000000
    EFP Energy =                            0.0000000000000000
    Total Energy =                       -207.9495059526797434

    Alert: EFP and PCM quantities not currently incorporated into SCF psivars.

Properties will be evaluated at   0.000000,   0.000000,   0.000000 Bohr
  ==> Properties <==


Properties computed using the SCF density matrix

  Nuclear Dipole Moment: (a.u.)
     X:     2.4629      Y:    -5.4890      Z:     0.6613

  Electronic Dipole Moment: (a.u.)
     X:    -2.0261      Y:     3.9141      Z:    -0.5290

  Dipole Moment: (a.u.)
     X:     0.4368      Y:    -1.5749      Z:     0.1324     Total:     1.6397

  Dipole Moment: (Debye)
     X:     1.1102      Y:    -4.0029      Z:     0.3364     Total:     4.1676


  Saving occupied orbitals to File 180.

*** tstop() called on cx1-1-4-3.cx1.hpc.ic.ac.uk at Tue Jul  5 16:29:15 2016
Module time:
	user time   =       3.38 seconds =       0.06 minutes
	system time =       0.02 seconds =       0.00 minutes
	total time  =          3 seconds =       0.05 minutes
Total time:
	user time   =       3.38 seconds =       0.06 minutes
	system time =       0.02 seconds =       0.00 minutes
	total time  =          3 seconds =       0.05 minutes


Properties will be evaluated at   0.000000,   0.000000,   0.000000 Bohr

Properties computed using the  density matrix

  Nuclear Dipole Moment: (a.u.)
     X:     2.4629      Y:    -5.4890      Z:     0.6613

  Electronic Dipole Moment: (a.u.)
     X:    -2.0261      Y:     3.9141      Z:    -0.5290

  Dipole Moment: (a.u.)
     X:     0.4368      Y:    -1.5749      Z:     0.1324     Total:     1.6397

  Dipole Moment: (Debye)
     X:     1.1102      Y:    -4.0029      Z:     0.3364     Total:     4.1676

  Quadrupole Moment: (Debye Ang)
    XX:   -23.1780     YY:   -29.0220     ZZ:   -22.3969
    XY:     1.4756     XZ:    -1.5680     YZ:    -0.3851

  Traceless Quadrupole Moment: (Debye Ang)
    XX:     1.6876     YY:    -4.1564     ZZ:     2.4687
    XY:     1.4756     XZ:    -1.5680     YZ:    -0.3851

  Mulliken Charges: (a.u.)
   Center  Symbol    Alpha    Beta     Spin     Total
       1     H     0.43171  0.43171  0.00000  0.13657
       2     C     2.74608  2.74608  0.00000  0.50783
       3     N     3.87486  3.87486  0.00000 -0.74972
       4     O     4.27313  4.27313  0.00000 -0.54627
       5     C     3.14138  3.14138  0.00000 -0.28275
       6     H     0.30389  0.30389  0.00000  0.39223
       7     H     0.40886  0.40886  0.00000  0.18228
       8     H     0.41196  0.41196  0.00000  0.17608
       9     H     0.40813  0.40813  0.00000  0.18374

   Total alpha = 16.00000, Total beta = 16.00000, Total charge = -0.00000


*** PSI4 exiting successfully. Buy a developer a beer!
