    -----------------------------------------------------------------------
          Psi4: An Open-Source Ab Initio Electronic Structure Package
                              Psi4 (no tag) Driver

                          Git: Rev {detached?}  

    J. M. Turney, A. C. Simmonett, R. M. Parrish, E. G. Hohenstein,
    F. A. Evangelista, J. T. Fermann, B. J. Mintz, L. A. Burns, J. J. Wilke,
    M. L. Abrams, N. J. Russ, M. L. Leininger, C. L. Janssen, E. T. Seidl,
    W. D. Allen, H. F. Schaefer, R. A. King, E. F. Valeev, C. D. Sherrill,
    and T. D. Crawford, WIREs Comput. Mol. Sci. 2, 556-565 (2012)
    (doi: 10.1002/wcms.93)

                         Additional Contributions by
    A. E. DePrince, M. Saitow, U. Bozkaya, A. Yu. Sokolov
    -----------------------------------------------------------------------


    Psi4 started on: Tue Jul  5 16:33:52 2016

    Process ID:  22125
    PSI4DATADIR: /export131/home/mjharvey/miniconda3/share
    Memory level set to 256.000 MB

  ==> Input File <==

--------------------------------------------------------------------------
set {
	reference rhf
	basis 6-31G*
}


set_num_threads( 1 )
memory 2 gb

molecule MOL {
0 1

H	 2.591676	 2.013956	 0.335017
O	 3.341076	 1.666752	 -0.126416
C	 3.569581	 0.339145	 0.272707
C	 2.539767	 -0.640285	 -0.279495
H	 4.553106	 0.084646	 -0.100901
H	 3.608576	 0.269204	 1.359154
C	 1.115811	 -0.397273	 0.226630
H	 2.556196	 -0.582511	 -1.364741
H	 2.852081	 -1.648031	 -0.010655
C	 0.115918	 -1.429151	 -0.302766
H	 0.797950	 0.599468	 -0.066350
H	 1.109961	 -0.420744	 1.316472
C	 -0.540449	 -2.301078	 0.773927
H	 -0.657772	 -0.918148	 -0.872965
H	 0.630361	 -2.080172	 -1.006485
C	 -1.466685	 -1.550491	 1.734751
H	 -1.113949	 -3.081822	 0.278596
H	 0.234023	 -2.811554	 1.344404
C	 -2.178584	 -2.477331	 2.722478
H	 -2.210378	 -1.000232	 1.160079
H	 -0.903154	 -0.807654	 2.294151
C	 -3.098877	 -1.729939	 3.686911
H	 -2.757226	 -3.215053	 2.170728
H	 -1.437152	 -3.035116	 3.290844
H	 -3.872204	 -1.187741	 3.150058
H	 -3.589945	 -2.413858	 4.372287
H	 -2.543285	 -1.009416	 4.280652

	symmetry c1
}
set optking {
	frozen_dihedral = ("
		14 10 13 16,
		10 7 4 8,
		8 4 3 2,
		10 13 16 20,
		20 16 19 22,
		4 3 2 1
	")
}

ee = energy('scf')
oeprop('DIPOLE', 'QUADRUPOLE', 'MULLIKEN_CHARGES')
f=open( 'psi4out.xyz', 'w' )
f.write( "27  " )
f.write( str(ee) + "\n" )
f.write( MOL.save_string_xyz() )
f.close()
--------------------------------------------------------------------------

  Memory set to   2.000 GiB by Python script.

*** tstart() called on cx1-3-4-2.cx1.hpc.ic.ac.uk
*** at Tue Jul  5 16:33:52 2016


         ---------------------------------------------------------
                                   SCF
            by Justin Turney, Rob Parrish, and Andy Simmonett
                              RHF Reference
                        1 Threads,   2000 MiB Core
         ---------------------------------------------------------

  ==> Geometry <==

    Molecular point group: c1
    Full point group: C1

    Geometry (in Angstrom), charge = 0, multiplicity = 1:

       Center              X                  Y                   Z               Mass       
    ------------   -----------------  -----------------  -----------------  -----------------
           H          2.176988372509     2.912927154934    -0.633983745765     1.007825032070
           O          2.926388372509     2.565723154934    -1.095416745765    15.994914619560
           C          3.154893372509     1.238116154934    -0.696293745765    12.000000000000
           C          2.125079372509     0.258686154934    -1.248495745765    12.000000000000
           H          4.138418372509     0.983617154934    -1.069901745765     1.007825032070
           H          3.193888372509     1.168175154934     0.390153254235     1.007825032070
           C          0.701123372509     0.501698154934    -0.742370745765    12.000000000000
           H          2.141508372509     0.316460154934    -2.333741745765     1.007825032070
           H          2.437393372509    -0.749059845066    -0.979655745765     1.007825032070
           C         -0.298769627491    -0.530179845066    -1.271766745765    12.000000000000
           H          0.383262372509     1.498439154934    -1.035350745765     1.007825032070
           H          0.695273372509     0.478227154934     0.347471254235     1.007825032070
           C         -0.955136627491    -1.402106845066    -0.195073745765    12.000000000000
           H         -1.072459627491    -0.019176845066    -1.841965745765     1.007825032070
           H          0.215673372509    -1.181200845066    -1.975485745765     1.007825032070
           C         -1.881372627491    -0.651519845066     0.765750254235    12.000000000000
           H         -1.528636627491    -2.182850845066    -0.690404745765     1.007825032070
           H         -0.180664627491    -1.912582845066     0.375403254235     1.007825032070
           C         -2.593271627491    -1.578359845066     1.753477254235    12.000000000000
           H         -2.625065627491    -0.101260845066     0.191078254235     1.007825032070
           H         -1.317841627491     0.091317154934     1.325150254235     1.007825032070
           C         -3.513564627491    -0.830967845066     2.717910254235    12.000000000000
           H         -3.171913627491    -2.316081845066     1.201727254235     1.007825032070
           H         -1.851839627491    -2.136144845066     2.321843254235     1.007825032070
           H         -4.286891627491    -0.288769845066     2.181057254235     1.007825032070
           H         -4.004632627491    -1.514886845066     3.403286254235     1.007825032070
           H         -2.957972627491    -0.110444845066     3.311651254235     1.007825032070

  Running in c1 symmetry.

  Rotational constants: A =      0.11357  B =      0.01545  C =      0.01445 [cm^-1]
  Rotational constants: A =   3404.61126  B =    463.05196  C =    433.17700 [MHz]
  Nuclear repulsion =  459.913507859903405

  Charge       = 0
  Multiplicity = 1
  Electrons    = 74
  Nalpha       = 37
  Nbeta        = 37

  ==> Algorithm <==

  SCF Algorithm Type is DF.
  DIIS enabled.
  MOM disabled.
  Fractional occupation disabled.
  Guess Type is CORE.
  Energy threshold   = 1.00e-06
  Density threshold  = 1.00e-06
  Integral threshold = 0.00e+00

  ==> Primary Basis <==

  Basis Set: 6-31G*
    Number of shells: 90
    Number of basis function: 171
    Number of Cartesian functions: 171
    Spherical Harmonics?: false
    Max angular momentum: 2

  ==> Pre-Iterations <==

   -------------------------------------------------------
    Irrep   Nso     Nmo     Nalpha   Nbeta   Ndocc  Nsocc
   -------------------------------------------------------
     A        171     171       0       0       0       0
   -------------------------------------------------------
    Total     171     171      37      37      37       0
   -------------------------------------------------------

 OEINTS: Overlap, kinetic, potential, dipole, and quadrupole integrals
         stored in file 35.

  ==> Integral Setup <==

  ==> DFJK: Density-Fitted J/K Matrices <==

    J tasked:                  Yes
    K tasked:                  Yes
    wK tasked:                  No
    OpenMP threads:              1
    Integrals threads:           1
    Memory (MB):              1430
    Algorithm:                Core
    Integral Cache:           NONE
    Schwarz Cutoff:          1E-12
    Fitting Condition:       1E-12

   => Auxiliary Basis Set <=

  Basis Set: 
    Number of shells: 378
    Number of basis function: 1179
    Number of Cartesian functions: 1179
    Spherical Harmonics?: false
    Max angular momentum: 3

  Minimum eigenvalue in the overlap matrix is 3.4769483986E-03.
  Using Symmetric Orthogonalization.
  SCF Guess: Core (One-Electron) Hamiltonian.

  ==> Iterations <==

                           Total Energy        Delta E     RMS |[F,P]|

   @DF-RHF iter   1:  -287.70977628772749   -2.87710e+02   5.83649e-02 
   @DF-RHF iter   2:    12.88538146910270    3.00595e+02   6.60543e-02 DIIS
   @DF-RHF iter   3:  -251.49080720635999   -2.64376e+02   5.04652e-02 DIIS
   @DF-RHF iter   4:  -237.68622856564303    1.38046e+01   6.41871e-02 DIIS
   @DF-RHF iter   5:  -375.17904293700900   -1.37493e+02   1.74760e-02 DIIS
   @DF-RHF iter   6:  -326.01030542463894    4.91687e+01   4.48453e-02 DIIS
   @DF-RHF iter   7:  -384.73312684329466   -5.87228e+01   1.03500e-02 DIIS
   @DF-RHF iter   8:  -388.14812778180880   -3.41500e+00   2.95592e-03 DIIS
   @DF-RHF iter   9:  -388.26142562588524   -1.13298e-01   9.34416e-04 DIIS
   @DF-RHF iter  10:  -388.27441774018206   -1.29921e-02   2.68423e-04 DIIS
   @DF-RHF iter  11:  -388.27569904704927   -1.28131e-03   1.40789e-04 DIIS
   @DF-RHF iter  12:  -388.27610730414671   -4.08257e-04   5.23266e-05 DIIS
   @DF-RHF iter  13:  -388.27617252289798   -6.52188e-05   1.68266e-05 DIIS
   @DF-RHF iter  14:  -388.27617995441193   -7.43151e-06   4.33566e-06 DIIS
   @DF-RHF iter  15:  -388.27618050468851   -5.50277e-07   7.81183e-07 DIIS

  ==> Post-Iterations <==

    Orbital Energies (a.u.)
    -----------------------

    Doubly Occupied:                                                      

       1A    -20.552029     2A    -11.266496     3A    -11.218392  
       4A    -11.216711     5A    -11.216432     6A    -11.215504  
       7A    -11.215409     8A    -11.214893     9A    -11.210080  
      10A     -1.358755    11A     -1.095847    12A     -1.061678  
      13A     -1.011055    14A     -0.948910    15A     -0.887844  
      16A     -0.822727    17A     -0.803324    18A     -0.774687  
      19A     -0.692980    20A     -0.657376    21A     -0.631484  
      22A     -0.615799    23A     -0.599306    24A     -0.586284  
      25A     -0.579902    26A     -0.550155    27A     -0.545342  
      28A     -0.530016    29A     -0.504101    30A     -0.501882  
      31A     -0.484095    32A     -0.474689    33A     -0.464960  
      34A     -0.456994    35A     -0.452881    36A     -0.442348  
      37A     -0.422517  

    Virtual:                                                              

      38A      0.217072    39A      0.233049    40A      0.246362  
      41A      0.254608    42A      0.266064    43A      0.276495  
      44A      0.286586    45A      0.299684    46A      0.311268  
      47A      0.311949    48A      0.322312    49A      0.329562  
      50A      0.338297    51A      0.343083    52A      0.353703  
      53A      0.355383    54A      0.362714    55A      0.386912  
      56A      0.410202    57A      0.416398    58A      0.422176  
      59A      0.429425    60A      0.459196    61A      0.468636  
      62A      0.476129    63A      0.501783    64A      0.695766  
      65A      0.705132    66A      0.713515    67A      0.737421  
      68A      0.753153    69A      0.771976    70A      0.792700  
      71A      0.796175    72A      0.821166    73A      0.826266  
      74A      0.860143    75A      0.907319    76A      0.918625  
      77A      0.929671    78A      0.939101    79A      0.955279  
      80A      0.969550    81A      1.008262    82A      1.022754  
      83A      1.051967    84A      1.084205    85A      1.095138  
      86A      1.106934    87A      1.128312    88A      1.140313  
      89A      1.151289    90A      1.163164    91A      1.170796  
      92A      1.174547    93A      1.180721    94A      1.186542  
      95A      1.193785    96A      1.205080    97A      1.212128  
      98A      1.217870    99A      1.222578   100A      1.228137  
     101A      1.239640   102A      1.261323   103A      1.267556  
     104A      1.283144   105A      1.300808   106A      1.323041  
     107A      1.339381   108A      1.392860   109A      1.427672  
     110A      1.481531   111A      1.567038   112A      1.634584  
     113A      1.675223   114A      1.712209   115A      1.737404  
     116A      1.749738   117A      1.779510   118A      1.843119  
     119A      1.854764   120A      1.906748   121A      1.972186  
     122A      1.996747   123A      2.007477   124A      2.074883  
     125A      2.092116   126A      2.114394   127A      2.145481  
     128A      2.165752   129A      2.203911   130A      2.235312  
     131A      2.255207   132A      2.283932   133A      2.287975  
     134A      2.304590   135A      2.308482   136A      2.334105  
     137A      2.382134   138A      2.388886   139A      2.462986  
     140A      2.469692   141A      2.488549   142A      2.571231  
     143A      2.607297   144A      2.618486   145A      2.624581  
     146A      2.680308   147A      2.710898   148A      2.716629  
     149A      2.737247   150A      2.745645   151A      2.759692  
     152A      2.807614   153A      2.834911   154A      2.885496  
     155A      2.930265   156A      2.959499   157A      2.993871  
     158A      3.059907   159A      3.104434   160A      3.125338  
     161A      3.169606   162A      3.220090   163A      4.185731  
     164A      4.546882   165A      4.605675   166A      4.679428  
     167A      4.765207   168A      4.813113   169A      4.881319  
     170A      4.979704   171A      5.005093  

    Final Occupation by Irrep:
              A 
    DOCC [    37 ]

  Energy converged.

  @DF-RHF Final Energy:  -388.27618050468851

   => Energetics <=

    Nuclear Repulsion Energy =            459.9135078599034046
    One-Electron Energy =               -1437.8111637656134008
    Two-Electron Energy =                 589.6214754010225079
    DFT Exchange-Correlation Energy =       0.0000000000000000
    Empirical Dispersion Energy =           0.0000000000000000
    PCM Polarization Energy =               0.0000000000000000
    EFP Energy =                            0.0000000000000000
    Total Energy =                       -388.2761805046875452

    Alert: EFP and PCM quantities not currently incorporated into SCF psivars.

Properties will be evaluated at   0.000000,   0.000000,   0.000000 Bohr
  ==> Properties <==


Properties computed using the SCF density matrix

  Nuclear Dipole Moment: (a.u.)
     X:    -7.1252      Y:    -4.7344      Z:     4.2024

  Electronic Dipole Moment: (a.u.)
     X:     6.6707      Y:     4.3203      Z:    -3.7802

  Dipole Moment: (a.u.)
     X:    -0.4545      Y:    -0.4141      Z:     0.4222     Total:     0.7459

  Dipole Moment: (Debye)
     X:    -1.1553      Y:    -1.0526      Z:     1.0730     Total:     1.8958


  Saving occupied orbitals to File 180.

*** tstop() called on cx1-3-4-2.cx1.hpc.ic.ac.uk at Tue Jul  5 16:34:25 2016
Module time:
	user time   =      31.81 seconds =       0.53 minutes
	system time =       0.29 seconds =       0.00 minutes
	total time  =         33 seconds =       0.55 minutes
Total time:
	user time   =      31.81 seconds =       0.53 minutes
	system time =       0.29 seconds =       0.00 minutes
	total time  =         33 seconds =       0.55 minutes


Properties will be evaluated at   0.000000,   0.000000,   0.000000 Bohr

Properties computed using the  density matrix

  Nuclear Dipole Moment: (a.u.)
     X:    -7.1252      Y:    -4.7344      Z:     4.2024

  Electronic Dipole Moment: (a.u.)
     X:     6.6707      Y:     4.3203      Z:    -3.7802

  Dipole Moment: (a.u.)
     X:    -0.4545      Y:    -0.4141      Z:     0.4222     Total:     0.7459

  Dipole Moment: (Debye)
     X:    -1.1553      Y:    -1.0526      Z:     1.0730     Total:     1.8958

  Quadrupole Moment: (Debye Ang)
    XX:   -65.5813     YY:   -63.5492     ZZ:   -62.4786
    XY:    -6.6033     XZ:     4.4320     YZ:     3.9566

  Traceless Quadrupole Moment: (Debye Ang)
    XX:    -1.7116     YY:     0.3205     ZZ:     1.3911
    XY:    -6.6033     XZ:     4.4320     YZ:     3.9566

  Mulliken Charges: (a.u.)
   Center  Symbol    Alpha    Beta     Spin     Total
       1     H     0.27996  0.27996  0.00000  0.44009
       2     O     4.37104  4.37104  0.00000 -0.74208
       3     C     2.99750  2.99750  0.00000  0.00500
       4     C     3.16398  3.16398  0.00000 -0.32797
       5     H     0.41467  0.41467  0.00000  0.17066
       6     H     0.43222  0.43222  0.00000  0.13555
       7     C     3.16387  3.16387  0.00000 -0.32773
       8     H     0.41442  0.41442  0.00000  0.17116
       9     H     0.42409  0.42409  0.00000  0.15183
      10     C     3.15594  3.15594  0.00000 -0.31188
      11     H     0.42227  0.42227  0.00000  0.15547
      12     H     0.42220  0.42220  0.00000  0.15561
      13     C     3.15535  3.15535  0.00000 -0.31070
      14     H     0.42009  0.42009  0.00000  0.15982
      15     H     0.41763  0.41763  0.00000  0.16475
      16     C     3.15197  3.15197  0.00000 -0.30394
      17     H     0.42156  0.42156  0.00000  0.15688
      18     H     0.42448  0.42448  0.00000  0.15104
      19     C     3.15124  3.15124  0.00000 -0.30247
      20     H     0.42408  0.42408  0.00000  0.15183
      21     H     0.42343  0.42343  0.00000  0.15313
      22     C     3.23924  3.23924  0.00000 -0.47847
      23     H     0.42260  0.42260  0.00000  0.15480
      24     H     0.42324  0.42324  0.00000  0.15351
      25     H     0.42160  0.42160  0.00000  0.15679
      26     H     0.41908  0.41908  0.00000  0.16184
      27     H     0.42225  0.42225  0.00000  0.15550

   Total alpha = 37.00000, Total beta = 37.00000, Total charge =  0.00000


*** PSI4 exiting successfully. Buy a developer a beer!
