    -----------------------------------------------------------------------
          Psi4: An Open-Source Ab Initio Electronic Structure Package
                              Psi4 (no tag) Driver

                          Git: Rev {detached?}  

    J. M. Turney, A. C. Simmonett, R. M. Parrish, E. G. Hohenstein,
    F. A. Evangelista, J. T. Fermann, B. J. Mintz, L. A. Burns, J. J. Wilke,
    M. L. Abrams, N. J. Russ, M. L. Leininger, C. L. Janssen, E. T. Seidl,
    W. D. Allen, H. F. Schaefer, R. A. King, E. F. Valeev, C. D. Sherrill,
    and T. D. Crawford, WIREs Comput. Mol. Sci. 2, 556-565 (2012)
    (doi: 10.1002/wcms.93)

                         Additional Contributions by
    A. E. DePrince, M. Saitow, U. Bozkaya, A. Yu. Sokolov
    -----------------------------------------------------------------------


    Psi4 started on: Tue Jul  5 16:35:05 2016

    Process ID:  29693
    PSI4DATADIR: /export131/home/mjharvey/miniconda3/share
    Memory level set to 256.000 MB

  ==> Input File <==

--------------------------------------------------------------------------
set {
	reference rhf
	basis 6-31G*
}


set_num_threads( 1 )
memory 2 gb

molecule MOL {
0 1

H	 -1.810395	 -0.051506	 -2.225741
C	 -1.304871	 -0.060995	 -1.280351
C	 -1.944758	 0.393825	 -0.079847
C	 -0.044196	 -0.502103	 -1.182679
H	 -2.957238	 0.754160	 -0.125533
C	 -1.292112	 0.372390	 1.091074
H	 0.504758	 -0.859179	 -2.033297
N	 0.640212	 -0.532897	 -0.000111
H	 -1.738099	 0.704242	 2.008312
C	 0.079694	 -0.107700	 1.197096
C	 2.010177	 -1.032049	 0.000042
O	 0.700628	 -0.143153	 2.230242
H	 2.187698	 -1.635381	 -0.882279
H	 2.677579	 -0.189247	 -0.001871
H	 2.188882	 -1.632203	 0.884288

	symmetry c1
}
ee = energy('scf')
oeprop('DIPOLE', 'QUADRUPOLE', 'MULLIKEN_CHARGES')
f=open( 'psi4out.xyz', 'w' )
f.write( "15  " )
f.write( str(ee) + "\n" )
f.write( MOL.save_string_xyz() )
f.close()
--------------------------------------------------------------------------

  Memory set to   2.000 GiB by Python script.

*** tstart() called on cx1-3-2-3.cx1.hpc.ic.ac.uk
*** at Tue Jul  5 16:35:06 2016


         ---------------------------------------------------------
                                   SCF
            by Justin Turney, Rob Parrish, and Andy Simmonett
                              RHF Reference
                        1 Threads,   2000 MiB Core
         ---------------------------------------------------------

  ==> Geometry <==

    Molecular point group: c1
    Full point group: C1

    Geometry (in Angstrom), charge = 0, multiplicity = 1:

       Center              X                  Y                   Z               Mass       
    ------------   -----------------  -----------------  -----------------  -----------------
           H         -1.730434213762     0.167868339599    -2.502857147635     1.007825032070
           C         -1.224910213762     0.158379339599    -1.557467147635    12.000000000000
           C         -1.864797213762     0.613199339599    -0.356963147635    12.000000000000
           C          0.035764786238    -0.282728660401    -1.459795147635    12.000000000000
           H         -2.877277213762     0.973534339599    -0.402649147635     1.007825032070
           C         -1.212151213762     0.591764339599     0.813957852365    12.000000000000
           H          0.584718786238    -0.639804660401    -2.310413147635     1.007825032070
           N          0.720172786238    -0.313522660401    -0.277227147635    14.003074004780
           H         -1.658138213762     0.923616339599     1.731195852365     1.007825032070
           C          0.159654786238     0.111674339599     0.919979852365    12.000000000000
           C          2.090137786238    -0.812674660401    -0.277074147635    12.000000000000
           O          0.780588786238     0.076221339599     1.953125852365    15.994914619560
           H          2.267658786238    -1.416006660401    -1.159395147635     1.007825032070
           H          2.757539786238     0.030127339599    -0.278987147635     1.007825032070
           H          2.268842786238    -1.412828660401     0.607171852365     1.007825032070

  Running in c1 symmetry.

  Rotational constants: A =      0.11492  B =      0.07866  C =      0.04710 [cm^-1]
  Rotational constants: A =   3445.18486  B =   2358.04272  C =   1412.11497 [MHz]
  Nuclear repulsion =  357.497909770307672

  Charge       = 0
  Multiplicity = 1
  Electrons    = 58
  Nalpha       = 29
  Nbeta        = 29

  ==> Algorithm <==

  SCF Algorithm Type is DF.
  DIIS enabled.
  MOM disabled.
  Fractional occupation disabled.
  Guess Type is CORE.
  Energy threshold   = 1.00e-06
  Density threshold  = 1.00e-06
  Integral threshold = 0.00e+00

  ==> Primary Basis <==

  Basis Set: 6-31G*
    Number of shells: 62
    Number of basis function: 134
    Number of Cartesian functions: 134
    Spherical Harmonics?: false
    Max angular momentum: 2

  ==> Pre-Iterations <==

   -------------------------------------------------------
    Irrep   Nso     Nmo     Nalpha   Nbeta   Ndocc  Nsocc
   -------------------------------------------------------
     A        134     134       0       0       0       0
   -------------------------------------------------------
    Total     134     134      29      29      29       0
   -------------------------------------------------------

 OEINTS: Overlap, kinetic, potential, dipole, and quadrupole integrals
         stored in file 35.

  ==> Integral Setup <==

  ==> DFJK: Density-Fitted J/K Matrices <==

    J tasked:                  Yes
    K tasked:                  Yes
    wK tasked:                  No
    OpenMP threads:              1
    Integrals threads:           1
    Memory (MB):              1430
    Algorithm:                Core
    Integral Cache:           NONE
    Schwarz Cutoff:          1E-12
    Fitting Condition:       1E-12

   => Auxiliary Basis Set <=

  Basis Set: 
    Number of shells: 255
    Number of basis function: 823
    Number of Cartesian functions: 823
    Spherical Harmonics?: false
    Max angular momentum: 3

  Minimum eigenvalue in the overlap matrix is 7.0463773076E-04.
  Using Symmetric Orthogonalization.
  SCF Guess: Core (One-Electron) Hamiltonian.

  ==> Iterations <==

                           Total Energy        Delta E     RMS |[F,P]|

   @DF-RHF iter   1:  -284.72178815742706   -2.84722e+02   6.98630e-02 
   @DF-RHF iter   2:  -277.38329747925326    7.33849e+00   5.27617e-02 DIIS
   @DF-RHF iter   3:  -320.95063786543864   -4.35673e+01   5.11600e-02 DIIS
   @DF-RHF iter   4:  -355.92473597099985   -3.49741e+01   1.86024e-02 DIIS
   @DF-RHF iter   5:  -358.49760912617984   -2.57287e+00   1.38662e-02 DIIS
   @DF-RHF iter   6:  -360.51909909627585   -2.02149e+00   2.13905e-03 DIIS
   @DF-RHF iter   7:  -360.58303035451007   -6.39313e-02   8.06352e-04 DIIS
   @DF-RHF iter   8:  -360.59177593840576   -8.74558e-03   3.49656e-04 DIIS
   @DF-RHF iter   9:  -360.59451281159130   -2.73687e-03   2.00052e-04 DIIS
   @DF-RHF iter  10:  -360.59555368224352   -1.04087e-03   6.77604e-05 DIIS
   @DF-RHF iter  11:  -360.59568132752764   -1.27645e-04   1.93321e-05 DIIS
   @DF-RHF iter  12:  -360.59569241192793   -1.10844e-05   1.12282e-05 DIIS
   @DF-RHF iter  13:  -360.59569535165434   -2.93973e-06   3.74346e-06 DIIS
   @DF-RHF iter  14:  -360.59569579438875   -4.42734e-07   1.03582e-06 DIIS
   @DF-RHF iter  15:  -360.59569581932209   -2.49333e-08   4.66799e-07 DIIS

  ==> Post-Iterations <==

    Orbital Energies (a.u.)
    -----------------------

    Doubly Occupied:                                                      

       1A    -20.509256     2A    -15.622361     3A    -11.342896  
       4A    -11.296922     5A    -11.267881     6A    -11.259783  
       7A    -11.232715     8A    -11.228471     9A     -1.383876  
      10A     -1.281794    11A     -1.114533    12A     -1.025553  
      13A     -0.971146    14A     -0.872561    15A     -0.835445  
      16A     -0.714963    17A     -0.696625    18A     -0.662128  
      19A     -0.650204    20A     -0.621670    21A     -0.606701  
      22A     -0.573501    23A     -0.551263    24A     -0.546454  
      25A     -0.527651    26A     -0.477195    27A     -0.413738  
      28A     -0.405739    29A     -0.304469  

    Virtual:                                                              

      30A      0.111929    31A      0.180760    32A      0.226559  
      33A      0.252411    34A      0.280217    35A      0.308922  
      36A      0.312500    37A      0.322991    38A      0.331850  
      39A      0.343794    40A      0.367297    41A      0.433862  
      42A      0.468158    43A      0.483680    44A      0.508202  
      45A      0.535210    46A      0.635477    47A      0.691219  
      48A      0.694357    49A      0.732131    50A      0.750903  
      51A      0.754974    52A      0.793026    53A      0.802867  
      54A      0.809380    55A      0.821185    56A      0.845398  
      57A      0.858944    58A      0.893949    59A      0.939812  
      60A      0.957728    61A      0.977707    62A      1.001118  
      63A      1.031454    64A      1.067425    65A      1.100424  
      66A      1.111899    67A      1.127142    68A      1.141812  
      69A      1.170173    70A      1.174945    71A      1.194644  
      72A      1.208713    73A      1.224696    74A      1.251285  
      75A      1.291560    76A      1.312288    77A      1.359885  
      78A      1.405030    79A      1.459516    80A      1.471322  
      81A      1.482780    82A      1.520190    83A      1.604608  
      84A      1.653051    85A      1.681569    86A      1.705691  
      87A      1.719056    88A      1.744089    89A      1.767183  
      90A      1.769437    91A      1.946554    92A      2.006090  
      93A      2.069868    94A      2.113799    95A      2.174555  
      96A      2.189565    97A      2.209335    98A      2.243431  
      99A      2.253043   100A      2.287587   101A      2.319735  
     102A      2.355544   103A      2.364353   104A      2.439511  
     105A      2.447469   106A      2.497044   107A      2.506284  
     108A      2.555616   109A      2.606062   110A      2.646186  
     111A      2.674514   112A      2.696044   113A      2.709114  
     114A      2.743433   115A      2.922372   116A      2.950035  
     117A      3.019176   118A      3.035042   119A      3.048791  
     120A      3.098251   121A      3.166776   122A      3.201970  
     123A      3.257728   124A      3.405946   125A      3.602381  
     126A      3.820404   127A      4.452196   128A      4.501577  
     129A      4.556002   130A      4.646799   131A      4.694241  
     132A      4.763073   133A      4.926784   134A      5.153583  

    Final Occupation by Irrep:
              A 
    DOCC [    29 ]

  Energy converged.

  @DF-RHF Final Energy:  -360.59569581932209

   => Energetics <=

    Nuclear Repulsion Energy =            357.4979097703076718
    One-Electron Energy =               -1198.1923574966417618
    Two-Electron Energy =                 480.0987519070113194
    DFT Exchange-Correlation Energy =       0.0000000000000000
    Empirical Dispersion Energy =           0.0000000000000000
    PCM Polarization Energy =               0.0000000000000000
    EFP Energy =                            0.0000000000000000
    Total Energy =                       -360.5956958193228274

    Alert: EFP and PCM quantities not currently incorporated into SCF psivars.

Properties will be evaluated at   0.000000,   0.000000,   0.000000 Bohr
  ==> Properties <==


Properties computed using the SCF density matrix

  Nuclear Dipole Moment: (a.u.)
     X:     1.5137      Y:    -1.2863      Z:    -4.0359

  Electronic Dipole Moment: (a.u.)
     X:    -1.7637      Y:     1.0452      Z:     2.3314

  Dipole Moment: (a.u.)
     X:    -0.2499      Y:    -0.2411      Z:    -1.7044     Total:     1.7394

  Dipole Moment: (Debye)
     X:    -0.6353      Y:    -0.6128      Z:    -4.3322     Total:     4.4212


  Saving occupied orbitals to File 180.

*** tstop() called on cx1-3-2-3.cx1.hpc.ic.ac.uk at Tue Jul  5 16:35:17 2016
Module time:
	user time   =      10.87 seconds =       0.18 minutes
	system time =       0.07 seconds =       0.00 minutes
	total time  =         11 seconds =       0.18 minutes
Total time:
	user time   =      10.87 seconds =       0.18 minutes
	system time =       0.07 seconds =       0.00 minutes
	total time  =         11 seconds =       0.18 minutes


Properties will be evaluated at   0.000000,   0.000000,   0.000000 Bohr

Properties computed using the  density matrix

  Nuclear Dipole Moment: (a.u.)
     X:     1.5137      Y:    -1.2863      Z:    -4.0359

  Electronic Dipole Moment: (a.u.)
     X:    -1.7637      Y:     1.0452      Z:     2.3314

  Dipole Moment: (a.u.)
     X:    -0.2499      Y:    -0.2411      Z:    -1.7044     Total:     1.7394

  Dipole Moment: (Debye)
     X:    -0.6353      Y:    -0.6128      Z:    -4.3322     Total:     4.4212

  Quadrupole Moment: (Debye Ang)
    XX:   -40.6918     YY:   -47.1744     ZZ:   -50.8068
    XY:    -3.9846     XZ:    -4.3242     YZ:     1.1795

  Traceless Quadrupole Moment: (Debye Ang)
    XX:     5.5325     YY:    -0.9501     ZZ:    -4.5825
    XY:    -3.9846     XZ:    -4.3242     YZ:     1.1795

  Mulliken Charges: (a.u.)
   Center  Symbol    Alpha    Beta     Spin     Total
       1     H     0.39310  0.39310  0.00000  0.21380
       2     C     3.16157  3.16157  0.00000 -0.32314
       3     C     3.05844  3.05844  0.00000 -0.11688
       4     C     2.92265  2.92265  0.00000  0.15469
       5     H     0.39100  0.39100  0.00000  0.21799
       6     C     3.17018  3.17018  0.00000 -0.34037
       7     H     0.38789  0.38789  0.00000  0.22421
       8     N     3.86469  3.86469  0.00000 -0.72939
       9     H     0.38652  0.38652  0.00000  0.22696
      10     C     2.59493  2.59493  0.00000  0.81014
      11     C     3.14386  3.14386  0.00000 -0.28771
      12     O     4.32038  4.32038  0.00000 -0.64076
      13     H     0.41382  0.41382  0.00000  0.17235
      14     H     0.40253  0.40253  0.00000  0.19495
      15     H     0.38842  0.38842  0.00000  0.22316

   Total alpha = 29.00000, Total beta = 29.00000, Total charge = -0.00000


*** PSI4 exiting successfully. Buy a developer a beer!
