    -----------------------------------------------------------------------
          Psi4: An Open-Source Ab Initio Electronic Structure Package
                              Psi4 (no tag) Driver

                          Git: Rev {detached?}  

    J. M. Turney, A. C. Simmonett, R. M. Parrish, E. G. Hohenstein,
    F. A. Evangelista, J. T. Fermann, B. J. Mintz, L. A. Burns, J. J. Wilke,
    M. L. Abrams, N. J. Russ, M. L. Leininger, C. L. Janssen, E. T. Seidl,
    W. D. Allen, H. F. Schaefer, R. A. King, E. F. Valeev, C. D. Sherrill,
    and T. D. Crawford, WIREs Comput. Mol. Sci. 2, 556-565 (2012)
    (doi: 10.1002/wcms.93)

                         Additional Contributions by
    A. E. DePrince, M. Saitow, U. Bozkaya, A. Yu. Sokolov
    -----------------------------------------------------------------------


    Psi4 started on: Tue Jul  5 16:50:33 2016

    Process ID:  14486
    PSI4DATADIR: /export131/home/mjharvey/miniconda3/share
    Memory level set to 256.000 MB

  ==> Input File <==

--------------------------------------------------------------------------
set {
	reference rhf
	basis 6-31G*
}


set_num_threads( 1 )
memory 2 gb

molecule MOL {
0 1

H	 -2.153054	 -2.250733	 0.000000
O	 -2.462445	 -1.355403	 0.000000
C	 -1.434260	 -0.483044	 0.000000
C	 -0.160282	 -0.998433	 0.214627
C	 -1.606806	 0.873172	 -0.202032
H	 -0.050522	 -2.055314	 0.369249
C	 0.931284	 -0.154718	 0.225708
H	 -2.586306	 1.284548	 -0.369080
C	 -0.495009	 1.711703	 -0.187945
H	 1.912113	 -0.560710	 0.392185
C	 0.777868	 1.209965	 0.024721
C	 -0.683838	 3.129388	 -0.400099
H	 1.624995	 1.868669	 0.032793
N	 -0.829653	 4.243740	 -0.567019

	symmetry c1
}
set optking {
	frozen_dihedral = ("
		5 3 2 1
	")
}

ee = energy('scf')
oeprop('DIPOLE', 'QUADRUPOLE', 'MULLIKEN_CHARGES')
f=open( 'psi4out.xyz', 'w' )
f.write( "14  " )
f.write( str(ee) + "\n" )
f.write( MOL.save_string_xyz() )
f.close()
--------------------------------------------------------------------------

  Memory set to   2.000 GiB by Python script.

*** tstart() called on cx1-3-4-4.cx1.hpc.ic.ac.uk
*** at Tue Jul  5 16:50:34 2016


         ---------------------------------------------------------
                                   SCF
            by Justin Turney, Rob Parrish, and Andy Simmonett
                              RHF Reference
                        1 Threads,   2000 MiB Core
         ---------------------------------------------------------

  ==> Geometry <==

    Molecular point group: c1
    Full point group: C1

    Geometry (in Angstrom), charge = 0, multiplicity = 1:

       Center              X                  Y                   Z               Mass       
    ------------   -----------------  -----------------  -----------------  -----------------
           H         -1.444708676399    -3.086399241803     0.095867371674     1.007825032070
           O         -1.754099676399    -2.191069241803     0.095867371674    15.994914619560
           C         -0.725914676399    -1.318710241803     0.095867371674    12.000000000000
           C          0.548063323601    -1.834099241803     0.310494371674    12.000000000000
           C         -0.898460676399     0.037505758197    -0.106164628326    12.000000000000
           H          0.657823323601    -2.890980241803     0.465116371674     1.007825032070
           C          1.639629323601    -0.990384241803     0.321575371674    12.000000000000
           H         -1.877960676399     0.448881758197    -0.273212628326     1.007825032070
           C          0.213336323601     0.876036758197    -0.092077628326    12.000000000000
           H          2.620458323601    -1.396376241803     0.488052371674     1.007825032070
           C          1.486213323601     0.374298758197     0.120588371674    12.000000000000
           C          0.024507323601     2.293721758197    -0.304231628326    12.000000000000
           H          2.333340323601     1.033002758197     0.128660371674     1.007825032070
           N         -0.121307676399     3.408073758197    -0.471151628326    14.003074004780

  Running in c1 symmetry.

  Rotational constants: A =      0.11891  B =      0.04007  C =      0.02997 [cm^-1]
  Rotational constants: A =   3564.85486  B =   1201.26886  C =    898.56996 [MHz]
  Nuclear repulsion =  379.326496956359108

  Charge       = 0
  Multiplicity = 1
  Electrons    = 62
  Nalpha       = 31
  Nbeta        = 31

  ==> Algorithm <==

  SCF Algorithm Type is DF.
  DIIS enabled.
  MOM disabled.
  Fractional occupation disabled.
  Guess Type is CORE.
  Energy threshold   = 1.00e-06
  Density threshold  = 1.00e-06
  Integral threshold = 0.00e+00

  ==> Primary Basis <==

  Basis Set: 6-31G*
    Number of shells: 64
    Number of basis function: 145
    Number of Cartesian functions: 145
    Spherical Harmonics?: false
    Max angular momentum: 2

  ==> Pre-Iterations <==

   -------------------------------------------------------
    Irrep   Nso     Nmo     Nalpha   Nbeta   Ndocc  Nsocc
   -------------------------------------------------------
     A        145     145       0       0       0       0
   -------------------------------------------------------
    Total     145     145      31      31      31       0
   -------------------------------------------------------

 OEINTS: Overlap, kinetic, potential, dipole, and quadrupole integrals
         stored in file 35.

  ==> Integral Setup <==

  ==> DFJK: Density-Fitted J/K Matrices <==

    J tasked:                  Yes
    K tasked:                  Yes
    wK tasked:                  No
    OpenMP threads:              1
    Integrals threads:           1
    Memory (MB):              1430
    Algorithm:                Core
    Integral Cache:           NONE
    Schwarz Cutoff:          1E-12
    Fitting Condition:       1E-12

   => Auxiliary Basis Set <=

  Basis Set: 
    Number of shells: 261
    Number of basis function: 854
    Number of Cartesian functions: 854
    Spherical Harmonics?: false
    Max angular momentum: 3

  Minimum eigenvalue in the overlap matrix is 4.1965625711E-04.
  Using Symmetric Orthogonalization.
  SCF Guess: Core (One-Electron) Hamiltonian.

  ==> Iterations <==

                           Total Energy        Delta E     RMS |[F,P]|

   @DF-RHF iter   1:  -309.44587742720154   -3.09446e+02   6.50314e-02 
   @DF-RHF iter   2:  -146.52223933027204    1.62924e+02   7.87908e-02 DIIS
   @DF-RHF iter   3:  -317.77820316505091   -1.71256e+02   5.28379e-02 DIIS
   @DF-RHF iter   4:  -342.15114812935650   -2.43729e+01   5.26222e-02 DIIS
   @DF-RHF iter   5:  -395.86527213592973   -5.37141e+01   1.08538e-02 DIIS
   @DF-RHF iter   6:  -397.09230977444128   -1.22704e+00   4.27068e-03 DIIS
   @DF-RHF iter   7:  -397.27035237178137   -1.78043e-01   1.19184e-03 DIIS
   @DF-RHF iter   8:  -397.28592693742547   -1.55746e-02   4.32643e-04 DIIS
   @DF-RHF iter   9:  -397.28843718348713   -2.51025e-03   1.40709e-04 DIIS
   @DF-RHF iter  10:  -397.28882171756931   -3.84534e-04   6.02903e-05 DIIS
   @DF-RHF iter  11:  -397.28892454811802   -1.02831e-04   3.04218e-05 DIIS
   @DF-RHF iter  12:  -397.28897382356439   -4.92754e-05   1.36523e-05 DIIS
   @DF-RHF iter  13:  -397.28898342097085   -9.59741e-06   7.14785e-06 DIIS
   @DF-RHF iter  14:  -397.28898674573685   -3.32477e-06   2.39897e-06 DIIS
   @DF-RHF iter  15:  -397.28898699675466   -2.51018e-07   5.75538e-07 DIIS

  ==> Post-Iterations <==

    Orbital Energies (a.u.)
    -----------------------

    Doubly Occupied:                                                      

       1A    -20.611048     2A    -15.574811     3A    -11.327055  
       4A    -11.294964     5A    -11.275905     6A    -11.264872  
       7A    -11.261202     8A    -11.259550     9A    -11.258561  
      10A     -1.433016    11A     -1.232412    12A     -1.182514  
      13A     -1.063424    14A     -1.039938    15A     -0.898840  
      16A     -0.859236    17A     -0.793923    18A     -0.718018  
      19A     -0.691185    20A     -0.675854    21A     -0.629007  
      22A     -0.614660    23A     -0.592231    24A     -0.566873  
      25A     -0.547161    26A     -0.538132    27A     -0.522307  
      28A     -0.473587    29A     -0.472042    30A     -0.363663  
      31A     -0.337543  

    Virtual:                                                              

      32A      0.085758    33A      0.132537    34A      0.200292  
      35A      0.220393    36A      0.225850    37A      0.274102  
      38A      0.280409    39A      0.290820    40A      0.330300  
      41A      0.369328    42A      0.378532    43A      0.437622  
      44A      0.455216    45A      0.468635    46A      0.485878  
      47A      0.570679    48A      0.598745    49A      0.633669  
      50A      0.700285    51A      0.713991    52A      0.717189  
      53A      0.757324    54A      0.782765    55A      0.793276  
      56A      0.803105    57A      0.804023    58A      0.827378  
      59A      0.852284    60A      0.856732    61A      0.871017  
      62A      0.884250    63A      0.887596    64A      0.937564  
      65A      0.955022    66A      0.993263    67A      0.996669  
      68A      1.064734    69A      1.090034    70A      1.103503  
      71A      1.104231    72A      1.122902    73A      1.126897  
      74A      1.138856    75A      1.169602    76A      1.188532  
      77A      1.220744    78A      1.232484    79A      1.262390  
      80A      1.331452    81A      1.376214    82A      1.392037  
      83A      1.437394    84A      1.450304    85A      1.465299  
      86A      1.518393    87A      1.558853    88A      1.587443  
      89A      1.610079    90A      1.634434    91A      1.687964  
      92A      1.701493    93A      1.730377    94A      1.733405  
      95A      1.799781    96A      1.807067    97A      1.844808  
      98A      1.983417    99A      2.024221   100A      2.062114  
     101A      2.079533   102A      2.102945   103A      2.110558  
     104A      2.154366   105A      2.227606   106A      2.241591  
     107A      2.261968   108A      2.285162   109A      2.292191  
     110A      2.295444   111A      2.329942   112A      2.388468  
     113A      2.423095   114A      2.440358   115A      2.454363  
     116A      2.537101   117A      2.585573   118A      2.614084  
     119A      2.623407   120A      2.754271   121A      2.824860  
     122A      2.843157   123A      2.868014   124A      2.928847  
     125A      2.994066   126A      3.004565   127A      3.023856  
     128A      3.097815   129A      3.138903   130A      3.168874  
     131A      3.209008   132A      3.280588   133A      3.382187  
     134A      3.562727   135A      3.674726   136A      3.870803  
     137A      4.348280   138A      4.465601   139A      4.506303  
     140A      4.559535   141A      4.613515   142A      4.720962  
     143A      4.828690   144A      4.970602   145A      5.257867  

    Final Occupation by Irrep:
              A 
    DOCC [    31 ]

  Energy converged.

  @DF-RHF Final Energy:  -397.28898699675466

   => Energetics <=

    Nuclear Repulsion Energy =            379.3264969563591080
    One-Electron Energy =               -1290.4836872367870910
    Two-Electron Energy =                 513.8682032836721874
    DFT Exchange-Correlation Energy =       0.0000000000000000
    Empirical Dispersion Energy =           0.0000000000000000
    PCM Polarization Energy =               0.0000000000000000
    EFP Energy =                            0.0000000000000000
    Total Energy =                       -397.2889869967558525

    Alert: EFP and PCM quantities not currently incorporated into SCF psivars.

Properties will be evaluated at   0.000000,   0.000000,   0.000000 Bohr
  ==> Properties <==


Properties computed using the SCF density matrix

  Nuclear Dipole Moment: (a.u.)
     X:     2.1377      Y:    -5.5439      Z:     0.8498

  Electronic Dipole Moment: (a.u.)
     X:    -1.4442      Y:     3.3462      Z:    -0.5866

  Dipole Moment: (a.u.)
     X:     0.6935      Y:    -2.1977      Z:     0.2631     Total:     2.3195

  Dipole Moment: (Debye)
     X:     1.7628      Y:    -5.5859      Z:     0.6688     Total:     5.8955


  Saving occupied orbitals to File 180.

*** tstop() called on cx1-3-4-4.cx1.hpc.ic.ac.uk at Tue Jul  5 16:50:50 2016
Module time:
	user time   =      15.48 seconds =       0.26 minutes
	system time =       0.09 seconds =       0.00 minutes
	total time  =         16 seconds =       0.27 minutes
Total time:
	user time   =      15.48 seconds =       0.26 minutes
	system time =       0.09 seconds =       0.00 minutes
	total time  =         16 seconds =       0.27 minutes


Properties will be evaluated at   0.000000,   0.000000,   0.000000 Bohr

Properties computed using the  density matrix

  Nuclear Dipole Moment: (a.u.)
     X:     2.1377      Y:    -5.5439      Z:     0.8498

  Electronic Dipole Moment: (a.u.)
     X:    -1.4442      Y:     3.3462      Z:    -0.5866

  Dipole Moment: (a.u.)
     X:     0.6935      Y:    -2.1977      Z:     0.2631     Total:     2.3195

  Dipole Moment: (Debye)
     X:     1.7628      Y:    -5.5859      Z:     0.6688     Total:     5.8955

  Quadrupole Moment: (Debye Ang)
    XX:   -48.8397     YY:   -56.9841     ZZ:   -54.1991
    XY:    -0.2688     XZ:     1.0707     YZ:     1.3728

  Traceless Quadrupole Moment: (Debye Ang)
    XX:     4.5012     YY:    -3.6431     ZZ:    -0.8581
    XY:    -0.2688     XZ:     1.0707     YZ:     1.3728

  Mulliken Charges: (a.u.)
   Center  Symbol    Alpha    Beta     Spin     Total
       1     H     0.26692  0.26692  0.00000  0.46615
       2     O     4.37908  4.37908  0.00000 -0.75815
       3     C     2.78296  2.78296  0.00000  0.43408
       4     C     3.13897  3.13897  0.00000 -0.27794
       5     C     3.11597  3.11597  0.00000 -0.23194
       6     H     0.39660  0.39660  0.00000  0.20680
       7     C     3.09485  3.09485  0.00000 -0.18970
       8     H     0.37405  0.37405  0.00000  0.25191
       9     C     2.99088  2.99088  0.00000  0.01824
      10     H     0.38937  0.38937  0.00000  0.22125
      11     C     3.09949  3.09949  0.00000 -0.19897
      12     C     2.86527  2.86527  0.00000  0.26946
      13     H     0.38120  0.38120  0.00000  0.23761
      14     N     3.72440  3.72440  0.00000 -0.44880

   Total alpha = 31.00000, Total beta = 31.00000, Total charge = -0.00000


*** PSI4 exiting successfully. Buy a developer a beer!
