    -----------------------------------------------------------------------
          Psi4: An Open-Source Ab Initio Electronic Structure Package
                              Psi4 (no tag) Driver

                          Git: Rev {detached?}  

    J. M. Turney, A. C. Simmonett, R. M. Parrish, E. G. Hohenstein,
    F. A. Evangelista, J. T. Fermann, B. J. Mintz, L. A. Burns, J. J. Wilke,
    M. L. Abrams, N. J. Russ, M. L. Leininger, C. L. Janssen, E. T. Seidl,
    W. D. Allen, H. F. Schaefer, R. A. King, E. F. Valeev, C. D. Sherrill,
    and T. D. Crawford, WIREs Comput. Mol. Sci. 2, 556-565 (2012)
    (doi: 10.1002/wcms.93)

                         Additional Contributions by
    A. E. DePrince, M. Saitow, U. Bozkaya, A. Yu. Sokolov
    -----------------------------------------------------------------------


    Psi4 started on: Tue Jul  5 16:44:51 2016

    Process ID:  31431
    PSI4DATADIR: /export131/home/mjharvey/miniconda3/share
    Memory level set to 256.000 MB

  ==> Input File <==

--------------------------------------------------------------------------
set {
	reference rhf
	basis 6-31G*
}


set_num_threads( 1 )
memory 2 gb

molecule MOL {
0 1

H	 3.377070	 0.087831	 2.387029
O	 2.507787	 -0.172251	 2.117570
C	 1.642391	 0.931915	 2.184637
C	 0.260881	 0.479194	 1.746208
H	 1.601307	 1.325371	 3.199433
H	 1.994407	 1.734442	 1.537817
C	 0.198102	 0.111031	 0.262842
H	 -0.445191	 1.275771	 1.964508
H	 -0.029805	 -0.371442	 2.356451
C	 1.331804	 -0.827780	 -0.158768
H	 -0.763122	 -0.350156	 0.049472
H	 0.243876	 1.017744	 -0.339068
C	 2.723619	 -0.410569	 0.329459
H	 1.342964	 -0.912588	 -1.244120
H	 1.116806	 -1.824343	 0.220779
C	 3.243875	 0.895854	 -0.272975
H	 3.424222	 -1.207124	 0.091250
H	 2.714788	 -0.329854	 1.414619
H	 3.251977	 0.848779	 -1.358681
H	 2.637085	 1.747371	 0.016682
H	 4.259473	 1.094070	 0.055697

	symmetry c1
}
set optking {
	frozen_dihedral = ("
		2 3 4 8,
		8 4 7 10,
		16 13 10 14,
		1 2 3 5
	")
}

ee = energy('scf')
oeprop('DIPOLE', 'QUADRUPOLE', 'MULLIKEN_CHARGES')
f=open( 'psi4out.xyz', 'w' )
f.write( "21  " )
f.write( str(ee) + "\n" )
f.write( MOL.save_string_xyz() )
f.close()
--------------------------------------------------------------------------

  Memory set to   2.000 GiB by Python script.

*** tstart() called on cx1-3-2-3.cx1.hpc.ic.ac.uk
*** at Tue Jul  5 16:44:52 2016


         ---------------------------------------------------------
                                   SCF
            by Justin Turney, Rob Parrish, and Andy Simmonett
                              RHF Reference
                        1 Threads,   2000 MiB Core
         ---------------------------------------------------------

  ==> Geometry <==

    Molecular point group: c1
    Full point group: C1

    Geometry (in Angstrom), charge = 0, multiplicity = 1:

       Center              X                  Y                   Z               Mass       
    ------------   -----------------  -----------------  -----------------  -----------------
           H          1.635331864908    -0.064648475628     1.472279003638     1.007825032070
           O          0.766048864908    -0.324730475628     1.202820003638    15.994914619560
           C         -0.099347135092     0.779435524372     1.269887003638    12.000000000000
           C         -1.480857135092     0.326714524372     0.831458003638    12.000000000000
           H         -0.140431135092     1.172891524372     2.284683003638     1.007825032070
           H          0.252668864908     1.581962524372     0.623067003638     1.007825032070
           C         -1.543636135092    -0.041448475628    -0.651907996362    12.000000000000
           H         -2.186929135092     1.123291524372     1.049758003638     1.007825032070
           H         -1.771543135092    -0.523921475628     1.441701003638     1.007825032070
           C         -0.409934135092    -0.980259475628    -1.073517996362    12.000000000000
           H         -2.504860135092    -0.502635475628    -0.865277996362     1.007825032070
           H         -1.497862135092     0.865264524372    -1.253817996362     1.007825032070
           C          0.981880864908    -0.563048475628    -0.585290996362    12.000000000000
           H         -0.398774135092    -1.065067475628    -2.158869996362     1.007825032070
           H         -0.624932135092    -1.976822475628    -0.693970996362     1.007825032070
           C          1.502136864908     0.743374524372    -1.187724996362    12.000000000000
           H          1.682483864908    -1.359603475628    -0.823499996362     1.007825032070
           H          0.973049864908    -0.482333475628     0.499869003638     1.007825032070
           H          1.510238864908     0.696299524372    -2.273430996362     1.007825032070
           H          0.895346864908     1.594891524372    -0.898067996362     1.007825032070
           H          2.517734864908     0.941590524372    -0.859052996362     1.007825032070

  Running in c1 symmetry.

  Rotational constants: A =      0.10740  B =      0.08775  C =      0.06454 [cm^-1]
  Rotational constants: A =   3219.66929  B =   2630.58424  C =   1934.85364 [MHz]
  Nuclear repulsion =  363.603950501090594

  Charge       = 0
  Multiplicity = 1
  Electrons    = 58
  Nalpha       = 29
  Nbeta        = 29

  ==> Algorithm <==

  SCF Algorithm Type is DF.
  DIIS enabled.
  MOM disabled.
  Fractional occupation disabled.
  Guess Type is CORE.
  Energy threshold   = 1.00e-06
  Density threshold  = 1.00e-06
  Integral threshold = 0.00e+00

  ==> Primary Basis <==

  Basis Set: 6-31G*
    Number of shells: 70
    Number of basis function: 133
    Number of Cartesian functions: 133
    Spherical Harmonics?: false
    Max angular momentum: 2

  ==> Pre-Iterations <==

   -------------------------------------------------------
    Irrep   Nso     Nmo     Nalpha   Nbeta   Ndocc  Nsocc
   -------------------------------------------------------
     A        133     133       0       0       0       0
   -------------------------------------------------------
    Total     133     133      29      29      29       0
   -------------------------------------------------------

 OEINTS: Overlap, kinetic, potential, dipole, and quadrupole integrals
         stored in file 35.

  ==> Integral Setup <==

  ==> DFJK: Density-Fitted J/K Matrices <==

    J tasked:                  Yes
    K tasked:                  Yes
    wK tasked:                  No
    OpenMP threads:              1
    Integrals threads:           1
    Memory (MB):              1430
    Algorithm:                Core
    Integral Cache:           NONE
    Schwarz Cutoff:          1E-12
    Fitting Condition:       1E-12

   => Auxiliary Basis Set <=

  Basis Set: 
    Number of shells: 294
    Number of basis function: 917
    Number of Cartesian functions: 917
    Spherical Harmonics?: false
    Max angular momentum: 3

  Minimum eigenvalue in the overlap matrix is 2.1735320772E-03.
  Using Symmetric Orthogonalization.
  SCF Guess: Core (One-Electron) Hamiltonian.

  ==> Iterations <==

                           Total Energy        Delta E     RMS |[F,P]|

   @DF-RHF iter   1:  -238.06522975753126   -2.38065e+02   6.88759e-02 
   @DF-RHF iter   2:  -217.48137733636531    2.05839e+01   5.66496e-02 DIIS
   @DF-RHF iter   3:  -270.75223709593490   -5.32709e+01   5.21870e-02 DIIS
   @DF-RHF iter   4:  -306.76552518539813   -3.60133e+01   1.80583e-02 DIIS
   @DF-RHF iter   5:  -309.56590244020185   -2.80038e+00   4.13017e-03 DIIS
   @DF-RHF iter   6:  -309.71706115737300   -1.51159e-01   1.13381e-03 DIIS
   @DF-RHF iter   7:  -309.73049472779348   -1.34336e-02   3.08117e-04 DIIS
   @DF-RHF iter   8:  -309.73200907404555   -1.51435e-03   1.01517e-04 DIIS
   @DF-RHF iter   9:  -309.73228509667297   -2.76023e-04   3.73207e-05 DIIS
   @DF-RHF iter  10:  -309.73233221439500   -4.71177e-05   1.67540e-05 DIIS
   @DF-RHF iter  11:  -309.73234363894812   -1.14246e-05   8.89886e-06 DIIS
   @DF-RHF iter  12:  -309.73234658753654   -2.94859e-06   2.33409e-06 DIIS
   @DF-RHF iter  13:  -309.73234688253604   -2.94999e-07   8.51468e-07 DIIS

  ==> Post-Iterations <==

    Orbital Energies (a.u.)
    -----------------------

    Doubly Occupied:                                                      

       1A    -20.632745     2A    -11.311151     3A    -11.232312  
       4A    -11.203886     5A    -11.176966     6A    -11.171508  
       7A    -11.061077     8A     -1.599799     9A     -1.098904  
      10A     -1.050059    11A     -0.952346    12A     -0.917384  
      13A     -0.875559    14A     -0.797475    15A     -0.791858  
      16A     -0.682830    17A     -0.676345    18A     -0.632792  
      19A     -0.597253    20A     -0.574382    21A     -0.549508  
      22A     -0.526887    23A     -0.518079    24A     -0.486766  
      25A     -0.478448    26A     -0.451090    27A     -0.408741  
      28A     -0.404453    29A     -0.199710  

    Virtual:                                                              

      30A      0.185744    31A      0.235357    32A      0.261969  
      33A      0.274591    34A      0.292553    35A      0.303224  
      36A      0.322495    37A      0.329110    38A      0.336023  
      39A      0.354538    40A      0.364522    41A      0.375262  
      42A      0.384965    43A      0.404235    44A      0.420401  
      45A      0.432036    46A      0.453049    47A      0.460126  
      48A      0.529917    49A      0.571050    50A      0.698711  
      51A      0.735514    52A      0.738803    53A      0.763924  
      54A      0.765003    55A      0.779949    56A      0.806720  
      57A      0.857127    58A      0.904731    59A      0.930535  
      60A      0.945201    61A      0.976203    62A      1.008313  
      63A      1.039096    64A      1.050966    65A      1.077753  
      66A      1.089680    67A      1.128865    68A      1.144319  
      69A      1.166270    70A      1.171789    71A      1.176593  
      72A      1.207405    73A      1.210461    74A      1.219010  
      75A      1.239786    76A      1.254934    77A      1.261000  
      78A      1.285632    79A      1.294231    80A      1.307901  
      81A      1.327485    82A      1.417243    83A      1.449507  
      84A      1.510936    85A      1.538639    86A      1.661801  
      87A      1.664008    88A      1.688629    89A      1.741516  
      90A      1.807698    91A      1.866602    92A      1.897213  
      93A      1.925093    94A      1.967312    95A      1.997650  
      96A      2.041987    97A      2.082930    98A      2.175565  
      99A      2.230573   100A      2.245838   101A      2.272183  
     102A      2.321021   103A      2.347273   104A      2.360756  
     105A      2.380671   106A      2.415952   107A      2.457464  
     108A      2.513002   109A      2.519614   110A      2.627446  
     111A      2.640707   112A      2.684922   113A      2.700439  
     114A      2.720755   115A      2.760082   116A      2.771654  
     117A      2.782079   118A      2.849166   119A      2.886406  
     120A      2.976246   121A      3.012009   122A      3.056039  
     123A      3.099450   124A      3.156718   125A      3.171020  
     126A      3.872866   127A      4.530612   128A      4.616390  
     129A      4.721186   130A      4.754314   131A      4.916268  
     132A      5.003178   133A      5.172268  

    Final Occupation by Irrep:
              A 
    DOCC [    29 ]

  Energy converged.

  @DF-RHF Final Energy:  -309.73234688253604

   => Energetics <=

    Nuclear Repulsion Energy =            363.6039505010905941
    One-Electron Energy =               -1140.5520971958801510
    Two-Electron Energy =                 467.2157998122535787
    DFT Exchange-Correlation Energy =       0.0000000000000000
    Empirical Dispersion Energy =           0.0000000000000000
    PCM Polarization Energy =               0.0000000000000000
    EFP Energy =                            0.0000000000000000
    Total Energy =                       -309.7323468825359782

    Alert: EFP and PCM quantities not currently incorporated into SCF psivars.

Properties will be evaluated at   0.000000,   0.000000,   0.000000 Bohr
  ==> Properties <==


Properties computed using the SCF density matrix

  Nuclear Dipole Moment: (a.u.)
     X:     0.3238      Y:     1.8745      Z:    -2.2954

  Electronic Dipole Moment: (a.u.)
     X:    -0.4827      Y:    -1.0989      Z:     3.9755

  Dipole Moment: (a.u.)
     X:    -0.1588      Y:     0.7755      Z:     1.6802     Total:     1.8573

  Dipole Moment: (Debye)
     X:    -0.4037      Y:     1.9712      Z:     4.2705     Total:     4.7208


  Saving occupied orbitals to File 180.

*** tstop() called on cx1-3-2-3.cx1.hpc.ic.ac.uk at Tue Jul  5 16:45:06 2016
Module time:
	user time   =      13.18 seconds =       0.22 minutes
	system time =       0.06 seconds =       0.00 minutes
	total time  =         14 seconds =       0.23 minutes
Total time:
	user time   =      13.18 seconds =       0.22 minutes
	system time =       0.06 seconds =       0.00 minutes
	total time  =         14 seconds =       0.23 minutes


Properties will be evaluated at   0.000000,   0.000000,   0.000000 Bohr

Properties computed using the  density matrix

  Nuclear Dipole Moment: (a.u.)
     X:     0.3238      Y:     1.8745      Z:    -2.2954

  Electronic Dipole Moment: (a.u.)
     X:    -0.4827      Y:    -1.0989      Z:     3.9755

  Dipole Moment: (a.u.)
     X:    -0.1588      Y:     0.7755      Z:     1.6802     Total:     1.8573

  Dipole Moment: (Debye)
     X:    -0.4037      Y:     1.9712      Z:     4.2705     Total:     4.7208

  Quadrupole Moment: (Debye Ang)
    XX:   -46.2311     YY:   -48.2676     ZZ:   -46.4324
    XY:     0.2936     XZ:     4.6856     YZ:     1.4534

  Traceless Quadrupole Moment: (Debye Ang)
    XX:     0.7459     YY:    -1.2905     ZZ:     0.5447
    XY:     0.2936     XZ:     4.6856     YZ:     1.4534

  Mulliken Charges: (a.u.)
   Center  Symbol    Alpha    Beta     Spin     Total
       1     H     0.28369  0.28369  0.00000  0.43263
       2     O     4.16975  4.16975  0.00000 -0.33950
       3     C     3.06384  3.06384  0.00000 -0.12769
       4     C     3.16331  3.16331  0.00000 -0.32662
       5     H     0.39866  0.39866  0.00000  0.20268
       6     H     0.39288  0.39288  0.00000  0.21423
       7     C     3.15889  3.15889  0.00000 -0.31778
       8     H     0.41300  0.41300  0.00000  0.17400
       9     H     0.41131  0.41131  0.00000  0.17737
      10     C     3.13071  3.13071  0.00000 -0.26142
      11     H     0.42079  0.42079  0.00000  0.15842
      12     H     0.42269  0.42269  0.00000  0.15463
      13     C     3.35564  3.35564  0.00000 -0.71128
      14     H     0.43044  0.43044  0.00000  0.13913
      15     H     0.43582  0.43582  0.00000  0.12837
      16     C     3.22223  3.22223  0.00000 -0.44447
      17     H     0.44466  0.44466  0.00000  0.11069
      18     H     0.35908  0.35908  0.00000  0.28184
      19     H     0.43149  0.43149  0.00000  0.13702
      20     H     0.44872  0.44872  0.00000  0.10256
      21     H     0.44240  0.44240  0.00000  0.11520

   Total alpha = 29.00000, Total beta = 29.00000, Total charge = -0.00000


*** PSI4 exiting successfully. Buy a developer a beer!
