    -----------------------------------------------------------------------
          Psi4: An Open-Source Ab Initio Electronic Structure Package
                              Psi4 (no tag) Driver

                          Git: Rev {detached?}  

    J. M. Turney, A. C. Simmonett, R. M. Parrish, E. G. Hohenstein,
    F. A. Evangelista, J. T. Fermann, B. J. Mintz, L. A. Burns, J. J. Wilke,
    M. L. Abrams, N. J. Russ, M. L. Leininger, C. L. Janssen, E. T. Seidl,
    W. D. Allen, H. F. Schaefer, R. A. King, E. F. Valeev, C. D. Sherrill,
    and T. D. Crawford, WIREs Comput. Mol. Sci. 2, 556-565 (2012)
    (doi: 10.1002/wcms.93)

                         Additional Contributions by
    A. E. DePrince, M. Saitow, U. Bozkaya, A. Yu. Sokolov
    -----------------------------------------------------------------------


    Psi4 started on: Tue Jul  5 16:40:31 2016

    Process ID:  17663
    PSI4DATADIR: /export131/home/mjharvey/miniconda3/share
    Memory level set to 256.000 MB

  ==> Input File <==

--------------------------------------------------------------------------
set {
	reference rhf
	basis 6-31G*
}


set_num_threads( 1 )
memory 2 gb

molecule MOL {
0 1

H	 -0.507656	 -3.104954	 0.297059
C	 -0.951213	 -2.685110	 -0.613869
C	 -0.414791	 -1.338711	 -1.026665
O	 -1.792181	 -3.286303	 -1.199931
C	 -0.558097	 -0.297372	 0.091132
H	 -0.933474	 -1.027398	 -1.925850
H	 0.639562	 -1.462226	 -1.271440
C	 -1.850991	 0.512573	 -0.019058
H	 -0.527822	 -0.799848	 1.055173
H	 0.293577	 0.380148	 0.069309
C	 -3.096943	 -0.368295	 -0.099594
H	 -1.800724	 1.150330	 -0.898172
H	 -1.931651	 1.177355	 0.838044
H	 -3.060452	 -1.020287	 -0.967456
H	 -3.996858	 0.233488	 -0.175704
H	 -3.191959	 -0.995686	 0.782074

	symmetry c1
}
set optking {
	frozen_dihedral = ("
		9 5 8 12,
		4 2 3 6
	")
}

ee = energy('scf')
oeprop('DIPOLE', 'QUADRUPOLE', 'MULLIKEN_CHARGES')
f=open( 'psi4out.xyz', 'w' )
f.write( "16  " )
f.write( str(ee) + "\n" )
f.write( MOL.save_string_xyz() )
f.close()
--------------------------------------------------------------------------

  Memory set to   2.000 GiB by Python script.

*** tstart() called on cx1-1-3-3.cx1.hpc.ic.ac.uk
*** at Tue Jul  5 16:40:31 2016


         ---------------------------------------------------------
                                   SCF
            by Justin Turney, Rob Parrish, and Andy Simmonett
                              RHF Reference
                        1 Threads,   2000 MiB Core
         ---------------------------------------------------------

  ==> Geometry <==

    Molecular point group: c1
    Full point group: C1

    Geometry (in Angstrom), charge = 0, multiplicity = 1:

       Center              X                  Y                   Z               Mass       
    ------------   -----------------  -----------------  -----------------  -----------------
           H          0.959295648032    -1.847895662656     0.778319288605     1.007825032070
           C          0.515738648032    -1.428051662656    -0.132608711395    12.000000000000
           C          1.052160648032    -0.081652662656    -0.545404711395    12.000000000000
           O         -0.325229351968    -2.029244662656    -0.718670711395    15.994914619560
           C          0.908854648032     0.959686337344     0.572392288605    12.000000000000
           H          0.533477648032     0.229660337344    -1.444589711395     1.007825032070
           H          2.106513648032    -0.205167662656    -0.790179711395     1.007825032070
           C         -0.384039351968     1.769631337344     0.462202288605    12.000000000000
           H          0.939129648032     0.457210337344     1.536433288605     1.007825032070
           H          1.760528648032     1.637206337344     0.550569288605     1.007825032070
           C         -1.629991351968     0.888763337344     0.381666288605    12.000000000000
           H         -0.333772351968     2.407388337344    -0.416911711395     1.007825032070
           H         -0.464699351968     2.434413337344     1.319304288605     1.007825032070
           H         -1.593500351968     0.236771337344    -0.486195711395     1.007825032070
           H         -2.529906351968     1.490546337344     0.305556288605     1.007825032070
           H         -1.725007351968     0.261372337344     1.263334288605     1.007825032070

  Running in c1 symmetry.

  Rotational constants: A =      0.17992  B =      0.08278  C =      0.06270 [cm^-1]
  Rotational constants: A =   5393.87422  B =   2481.69596  C =   1879.60480 [MHz]
  Nuclear repulsion =  241.478249414161354

  Charge       = 0
  Multiplicity = 1
  Electrons    = 48
  Nalpha       = 24
  Nbeta        = 24

  ==> Algorithm <==

  SCF Algorithm Type is DF.
  DIIS enabled.
  MOM disabled.
  Fractional occupation disabled.
  Guess Type is CORE.
  Energy threshold   = 1.00e-06
  Density threshold  = 1.00e-06
  Integral threshold = 0.00e+00

  ==> Primary Basis <==

  Basis Set: 6-31G*
    Number of shells: 56
    Number of basis function: 110
    Number of Cartesian functions: 110
    Spherical Harmonics?: false
    Max angular momentum: 2

  ==> Pre-Iterations <==

   -------------------------------------------------------
    Irrep   Nso     Nmo     Nalpha   Nbeta   Ndocc  Nsocc
   -------------------------------------------------------
     A        110     110       0       0       0       0
   -------------------------------------------------------
    Total     110     110      24      24      24       0
   -------------------------------------------------------

 OEINTS: Overlap, kinetic, potential, dipole, and quadrupole integrals
         stored in file 35.

  ==> Integral Setup <==

  ==> DFJK: Density-Fitted J/K Matrices <==

    J tasked:                  Yes
    K tasked:                  Yes
    wK tasked:                  No
    OpenMP threads:              1
    Integrals threads:           1
    Memory (MB):              1430
    Algorithm:                Core
    Integral Cache:           NONE
    Schwarz Cutoff:          1E-12
    Fitting Condition:       1E-12

   => Auxiliary Basis Set <=

  Basis Set: 
    Number of shells: 234
    Number of basis function: 736
    Number of Cartesian functions: 736
    Spherical Harmonics?: false
    Max angular momentum: 3

  Minimum eigenvalue in the overlap matrix is 4.2315187479E-03.
  Using Symmetric Orthogonalization.
  SCF Guess: Core (One-Electron) Hamiltonian.

  ==> Iterations <==

                           Total Energy        Delta E     RMS |[F,P]|

   @DF-RHF iter   1:  -209.84859672525559   -2.09849e+02   7.34418e-02 
   @DF-RHF iter   2:  -154.67634019388268    5.51723e+01   7.00000e-02 DIIS
   @DF-RHF iter   3:  -230.52762340920165   -7.58513e+01   4.18288e-02 DIIS
   @DF-RHF iter   4:  -218.65138028447942    1.18762e+01   6.26470e-02 DIIS
   @DF-RHF iter   5:  -264.11015090205001   -4.54588e+01   2.53762e-02 DIIS
   @DF-RHF iter   6:  -269.38484521548673   -5.27469e+00   9.58597e-03 DIIS
   @DF-RHF iter   7:  -269.85274080197087   -4.67896e-01   5.21165e-03 DIIS
   @DF-RHF iter   8:  -270.00140503421812   -1.48664e-01   1.10599e-03 DIIS
   @DF-RHF iter   9:  -270.01260473249476   -1.11997e-02   4.24092e-04 DIIS
   @DF-RHF iter  10:  -270.01415646993019   -1.55174e-03   1.50200e-04 DIIS
   @DF-RHF iter  11:  -270.01438335884745   -2.26889e-04   3.76051e-05 DIIS
   @DF-RHF iter  12:  -270.01440294189649   -1.95830e-05   1.13773e-05 DIIS
   @DF-RHF iter  13:  -270.01440523269935   -2.29080e-06   5.11078e-06 DIIS
   @DF-RHF iter  14:  -270.01440599159059   -7.58891e-07   2.46903e-06 DIIS
   @DF-RHF iter  15:  -270.01440625149826   -2.59908e-07   9.50527e-07 DIIS

  ==> Post-Iterations <==

    Orbital Energies (a.u.)
    -----------------------

    Doubly Occupied:                                                      

       1A    -20.562966     2A    -11.327762     3A    -11.235244  
       4A    -11.234654     5A    -11.224427     6A    -11.209140  
       7A     -1.403626     8A     -1.097595     9A     -1.009274  
      10A     -0.911454    11A     -0.809117    12A     -0.789200  
      13A     -0.671915    14A     -0.648261    15A     -0.638858  
      16A     -0.600331    17A     -0.563309    18A     -0.551791  
      19A     -0.533754    20A     -0.522002    21A     -0.481217  
      22A     -0.474014    23A     -0.462380    24A     -0.411792  

    Virtual:                                                              

      25A      0.157231    26A      0.232957    27A      0.260037  
      28A      0.270774    29A      0.286126    30A      0.289956  
      31A      0.309460    32A      0.323791    33A      0.336295  
      34A      0.344438    35A      0.365974    36A      0.382652  
      37A      0.401835    38A      0.449638    39A      0.483826  
      40A      0.497414    41A      0.698193    42A      0.713873  
      43A      0.738492    44A      0.755251    45A      0.772570  
      46A      0.802620    47A      0.864262    48A      0.905431  
      49A      0.925761    50A      0.952182    51A      0.958316  
      52A      0.990329    53A      0.994634    54A      1.050828  
      55A      1.085439    56A      1.104091    57A      1.116436  
      58A      1.136121    59A      1.148753    60A      1.159876  
      61A      1.204258    62A      1.208278    63A      1.216002  
      64A      1.224724    65A      1.240589    66A      1.247721  
      67A      1.291733    68A      1.358171    69A      1.401701  
      70A      1.444966    71A      1.595055    72A      1.652288  
      73A      1.720973    74A      1.736258    75A      1.810957  
      76A      1.874265    77A      1.889599    78A      1.953678  
      79A      2.012025    80A      2.020596    81A      2.116074  
      82A      2.145516    83A      2.178225    84A      2.253545  
      85A      2.267598    86A      2.275693    87A      2.331947  
      88A      2.389107    89A      2.437431    90A      2.443242  
      91A      2.556605    92A      2.607554    93A      2.652182  
      94A      2.673755    95A      2.707442    96A      2.755621  
      97A      2.809958    98A      2.931116    99A      2.938883  
     100A      2.966235   101A      3.013187   102A      3.072609  
     103A      3.259542   104A      3.367098   105A      4.312527  
     106A      4.529299   107A      4.619254   108A      4.735794  
     109A      4.889968   110A      4.968442  

    Final Occupation by Irrep:
              A 
    DOCC [    24 ]

  Energy converged.

  @DF-RHF Final Energy:  -270.01440625149826

   => Energetics <=

    Nuclear Repulsion Energy =            241.4782494141613540
    One-Electron Energy =                -844.2370698803557616
    Two-Electron Energy =                 332.7444142146954960
    DFT Exchange-Correlation Energy =       0.0000000000000000
    Empirical Dispersion Energy =           0.0000000000000000
    PCM Polarization Energy =               0.0000000000000000
    EFP Energy =                            0.0000000000000000
    Total Energy =                       -270.0144062514988832

    Alert: EFP and PCM quantities not currently incorporated into SCF psivars.

Properties will be evaluated at   0.000000,   0.000000,   0.000000 Bohr
  ==> Properties <==


Properties computed using the SCF density matrix

  Nuclear Dipole Moment: (a.u.)
     X:    -0.3277      Y:     6.6477      Z:     2.4486

  Electronic Dipole Moment: (a.u.)
     X:     1.0990      Y:    -5.8755      Z:    -1.9884

  Dipole Moment: (a.u.)
     X:     0.7713      Y:     0.7722      Z:     0.4603     Total:     1.1845

  Dipole Moment: (Debye)
     X:     1.9604      Y:     1.9627      Z:     1.1699     Total:     3.0107


  Saving occupied orbitals to File 180.

*** tstop() called on cx1-1-3-3.cx1.hpc.ic.ac.uk at Tue Jul  5 16:40:39 2016
Module time:
	user time   =       7.02 seconds =       0.12 minutes
	system time =       0.06 seconds =       0.00 minutes
	total time  =          8 seconds =       0.13 minutes
Total time:
	user time   =       7.02 seconds =       0.12 minutes
	system time =       0.06 seconds =       0.00 minutes
	total time  =          8 seconds =       0.13 minutes


Properties will be evaluated at   0.000000,   0.000000,   0.000000 Bohr

Properties computed using the  density matrix

  Nuclear Dipole Moment: (a.u.)
     X:    -0.3277      Y:     6.6477      Z:     2.4486

  Electronic Dipole Moment: (a.u.)
     X:     1.0990      Y:    -5.8755      Z:    -1.9884

  Dipole Moment: (a.u.)
     X:     0.7713      Y:     0.7722      Z:     0.4603     Total:     1.1845

  Dipole Moment: (Debye)
     X:     1.9604      Y:     1.9627      Z:     1.1699     Total:     3.0107

  Quadrupole Moment: (Debye Ang)
    XX:   -37.4683     YY:   -43.4589     ZZ:   -38.8694
    XY:    -3.2225     XZ:    -0.8881     YZ:    -3.0877

  Traceless Quadrupole Moment: (Debye Ang)
    XX:     2.4639     YY:    -3.5267     ZZ:     1.0628
    XY:    -3.2225     XZ:    -0.8881     YZ:    -3.0877

  Mulliken Charges: (a.u.)
   Center  Symbol    Alpha    Beta     Spin     Total
       1     H     0.42995  0.42995  0.00000  0.14010
       2     C     2.83051  2.83051  0.00000  0.33897
       3     C     3.21286  3.21286  0.00000 -0.42573
       4     O     4.23902  4.23902  0.00000 -0.47805
       5     C     3.16668  3.16668  0.00000 -0.33336
       6     H     0.39795  0.39795  0.00000  0.20409
       7     H     0.40515  0.40515  0.00000  0.18969
       8     C     3.15146  3.15146  0.00000 -0.30291
       9     H     0.41857  0.41857  0.00000  0.16285
      10     H     0.41234  0.41234  0.00000  0.17532
      11     C     3.25405  3.25405  0.00000 -0.50810
      12     H     0.41991  0.41991  0.00000  0.16017
      13     H     0.41860  0.41860  0.00000  0.16280
      14     H     0.40457  0.40457  0.00000  0.19086
      15     H     0.41666  0.41666  0.00000  0.16668
      16     H     0.42169  0.42169  0.00000  0.15661

   Total alpha = 24.00000, Total beta = 24.00000, Total charge =  0.00000


*** PSI4 exiting successfully. Buy a developer a beer!
