    -----------------------------------------------------------------------
          Psi4: An Open-Source Ab Initio Electronic Structure Package
                              Psi4 (no tag) Driver

                          Git: Rev {detached?}  

    J. M. Turney, A. C. Simmonett, R. M. Parrish, E. G. Hohenstein,
    F. A. Evangelista, J. T. Fermann, B. J. Mintz, L. A. Burns, J. J. Wilke,
    M. L. Abrams, N. J. Russ, M. L. Leininger, C. L. Janssen, E. T. Seidl,
    W. D. Allen, H. F. Schaefer, R. A. King, E. F. Valeev, C. D. Sherrill,
    and T. D. Crawford, WIREs Comput. Mol. Sci. 2, 556-565 (2012)
    (doi: 10.1002/wcms.93)

                         Additional Contributions by
    A. E. DePrince, M. Saitow, U. Bozkaya, A. Yu. Sokolov
    -----------------------------------------------------------------------


    Psi4 started on: Tue Jul  5 16:34:08 2016

    Process ID:  28541
    PSI4DATADIR: /export131/home/mjharvey/miniconda3/share
    Memory level set to 256.000 MB

  ==> Input File <==

--------------------------------------------------------------------------
set {
	reference rhf
	basis 6-31G*
}


set_num_threads( 1 )
memory 2 gb

molecule MOL {
0 1

H	 3.128358	 -2.107430	 0.298459
C	 2.298357	 -2.593567	 -0.204056
C	 1.064137	 -1.692886	 -0.224940
H	 2.621732	 -2.839700	 -1.211564
H	 2.098677	 -3.526362	 0.315818
C	 -0.127859	 -2.340084	 -0.922563
H	 1.291482	 -0.757008	 -0.725776
H	 0.787035	 -1.438320	 0.796726
N	 -1.268658	 -1.446027	 -0.948991
H	 0.140067	 -2.570552	 -1.950212
H	 -0.358918	 -3.296365	 -0.441402
C	 -1.217365	 -0.386708	 0.039277
H	 -1.355622	 -1.044301	 -1.863373
C	 -2.452633	 0.504241	 -0.042481
H	 -1.172857	 -0.848333	 1.022069
H	 -0.315698	 0.227728	 -0.054795
C	 -3.758029	 -0.289423	 -0.010781
H	 -2.394220	 1.093569	 -0.952170
H	 -2.440793	 1.210787	 0.785871
H	 -3.816659	 -0.981993	 -0.845726
H	 -4.617837	 0.370165	 -0.069296
H	 -3.847478	 -0.867502	 0.904682

	symmetry c1
}
set optking {
	frozen_dihedral = ("
		15 12 14 18
	")
}

ee = energy('scf')
oeprop('DIPOLE', 'QUADRUPOLE', 'MULLIKEN_CHARGES')
f=open( 'psi4out.xyz', 'w' )
f.write( "22  " )
f.write( str(ee) + "\n" )
f.write( MOL.save_string_xyz() )
f.close()
--------------------------------------------------------------------------

  Memory set to   2.000 GiB by Python script.

*** tstart() called on cx1-3-1-3.cx1.hpc.ic.ac.uk
*** at Tue Jul  5 16:34:08 2016


         ---------------------------------------------------------
                                   SCF
            by Justin Turney, Rob Parrish, and Andy Simmonett
                              RHF Reference
                        1 Threads,   2000 MiB Core
         ---------------------------------------------------------

  ==> Geometry <==

    Molecular point group: c1
    Full point group: C1

    Geometry (in Angstrom), charge = 0, multiplicity = 1:

       Center              X                  Y                   Z               Mass       
    ------------   -----------------  -----------------  -----------------  -----------------
           H          3.903856677156    -0.927238164808     0.631697584714     1.007825032070
           C          3.073855677156    -1.413375164808     0.129182584714    12.000000000000
           C          1.839635677156    -0.512694164808     0.108298584714    12.000000000000
           H          3.397230677156    -1.659508164808    -0.878325415286     1.007825032070
           H          2.874175677156    -2.346170164808     0.649056584714     1.007825032070
           C          0.647639677156    -1.159892164808    -0.589324415286    12.000000000000
           H          2.066980677156     0.423183835192    -0.392537415286     1.007825032070
           H          1.562533677156    -0.258128164808     1.129964584714     1.007825032070
           N         -0.493159322844    -0.265835164808    -0.615752415286    14.003074004780
           H          0.915565677156    -1.390360164808    -1.616973415286     1.007825032070
           H          0.416580677156    -2.116173164808    -0.108163415286     1.007825032070
           C         -0.441866322844     0.793483835192     0.372515584714    12.000000000000
           H         -0.580123322844     0.135890835192    -1.530134415286     1.007825032070
           C         -1.677134322844     1.684432835192     0.290757584714    12.000000000000
           H         -0.397358322844     0.331858835192     1.355307584714     1.007825032070
           H          0.459800677156     1.407919835192     0.278443584714     1.007825032070
           C         -2.982530322844     0.890768835192     0.322457584714    12.000000000000
           H         -1.618721322844     2.273760835192    -0.618931415286     1.007825032070
           H         -1.665294322844     2.390978835192     1.119109584714     1.007825032070
           H         -3.041160322844     0.198198835192    -0.512487415286     1.007825032070
           H         -3.842338322844     1.550356835192     0.263942584714     1.007825032070
           H         -3.071979322844     0.312689835192     1.237920584714     1.007825032070

  Running in c1 symmetry.

  Rotational constants: A =      0.25370  B =      0.03423  C =      0.03205 [cm^-1]
  Rotational constants: A =   7605.62438  B =   1026.17004  C =    960.92580 [MHz]
  Nuclear repulsion =  325.993390098407417

  Charge       = 0
  Multiplicity = 1
  Electrons    = 58
  Nalpha       = 29
  Nbeta        = 29

  ==> Algorithm <==

  SCF Algorithm Type is DF.
  DIIS enabled.
  MOM disabled.
  Fractional occupation disabled.
  Guess Type is CORE.
  Energy threshold   = 1.00e-06
  Density threshold  = 1.00e-06
  Integral threshold = 0.00e+00

  ==> Primary Basis <==

  Basis Set: 6-31G*
    Number of shells: 72
    Number of basis function: 135
    Number of Cartesian functions: 135
    Spherical Harmonics?: false
    Max angular momentum: 2

  ==> Pre-Iterations <==

   -------------------------------------------------------
    Irrep   Nso     Nmo     Nalpha   Nbeta   Ndocc  Nsocc
   -------------------------------------------------------
     A        135     135       0       0       0       0
   -------------------------------------------------------
    Total     135     135      29      29      29       0
   -------------------------------------------------------

 OEINTS: Overlap, kinetic, potential, dipole, and quadrupole integrals
         stored in file 35.

  ==> Integral Setup <==

  ==> DFJK: Density-Fitted J/K Matrices <==

    J tasked:                  Yes
    K tasked:                  Yes
    wK tasked:                  No
    OpenMP threads:              1
    Integrals threads:           1
    Memory (MB):              1430
    Algorithm:                Core
    Integral Cache:           NONE
    Schwarz Cutoff:          1E-12
    Fitting Condition:       1E-12

   => Auxiliary Basis Set <=

  Basis Set: 
    Number of shells: 303
    Number of basis function: 942
    Number of Cartesian functions: 942
    Spherical Harmonics?: false
    Max angular momentum: 3

  Minimum eigenvalue in the overlap matrix is 3.2230266104E-03.
  Using Symmetric Orthogonalization.
  SCF Guess: Core (One-Electron) Hamiltonian.

  ==> Iterations <==

                           Total Energy        Delta E     RMS |[F,P]|

   @DF-RHF iter   1:  -205.27529607496524   -2.05275e+02   7.17113e-02 
   @DF-RHF iter   2:  -156.31913035597177    4.89562e+01   6.25693e-02 DIIS
   @DF-RHF iter   3:  -252.29899815016859   -9.59799e+01   4.19095e-02 DIIS
   @DF-RHF iter   4:  -255.63187356221840   -3.33288e+00   4.70385e-02 DIIS
   @DF-RHF iter   5:  -283.30023329105722   -2.76684e+01   2.21037e-02 DIIS
   @DF-RHF iter   6:  -289.95039738071455   -6.65016e+00   6.25546e-03 DIIS
   @DF-RHF iter   7:  -290.34586521781762   -3.95468e-01   1.20554e-03 DIIS
   @DF-RHF iter   8:  -290.36256126494220   -1.66960e-02   3.86711e-04 DIIS
   @DF-RHF iter   9:  -290.36452143212944   -1.96017e-03   1.02359e-04 DIIS
   @DF-RHF iter  10:  -290.36467055584012   -1.49124e-04   3.73736e-05 DIIS
   @DF-RHF iter  11:  -290.36469032350328   -1.97677e-05   1.24939e-05 DIIS
   @DF-RHF iter  12:  -290.36469279012886   -2.46663e-06   4.20883e-06 DIIS
   @DF-RHF iter  13:  -290.36469307514790   -2.85019e-07   1.09566e-06 DIIS
   @DF-RHF iter  14:  -290.36469309548295   -2.03351e-08   2.54686e-07 DIIS

  ==> Post-Iterations <==

    Orbital Energies (a.u.)
    -----------------------

    Doubly Occupied:                                                      

       1A    -15.532021     2A    -11.239123     3A    -11.235710  
       4A    -11.212476     5A    -11.211730     6A    -11.209632  
       7A    -11.197614     8A     -1.209202     9A     -1.053970  
      10A     -1.022103    11A     -0.925163    12A     -0.884704  
      13A     -0.818132    14A     -0.771335    15A     -0.662193  
      16A     -0.639219    17A     -0.616183    18A     -0.607445  
      19A     -0.582043    20A     -0.545738    21A     -0.538943  
      22A     -0.532143    23A     -0.502208    24A     -0.488227  
      25A     -0.479331    26A     -0.472370    27A     -0.463129  
      28A     -0.452435    29A     -0.350627  

    Virtual:                                                              

      30A      0.221851    31A      0.240997    32A      0.254656  
      33A      0.278778    34A      0.286955    35A      0.307710  
      36A      0.310765    37A      0.314867    38A      0.328195  
      39A      0.336766    40A      0.340138    41A      0.353353  
      42A      0.367118    43A      0.370431    44A      0.382596  
      45A      0.405128    46A      0.426378    47A      0.443981  
      48A      0.454593    49A      0.479475    50A      0.505689  
      51A      0.710222    52A      0.735077    53A      0.739734  
      54A      0.749548    55A      0.756540    56A      0.781206  
      57A      0.799177    58A      0.814237    59A      0.847399  
      60A      0.903546    61A      0.927753    62A      0.954594  
      63A      0.959866    64A      0.975481    65A      1.003245  
      66A      1.028686    67A      1.076223    68A      1.102327  
      69A      1.121434    70A      1.146802    71A      1.162054  
      72A      1.168056    73A      1.172640    74A      1.185076  
      75A      1.195865    76A      1.196980    77A      1.206294  
      78A      1.217594    79A      1.225222    80A      1.228406  
      81A      1.244748    82A      1.252893    83A      1.268786  
      84A      1.290274    85A      1.303008    86A      1.373544  
      87A      1.433572    88A      1.566408    89A      1.651720  
      90A      1.661210    91A      1.694180    92A      1.722203  
      93A      1.776675    94A      1.804383    95A      1.856058  
      96A      1.922882    97A      1.945081    98A      2.006989  
      99A      2.108828   100A      2.149875   101A      2.187750  
     102A      2.256153   103A      2.274997   104A      2.292934  
     105A      2.302900   106A      2.327378   107A      2.350813  
     108A      2.386427   109A      2.426519   110A      2.441560  
     111A      2.488110   112A      2.528322   113A      2.565078  
     114A      2.622081   115A      2.656316   116A      2.679405  
     117A      2.706903   118A      2.718155   119A      2.752515  
     120A      2.781837   121A      2.813175   122A      2.878491  
     123A      2.927911   124A      2.981337   125A      3.020998  
     126A      3.099401   127A      3.183684   128A      3.274701  
     129A      4.392171   130A      4.611548   131A      4.620512  
     132A      4.746404   133A      4.785750   134A      4.920322  
     135A      4.977146  

    Final Occupation by Irrep:
              A 
    DOCC [    29 ]

  Energy converged.

  @DF-RHF Final Energy:  -290.36469309548295

   => Energetics <=

    Nuclear Repulsion Energy =            325.9933900984074171
    One-Electron Energy =               -1037.8057129748535772
    Two-Electron Energy =                 421.4476297809633252
    DFT Exchange-Correlation Energy =       0.0000000000000000
    Empirical Dispersion Energy =           0.0000000000000000
    PCM Polarization Energy =               0.0000000000000000
    EFP Energy =                            0.0000000000000000
    Total Energy =                       -290.3646930954828349

    Alert: EFP and PCM quantities not currently incorporated into SCF psivars.

Properties will be evaluated at   0.000000,   0.000000,   0.000000 Bohr
  ==> Properties <==


Properties computed using the SCF density matrix

  Nuclear Dipole Moment: (a.u.)
     X:     1.2949      Y:     0.3076      Z:     0.9467

  Electronic Dipole Moment: (a.u.)
     X:    -0.8911      Y:    -0.0465      Z:    -1.0949

  Dipole Moment: (a.u.)
     X:     0.4038      Y:     0.2610      Z:    -0.1483     Total:     0.5032

  Dipole Moment: (Debye)
     X:     1.0264      Y:     0.6635      Z:    -0.3769     Total:     1.2790


  Saving occupied orbitals to File 180.

*** tstop() called on cx1-3-1-3.cx1.hpc.ic.ac.uk at Tue Jul  5 16:34:22 2016
Module time:
	user time   =      12.88 seconds =       0.21 minutes
	system time =       0.06 seconds =       0.00 minutes
	total time  =         14 seconds =       0.23 minutes
Total time:
	user time   =      12.88 seconds =       0.21 minutes
	system time =       0.06 seconds =       0.00 minutes
	total time  =         14 seconds =       0.23 minutes


Properties will be evaluated at   0.000000,   0.000000,   0.000000 Bohr

Properties computed using the  density matrix

  Nuclear Dipole Moment: (a.u.)
     X:     1.2949      Y:     0.3076      Z:     0.9467

  Electronic Dipole Moment: (a.u.)
     X:    -0.8911      Y:    -0.0465      Z:    -1.0949

  Dipole Moment: (a.u.)
     X:     0.4038      Y:     0.2610      Z:    -0.1483     Total:     0.5032

  Dipole Moment: (Debye)
     X:     1.0264      Y:     0.6635      Z:    -0.3769     Total:     1.2790

  Quadrupole Moment: (Debye Ang)
    XX:   -50.4428     YY:   -48.0848     ZZ:   -45.1522
    XY:    -0.8973     XZ:    -0.3032     YZ:    -0.5449

  Traceless Quadrupole Moment: (Debye Ang)
    XX:    -2.5495     YY:    -0.1915     ZZ:     2.7411
    XY:    -0.8973     XZ:    -0.3032     YZ:    -0.5449

  Mulliken Charges: (a.u.)
   Center  Symbol    Alpha    Beta     Spin     Total
       1     H     0.41874  0.41874  0.00000  0.16251
       2     C     3.23934  3.23934  0.00000 -0.47867
       3     C     3.17137  3.17137  0.00000 -0.34273
       4     H     0.42265  0.42265  0.00000  0.15470
       5     H     0.42086  0.42086  0.00000  0.15829
       6     C     3.04335  3.04335  0.00000 -0.08669
       7     H     0.42111  0.42111  0.00000  0.15778
       8     H     0.41638  0.41638  0.00000  0.16724
       9     N     3.85489  3.85489  0.00000 -0.70978
      10     H     0.42490  0.42490  0.00000  0.15021
      11     H     0.42249  0.42249  0.00000  0.15502
      12     C     3.06360  3.06360  0.00000 -0.12720
      13     H     0.33350  0.33350  0.00000  0.33300
      14     C     3.15814  3.15814  0.00000 -0.31628
      15     H     0.41960  0.41960  0.00000  0.16080
      16     H     0.42843  0.42843  0.00000  0.14314
      17     C     3.23370  3.23370  0.00000 -0.46741
      18     H     0.42670  0.42670  0.00000  0.14661
      19     H     0.42136  0.42136  0.00000  0.15729
      20     H     0.41047  0.41047  0.00000  0.17907
      21     H     0.42505  0.42505  0.00000  0.14990
      22     H     0.42339  0.42339  0.00000  0.15323

   Total alpha = 29.00000, Total beta = 29.00000, Total charge = -0.00000


*** PSI4 exiting successfully. Buy a developer a beer!
