    -----------------------------------------------------------------------
          Psi4: An Open-Source Ab Initio Electronic Structure Package
                              Psi4 (no tag) Driver

                          Git: Rev {detached?}  

    J. M. Turney, A. C. Simmonett, R. M. Parrish, E. G. Hohenstein,
    F. A. Evangelista, J. T. Fermann, B. J. Mintz, L. A. Burns, J. J. Wilke,
    M. L. Abrams, N. J. Russ, M. L. Leininger, C. L. Janssen, E. T. Seidl,
    W. D. Allen, H. F. Schaefer, R. A. King, E. F. Valeev, C. D. Sherrill,
    and T. D. Crawford, WIREs Comput. Mol. Sci. 2, 556-565 (2012)
    (doi: 10.1002/wcms.93)

                         Additional Contributions by
    A. E. DePrince, M. Saitow, U. Bozkaya, A. Yu. Sokolov
    -----------------------------------------------------------------------


    Psi4 started on: Tue Jul  5 16:45:46 2016

    Process ID:  30523
    PSI4DATADIR: /export131/home/mjharvey/miniconda3/share
    Memory level set to 256.000 MB

  ==> Input File <==

--------------------------------------------------------------------------
set {
	reference rhf
	basis 6-31G*
}


set_num_threads( 1 )
memory 2 gb

molecule MOL {
0 1

H	 -1.199416	 -0.229262	 -2.112621
O	 -0.693165	 -1.018407	 -2.279191
C	 -0.424494	 -1.592694	 -1.107166
C	 -0.318135	 -0.576402	 0.000164
O	 -0.292714	 -2.767802	 -0.994247
C	 -1.454360	 0.441875	 -0.000474
H	 -0.278694	 -1.122640	 0.938818
H	 0.648115	 -0.089019	 -0.098941
C	 -2.826123	 -0.230780	 0.000056
H	 -1.357605	 1.085198	 -0.868380
H	 -1.357504	 1.086451	 0.866496
H	 -2.959731	 -0.858053	 -0.876869
H	 -3.619374	 0.509403	 -0.000080
H	 -2.959371	 -0.857318	 0.877556

	symmetry c1
}
set optking {
	frozen_dihedral = ("
		7 4 6 10,
		2 3 4 7
	")
}

ee = energy('scf')
oeprop('DIPOLE', 'QUADRUPOLE', 'MULLIKEN_CHARGES')
f=open( 'psi4out.xyz', 'w' )
f.write( "14  " )
f.write( str(ee) + "\n" )
f.write( MOL.save_string_xyz() )
f.close()
--------------------------------------------------------------------------

  Memory set to   2.000 GiB by Python script.

*** tstart() called on cx1-3-16-4.cx1.hpc.ic.ac.uk
*** at Tue Jul  5 16:45:47 2016


         ---------------------------------------------------------
                                   SCF
            by Justin Turney, Rob Parrish, and Andy Simmonett
                              RHF Reference
                        1 Threads,   2000 MiB Core
         ---------------------------------------------------------

  ==> Geometry <==

    Molecular point group: c1
    Full point group: C1

    Geometry (in Angstrom), charge = 0, multiplicity = 1:

       Center              X                  Y                   Z               Mass       
    ------------   -----------------  -----------------  -----------------  -----------------
           H         -0.186015752280     0.730791696862    -1.352489883108     1.007825032070
           O          0.320235247720    -0.058353303138    -1.519059883108    15.994914619560
           C          0.588906247720    -0.632640303138    -0.347034883108    12.000000000000
           C          0.695265247720     0.383651696862     0.760295116892    12.000000000000
           O          0.720686247720    -1.807748303138    -0.234115883108    15.994914619560
           C         -0.440959752280     1.401928696862     0.759657116892    12.000000000000
           H          0.734706247720    -0.162586303138     1.698949116892     1.007825032070
           H          1.661515247720     0.871034696862     0.661190116892     1.007825032070
           C         -1.812722752280     0.729273696862     0.760187116892    12.000000000000
           H         -0.344204752280     2.045251696862    -0.108248883108     1.007825032070
           H         -0.344103752280     2.046504696862     1.626627116892     1.007825032070
           H         -1.946330752280     0.102000696862    -0.116737883108     1.007825032070
           H         -2.605973752280     1.469456696862     0.760051116892     1.007825032070
           H         -1.945970752280     0.102735696862     1.637687116892     1.007825032070

  Running in c1 symmetry.

  Rotational constants: A =      0.19631  B =      0.08226  C =      0.07923 [cm^-1]
  Rotational constants: A =   5885.21286  B =   2466.22345  C =   2375.36222 [MHz]
  Nuclear repulsion =  249.062409757693871

  Charge       = 0
  Multiplicity = 1
  Electrons    = 48
  Nalpha       = 24
  Nbeta        = 24

  ==> Algorithm <==

  SCF Algorithm Type is DF.
  DIIS enabled.
  MOM disabled.
  Fractional occupation disabled.
  Guess Type is CORE.
  Energy threshold   = 1.00e-06
  Density threshold  = 1.00e-06
  Integral threshold = 0.00e+00

  ==> Primary Basis <==

  Basis Set: 6-31G*
    Number of shells: 52
    Number of basis function: 106
    Number of Cartesian functions: 106
    Spherical Harmonics?: false
    Max angular momentum: 2

  ==> Pre-Iterations <==

   -------------------------------------------------------
    Irrep   Nso     Nmo     Nalpha   Nbeta   Ndocc  Nsocc
   -------------------------------------------------------
     A        106     106       0       0       0       0
   -------------------------------------------------------
    Total     106     106      24      24      24       0
   -------------------------------------------------------

 OEINTS: Overlap, kinetic, potential, dipole, and quadrupole integrals
         stored in file 35.

  ==> Integral Setup <==

  ==> DFJK: Density-Fitted J/K Matrices <==

    J tasked:                  Yes
    K tasked:                  Yes
    wK tasked:                  No
    OpenMP threads:              1
    Integrals threads:           1
    Memory (MB):              1430
    Algorithm:                Core
    Integral Cache:           NONE
    Schwarz Cutoff:          1E-12
    Fitting Condition:       1E-12

   => Auxiliary Basis Set <=

  Basis Set: 
    Number of shells: 216
    Number of basis function: 686
    Number of Cartesian functions: 686
    Spherical Harmonics?: false
    Max angular momentum: 3

  Minimum eigenvalue in the overlap matrix is 3.5020278442E-03.
  Using Symmetric Orthogonalization.
  SCF Guess: Core (One-Electron) Hamiltonian.

  ==> Iterations <==

                           Total Energy        Delta E     RMS |[F,P]|

   @DF-RHF iter   1:  -244.10872368829897   -2.44109e+02   7.51316e-02 
   @DF-RHF iter   2:  -166.46043340307520    7.76483e+01   8.52373e-02 DIIS
   @DF-RHF iter   3:  -281.46240411705719   -1.15002e+02   3.63966e-02 DIIS
   @DF-RHF iter   4:  -238.38845437824293    4.30739e+01   7.98241e-02 DIIS
   @DF-RHF iter   5:  -270.92703286266567   -3.25386e+01   6.03065e-02 DIIS
   @DF-RHF iter   6:  -286.68903182077679   -1.57620e+01   4.53119e-02 DIIS
   @DF-RHF iter   7:  -298.50088299796539   -1.18119e+01   2.98557e-02 DIIS
   @DF-RHF iter   8:  -304.92620698924304   -6.42532e+00   1.27578e-02 DIIS
   @DF-RHF iter   9:  -305.72129772501432   -7.95091e-01   5.06767e-03 DIIS
   @DF-RHF iter  10:  -305.84121841103877   -1.19921e-01   1.42543e-03 DIIS
   @DF-RHF iter  11:  -305.85697145858319   -1.57530e-02   5.47097e-04 DIIS
   @DF-RHF iter  12:  -305.85936917226820   -2.39771e-03   1.43085e-04 DIIS
   @DF-RHF iter  13:  -305.85956241007977   -1.93238e-04   4.46250e-05 DIIS
   @DF-RHF iter  14:  -305.85957836757541   -1.59575e-05   1.51060e-05 DIIS
   @DF-RHF iter  15:  -305.85958037411058   -2.00654e-06   4.62781e-06 DIIS
   @DF-RHF iter  16:  -305.85958057465280   -2.00542e-07   1.09178e-06 DIIS
   @DF-RHF iter  17:  -305.85958059495636   -2.03036e-08   3.90650e-07 DIIS

  ==> Post-Iterations <==

    Orbital Energies (a.u.)
    -----------------------

    Doubly Occupied:                                                      

       1A    -20.608736     2A    -20.549211     3A    -11.379078  
       4A    -11.256777     5A    -11.248792     6A    -11.236499  
       7A     -1.468899     8A     -1.368613     9A     -1.104593  
      10A     -0.985111    11A     -0.868951    12A     -0.818755  
      13A     -0.729920    14A     -0.671605    15A     -0.661086  
      16A     -0.631319    17A     -0.605557    18A     -0.586122  
      19A     -0.541422    20A     -0.530692    21A     -0.514222  
      22A     -0.508808    23A     -0.472654    24A     -0.437100  

    Virtual:                                                              

      25A      0.184694    26A      0.193560    27A      0.256669  
      28A      0.270481    29A      0.281311    30A      0.296525  
      31A      0.316168    32A      0.325267    33A      0.355939  
      34A      0.373195    35A      0.415592    36A      0.429604  
      37A      0.502367    38A      0.576997    39A      0.690566  
      40A      0.696646    41A      0.738950    42A      0.777793  
      43A      0.818868    44A      0.837385    45A      0.877253  
      46A      0.885785    47A      0.922507    48A      0.940852  
      49A      0.995787    50A      1.013134    51A      1.078784  
      52A      1.096741    53A      1.123789    54A      1.128556  
      55A      1.160735    56A      1.178645    57A      1.192622  
      58A      1.204670    59A      1.219631    60A      1.228125  
      61A      1.262379    62A      1.324820    63A      1.343509  
      64A      1.367950    65A      1.404052    66A      1.544242  
      67A      1.554730    68A      1.628179    69A      1.680711  
      70A      1.757462    71A      1.812880    72A      1.885016  
      73A      1.933861    74A      1.964243    75A      2.038646  
      76A      2.059192    77A      2.121483    78A      2.132744  
      79A      2.157815    80A      2.186075    81A      2.225555  
      82A      2.276213    83A      2.306767    84A      2.380186  
      85A      2.407481    86A      2.454355    87A      2.599532  
      88A      2.632793    89A      2.658601    90A      2.684997  
      91A      2.765496    92A      2.788577    93A      2.840759  
      94A      2.905751    95A      2.998669    96A      3.044905  
      97A      3.132773    98A      3.233860    99A      3.387583  
     100A      3.489826   101A      4.326770   102A      4.509594  
     103A      4.606388   104A      4.735347   105A      4.841640  
     106A      4.954861  

    Final Occupation by Irrep:
              A 
    DOCC [    24 ]

  Energy converged.

  @DF-RHF Final Energy:  -305.85958059495636

   => Energetics <=

    Nuclear Repulsion Energy =            249.0624097576938709
    One-Electron Energy =                -910.2749100759692737
    Two-Electron Energy =                 355.3529197233187915
    DFT Exchange-Correlation Energy =       0.0000000000000000
    Empirical Dispersion Energy =           0.0000000000000000
    PCM Polarization Energy =               0.0000000000000000
    EFP Energy =                            0.0000000000000000
    Total Energy =                       -305.8595805949565829

    Alert: EFP and PCM quantities not currently incorporated into SCF psivars.

Properties will be evaluated at   0.000000,   0.000000,   0.000000 Bohr
  ==> Properties <==


Properties computed using the SCF density matrix

  Nuclear Dipole Moment: (a.u.)
     X:    -4.6602      Y:     6.7457      Z:     4.4980

  Electronic Dipole Moment: (a.u.)
     X:     4.1851      Y:    -5.0115      Z:    -3.8508

  Dipole Moment: (a.u.)
     X:    -0.4751      Y:     1.7342      Z:     0.6472     Total:     1.9110

  Dipole Moment: (Debye)
     X:    -1.2075      Y:     4.4079      Z:     1.6451     Total:     4.8574


  Saving occupied orbitals to File 180.

*** tstop() called on cx1-3-16-4.cx1.hpc.ic.ac.uk at Tue Jul  5 16:45:54 2016
Module time:
	user time   =       6.64 seconds =       0.11 minutes
	system time =       0.05 seconds =       0.00 minutes
	total time  =          7 seconds =       0.12 minutes
Total time:
	user time   =       6.64 seconds =       0.11 minutes
	system time =       0.05 seconds =       0.00 minutes
	total time  =          7 seconds =       0.12 minutes


Properties will be evaluated at   0.000000,   0.000000,   0.000000 Bohr

Properties computed using the  density matrix

  Nuclear Dipole Moment: (a.u.)
     X:    -4.6602      Y:     6.7457      Z:     4.4980

  Electronic Dipole Moment: (a.u.)
     X:     4.1851      Y:    -5.0115      Z:    -3.8508

  Dipole Moment: (a.u.)
     X:    -0.4751      Y:     1.7342      Z:     0.6472     Total:     1.9110

  Dipole Moment: (Debye)
     X:    -1.2075      Y:     4.4079      Z:     1.6451     Total:     4.8574

  Quadrupole Moment: (Debye Ang)
    XX:   -35.9118     YY:   -41.9474     ZZ:   -38.2310
    XY:     1.7244     XZ:     1.3302     YZ:    -1.8960

  Traceless Quadrupole Moment: (Debye Ang)
    XX:     2.7849     YY:    -3.2507     ZZ:     0.4658
    XY:     1.7244     XZ:     1.3302     YZ:    -1.8960

  Mulliken Charges: (a.u.)
   Center  Symbol    Alpha    Beta     Spin     Total
       1     H     0.25977  0.25977  0.00000  0.48045
       2     O     4.35368  4.35368  0.00000 -0.70736
       3     C     2.62213  2.62213  0.00000  0.75574
       4     C     3.21332  3.21332  0.00000 -0.42663
       5     O     4.26500  4.26500  0.00000 -0.53001
       6     C     3.19162  3.19162  0.00000 -0.38323
       7     H     0.39478  0.39478  0.00000  0.21044
       8     H     0.39560  0.39560  0.00000  0.20880
       9     C     3.25049  3.25049  0.00000 -0.50097
      10     H     0.42186  0.42186  0.00000  0.15627
      11     H     0.40010  0.40010  0.00000  0.19981
      12     H     0.41342  0.41342  0.00000  0.17317
      13     H     0.41043  0.41043  0.00000  0.17914
      14     H     0.40781  0.40781  0.00000  0.18439

   Total alpha = 24.00000, Total beta = 24.00000, Total charge =  0.00000


*** PSI4 exiting successfully. Buy a developer a beer!
