    -----------------------------------------------------------------------
          Psi4: An Open-Source Ab Initio Electronic Structure Package
                              Psi4 (no tag) Driver

                          Git: Rev {detached?}  

    J. M. Turney, A. C. Simmonett, R. M. Parrish, E. G. Hohenstein,
    F. A. Evangelista, J. T. Fermann, B. J. Mintz, L. A. Burns, J. J. Wilke,
    M. L. Abrams, N. J. Russ, M. L. Leininger, C. L. Janssen, E. T. Seidl,
    W. D. Allen, H. F. Schaefer, R. A. King, E. F. Valeev, C. D. Sherrill,
    and T. D. Crawford, WIREs Comput. Mol. Sci. 2, 556-565 (2012)
    (doi: 10.1002/wcms.93)

                         Additional Contributions by
    A. E. DePrince, M. Saitow, U. Bozkaya, A. Yu. Sokolov
    -----------------------------------------------------------------------


    Psi4 started on: Tue Jul  5 17:14:29 2016

    Process ID:   3908
    PSI4DATADIR: /export131/home/mjharvey/miniconda3/share
    Memory level set to 256.000 MB

  ==> Input File <==

--------------------------------------------------------------------------
set {
	reference rhf
	basis 6-31G*
}


set_num_threads( 1 )
memory 2 gb

molecule MOL {
0 1

H	 -2.404166	 0.207073	 -2.506724
C	 -3.036212	 0.869054	 -1.901810
C	 -2.742482	 0.854552	 -0.423255
O	 -3.877666	 1.528831	 -2.419883
C	 -4.015009	 0.748661	 0.428634
H	 -2.056950	 0.040374	 -0.218633
H	 -2.231684	 1.787873	 -0.189475
C	 -4.902224	 1.994114	 0.357958
H	 -4.580638	 -0.116544	 0.095814
H	 -3.741279	 0.551162	 1.463923
C	 -6.253274	 1.803461	 1.050150
H	 -5.062659	 2.258041	 -0.685331
H	 -4.386047	 2.840886	 0.806374
C	 -7.144331	 3.045428	 0.963640
H	 -6.759475	 0.950440	 0.605350
H	 -6.089580	 1.551128	 2.097010
C	 -8.476090	 2.930578	 1.714174
H	 -7.340708	 3.275648	 -0.082366
H	 -6.595566	 3.895780	 1.362978
C	 -9.441535	 1.892099	 1.140506
H	 -8.962502	 3.902772	 1.700334
H	 -8.281521	 2.704290	 2.760528
H	 -9.641833	 2.084110	 0.089658
H	 -9.050397	 0.883621	 1.223924
H	 -10.390864	 1.916855	 1.666962

	symmetry c1
}
set optking {
	frozen_dihedral = ("
		6 3 5 8,
		6 3 2 4,
		12 8 11 14,
		8 11 14 18,
		20 17 14 18
	")
}

ee = energy('scf')
oeprop('DIPOLE', 'QUADRUPOLE', 'MULLIKEN_CHARGES')
f=open( 'psi4out.xyz', 'w' )
f.write( "25  " )
f.write( str(ee) + "\n" )
f.write( MOL.save_string_xyz() )
f.close()
--------------------------------------------------------------------------

  Memory set to   2.000 GiB by Python script.

*** tstart() called on cx1-3-1-3.cx1.hpc.ic.ac.uk
*** at Tue Jul  5 17:14:30 2016


         ---------------------------------------------------------
                                   SCF
            by Justin Turney, Rob Parrish, and Andy Simmonett
                              RHF Reference
                        1 Threads,   2000 MiB Core
         ---------------------------------------------------------

  ==> Geometry <==

    Molecular point group: c1
    Full point group: C1

    Geometry (in Angstrom), charge = 0, multiplicity = 1:

       Center              X                  Y                   Z               Mass       
    ------------   -----------------  -----------------  -----------------  -----------------
           H          3.156992161304    -1.534005945419    -2.596672464700     1.007825032070
           C          2.524946161304    -0.872024945419    -1.991758464700    12.000000000000
           C          2.818676161304    -0.886526945419    -0.513203464700    12.000000000000
           O          1.683492161304    -0.212247945419    -2.509831464700    15.994914619560
           C          1.546149161304    -0.992417945419     0.338685535300    12.000000000000
           H          3.504208161304    -1.700704945419    -0.308581464700     1.007825032070
           H          3.329474161304     0.046794054581    -0.279423464700     1.007825032070
           C          0.658934161304     0.253035054581     0.268009535300    12.000000000000
           H          0.980520161304    -1.857622945419     0.005865535300     1.007825032070
           H          1.819879161304    -1.189916945419     1.373974535300     1.007825032070
           C         -0.692115838696     0.062382054581     0.960201535300    12.000000000000
           H          0.498499161304     0.516962054581    -0.775279464700     1.007825032070
           H          1.175111161304     1.099807054581     0.716425535300     1.007825032070
           C         -1.583172838696     1.304349054581     0.873691535300    12.000000000000
           H         -1.198316838696    -0.790638945419     0.515401535300     1.007825032070
           H         -0.528421838696    -0.189950945419     2.007061535300     1.007825032070
           C         -2.914931838696     1.189499054581     1.624225535300    12.000000000000
           H         -1.779549838696     1.534569054581    -0.172314464700     1.007825032070
           H         -1.034407838696     2.154701054581     1.273029535300     1.007825032070
           C         -3.880376838696     0.151020054581     1.050557535300    12.000000000000
           H         -3.401343838696     2.161693054581     1.610385535300     1.007825032070
           H         -2.720362838696     0.963211054581     2.670579535300     1.007825032070
           H         -4.080674838696     0.343031054581    -0.000290464700     1.007825032070
           H         -3.489238838696    -0.857457945419     1.133975535300     1.007825032070
           H         -4.829705838696     0.175776054581     1.577013535300     1.007825032070

  Running in c1 symmetry.

  Rotational constants: A =      0.11902  B =      0.01804  C =      0.01711 [cm^-1]
  Rotational constants: A =   3568.19460  B =    540.73983  C =    512.93245 [MHz]
  Nuclear repulsion =  447.514150011460231

  Charge       = 0
  Multiplicity = 1
  Electrons    = 72
  Nalpha       = 36
  Nbeta        = 36

  ==> Algorithm <==

  SCF Algorithm Type is DF.
  DIIS enabled.
  MOM disabled.
  Fractional occupation disabled.
  Guess Type is CORE.
  Energy threshold   = 1.00e-06
  Density threshold  = 1.00e-06
  Integral threshold = 0.00e+00

  ==> Primary Basis <==

  Basis Set: 6-31G*
    Number of shells: 86
    Number of basis function: 167
    Number of Cartesian functions: 167
    Spherical Harmonics?: false
    Max angular momentum: 2

  ==> Pre-Iterations <==

   -------------------------------------------------------
    Irrep   Nso     Nmo     Nalpha   Nbeta   Ndocc  Nsocc
   -------------------------------------------------------
     A        167     167       0       0       0       0
   -------------------------------------------------------
    Total     167     167      36      36      36       0
   -------------------------------------------------------

 OEINTS: Overlap, kinetic, potential, dipole, and quadrupole integrals
         stored in file 35.

  ==> Integral Setup <==

  ==> DFJK: Density-Fitted J/K Matrices <==

    J tasked:                  Yes
    K tasked:                  Yes
    wK tasked:                  No
    OpenMP threads:              1
    Integrals threads:           1
    Memory (MB):              1430
    Algorithm:                Core
    Integral Cache:           NONE
    Schwarz Cutoff:          1E-12
    Fitting Condition:       1E-12

   => Auxiliary Basis Set <=

  Basis Set: 
    Number of shells: 360
    Number of basis function: 1129
    Number of Cartesian functions: 1129
    Spherical Harmonics?: false
    Max angular momentum: 3

  Minimum eigenvalue in the overlap matrix is 3.0066561934E-03.
  Using Symmetric Orthogonalization.
  SCF Guess: Core (One-Electron) Hamiltonian.

  ==> Iterations <==

                           Total Energy        Delta E     RMS |[F,P]|

   @DF-RHF iter   1:  -289.88231526415376   -2.89882e+02   5.86065e-02 
   @DF-RHF iter   2:   -35.02286584041104    2.54859e+02   7.54923e-02 DIIS
   @DF-RHF iter   3:  -266.55934603271288   -2.31536e+02   4.58146e-02 DIIS
   @DF-RHF iter   4:  -207.37837131307964    5.91810e+01   6.72946e-02 DIIS
   @DF-RHF iter   5:  -353.40012543853851   -1.46022e+02   2.89621e-02 DIIS
   @DF-RHF iter   6:  -356.36006918165396   -2.95994e+00   3.30617e-02 DIIS
   @DF-RHF iter   7:  -384.66136536780613   -2.83013e+01   8.20706e-03 DIIS
   @DF-RHF iter   8:  -386.79672654927919   -2.13536e+00   4.57384e-03 DIIS
   @DF-RHF iter   9:  -387.08828144984938   -2.91555e-01   1.16726e-03 DIIS
   @DF-RHF iter  10:  -387.11385105064852   -2.55696e-02   3.80285e-04 DIIS
   @DF-RHF iter  11:  -387.11722700074716   -3.37595e-03   1.10677e-04 DIIS
   @DF-RHF iter  12:  -387.11751582436369   -2.88824e-04   4.58160e-05 DIIS
   @DF-RHF iter  13:  -387.11757970684920   -6.38825e-05   2.52161e-05 DIIS
   @DF-RHF iter  14:  -387.11759060467097   -1.08978e-05   1.23200e-05 DIIS
   @DF-RHF iter  15:  -387.11759441705425   -3.81238e-06   4.42693e-06 DIIS
   @DF-RHF iter  16:  -387.11759485416786   -4.37114e-07   1.11016e-06 DIIS
   @DF-RHF iter  17:  -387.11759488375475   -2.95869e-08   3.27006e-07 DIIS

  ==> Post-Iterations <==

    Orbital Energies (a.u.)
    -----------------------

    Doubly Occupied:                                                      

       1A    -20.565101     2A    -11.330122     3A    -11.236240  
       4A    -11.227260     5A    -11.211253     6A    -11.208848  
       7A    -11.208239     8A    -11.205471     9A    -11.204444  
      10A     -1.407280    11A     -1.093463    12A     -1.062839  
      13A     -1.007398    14A     -0.939073    15A     -0.872740  
      16A     -0.809915    17A     -0.779471    18A     -0.769834  
      19A     -0.684653    20A     -0.657250    21A     -0.626537  
      22A     -0.610836    23A     -0.602671    24A     -0.579808  
      25A     -0.564879    26A     -0.554015    27A     -0.530702  
      28A     -0.514802    29A     -0.503189    30A     -0.499035  
      31A     -0.476203    32A     -0.473396    33A     -0.455997  
      34A     -0.450160    35A     -0.434704    36A     -0.402721  

    Virtual:                                                              

      37A      0.153562    38A      0.233102    39A      0.242026  
      40A      0.262939    41A      0.264857    42A      0.280666  
      43A      0.286714    44A      0.301030    45A      0.313004  
      46A      0.319332    47A      0.333749    48A      0.337886  
      49A      0.345107    50A      0.351272    51A      0.356975  
      52A      0.370673    53A      0.385666    54A      0.394451  
      55A      0.414915    56A      0.434705    57A      0.438670  
      58A      0.443970    59A      0.479332    60A      0.489886  
      61A      0.499894    62A      0.697386    63A      0.710339  
      64A      0.717968    65A      0.740706    66A      0.756743  
      67A      0.760416    68A      0.782647    69A      0.793847  
      70A      0.803071    71A      0.858506    72A      0.881455  
      73A      0.890426    74A      0.910700    75A      0.945299  
      76A      0.959729    77A      0.964962    78A      0.984491  
      79A      0.990129    80A      1.029748    81A      1.058782  
      82A      1.092193    83A      1.094958    84A      1.105823  
      85A      1.128548    86A      1.132132    87A      1.142370  
      88A      1.146327    89A      1.162724    90A      1.183185  
      91A      1.187978    92A      1.197583    93A      1.201446  
      94A      1.219608    95A      1.221899    96A      1.226469  
      97A      1.242399    98A      1.253583    99A      1.259280  
     100A      1.273224   101A      1.293307   102A      1.301993  
     103A      1.316307   104A      1.346779   105A      1.452219  
     106A      1.480117   107A      1.525394   108A      1.653773  
     109A      1.672356   110A      1.678590   111A      1.732690  
     112A      1.748072   113A      1.781063   114A      1.825882  
     115A      1.851342   116A      1.866509   117A      1.916074  
     118A      1.953398   119A      1.995181   120A      2.062442  
     121A      2.084072   122A      2.109594   123A      2.138194  
     124A      2.155211   125A      2.193080   126A      2.208358  
     127A      2.245938   128A      2.250540   129A      2.281913  
     130A      2.296639   131A      2.302983   132A      2.349256  
     133A      2.360791   134A      2.372257   135A      2.395940  
     136A      2.427496   137A      2.484502   138A      2.537391  
     139A      2.584362   140A      2.615613   141A      2.643601  
     142A      2.675920   143A      2.712091   144A      2.728168  
     145A      2.740842   146A      2.765716   147A      2.790274  
     148A      2.820125   149A      2.866307   150A      2.948920  
     151A      2.968289   152A      2.975181   153A      2.998631  
     154A      3.061086   155A      3.156069   156A      3.190919  
     157A      3.263923   158A      3.377276   159A      4.320817  
     160A      4.515544   161A      4.573284   162A      4.654113  
     163A      4.742188   164A      4.827348   165A      4.873652  
     166A      4.923515   167A      5.018723  

    Final Occupation by Irrep:
              A 
    DOCC [    36 ]

  Energy converged.

  @DF-RHF Final Energy:  -387.11759488375475

   => Energetics <=

    Nuclear Repulsion Energy =            447.5141500114602309
    One-Electron Energy =               -1411.7424024965837361
    Two-Electron Energy =                 577.1106576013670519
    DFT Exchange-Correlation Energy =       0.0000000000000000
    Empirical Dispersion Energy =           0.0000000000000000
    PCM Polarization Energy =               0.0000000000000000
    EFP Energy =                            0.0000000000000000
    Total Energy =                       -387.1175948837563965

    Alert: EFP and PCM quantities not currently incorporated into SCF psivars.

Properties will be evaluated at   0.000000,   0.000000,   0.000000 Bohr
  ==> Properties <==


Properties computed using the SCF density matrix

  Nuclear Dipole Moment: (a.u.)
     X:    -8.0517      Y:     0.8204      Z:     8.1919

  Electronic Dipole Moment: (a.u.)
     X:     8.7538      Y:    -1.3127      Z:    -7.6167

  Dipole Moment: (a.u.)
     X:     0.7021      Y:    -0.4923      Z:     0.5751     Total:     1.0325

  Dipole Moment: (Debye)
     X:     1.7846      Y:    -1.2513      Z:     1.4619     Total:     2.6244


  Saving occupied orbitals to File 180.

*** tstop() called on cx1-3-1-3.cx1.hpc.ic.ac.uk at Tue Jul  5 17:14:56 2016
Module time:
	user time   =      25.91 seconds =       0.43 minutes
	system time =       0.25 seconds =       0.00 minutes
	total time  =         26 seconds =       0.43 minutes
Total time:
	user time   =      25.91 seconds =       0.43 minutes
	system time =       0.25 seconds =       0.00 minutes
	total time  =         26 seconds =       0.43 minutes


Properties will be evaluated at   0.000000,   0.000000,   0.000000 Bohr

Properties computed using the  density matrix

  Nuclear Dipole Moment: (a.u.)
     X:    -8.0517      Y:     0.8204      Z:     8.1919

  Electronic Dipole Moment: (a.u.)
     X:     8.7538      Y:    -1.3127      Z:    -7.6167

  Dipole Moment: (a.u.)
     X:     0.7021      Y:    -0.4923      Z:     0.5751     Total:     1.0325

  Dipole Moment: (Debye)
     X:     1.7846      Y:    -1.2513      Z:     1.4619     Total:     2.6244

  Quadrupole Moment: (Debye Ang)
    XX:   -51.3541     YY:   -56.7848     ZZ:   -64.7677
    XY:    -3.8159     XZ:    -0.3836     YZ:     2.3864

  Traceless Quadrupole Moment: (Debye Ang)
    XX:     6.2814     YY:     0.8508     ZZ:    -7.1322
    XY:    -3.8159     XZ:    -0.3836     YZ:     2.3864

  Mulliken Charges: (a.u.)
   Center  Symbol    Alpha    Beta     Spin     Total
       1     H     0.42666  0.42666  0.00000  0.14668
       2     C     2.84162  2.84162  0.00000  0.31676
       3     C     3.20744  3.20744  0.00000 -0.41487
       4     O     4.23589  4.23589  0.00000 -0.47177
       5     C     3.15698  3.15698  0.00000 -0.31396
       6     H     0.41195  0.41195  0.00000  0.17610
       7     H     0.40092  0.40092  0.00000  0.19817
       8     C     3.16338  3.16338  0.00000 -0.32676
       9     H     0.41885  0.41885  0.00000  0.16229
      10     H     0.41664  0.41664  0.00000  0.16672
      11     C     3.15382  3.15382  0.00000 -0.30765
      12     H     0.39083  0.39083  0.00000  0.21835
      13     H     0.42730  0.42730  0.00000  0.14540
      14     C     3.15266  3.15266  0.00000 -0.30531
      15     H     0.42167  0.42167  0.00000  0.15666
      16     H     0.42758  0.42758  0.00000  0.14484
      17     C     3.15217  3.15217  0.00000 -0.30433
      18     H     0.42129  0.42129  0.00000  0.15742
      19     H     0.42323  0.42323  0.00000  0.15354
      20     C     3.24092  3.24092  0.00000 -0.48185
      21     H     0.42152  0.42152  0.00000  0.15696
      22     H     0.42441  0.42441  0.00000  0.15118
      23     H     0.42146  0.42146  0.00000  0.15709
      24     H     0.42060  0.42060  0.00000  0.15881
      25     H     0.42023  0.42023  0.00000  0.15955

   Total alpha = 36.00000, Total beta = 36.00000, Total charge = -0.00000


*** PSI4 exiting successfully. Buy a developer a beer!
