    -----------------------------------------------------------------------
          Psi4: An Open-Source Ab Initio Electronic Structure Package
                              Psi4 (no tag) Driver

                          Git: Rev {detached?}  

    J. M. Turney, A. C. Simmonett, R. M. Parrish, E. G. Hohenstein,
    F. A. Evangelista, J. T. Fermann, B. J. Mintz, L. A. Burns, J. J. Wilke,
    M. L. Abrams, N. J. Russ, M. L. Leininger, C. L. Janssen, E. T. Seidl,
    W. D. Allen, H. F. Schaefer, R. A. King, E. F. Valeev, C. D. Sherrill,
    and T. D. Crawford, WIREs Comput. Mol. Sci. 2, 556-565 (2012)
    (doi: 10.1002/wcms.93)

                         Additional Contributions by
    A. E. DePrince, M. Saitow, U. Bozkaya, A. Yu. Sokolov
    -----------------------------------------------------------------------


    Psi4 started on: Tue Jul  5 16:31:03 2016

    Process ID:  27750
    PSI4DATADIR: /export131/home/mjharvey/miniconda3/share
    Memory level set to 256.000 MB

  ==> Input File <==

--------------------------------------------------------------------------
set {
	reference rhf
	basis 6-31G*
}


set_num_threads( 1 )
memory 2 gb

molecule MOL {
0 1

H	 -3.042581	 -0.665861	 0.004336
O	 -2.245037	 -1.176175	 0.000806
C	 -1.162163	 -0.365336	 0.001020
C	 -0.689644	 0.243649	 -1.147542
C	 -0.523019	 -0.161110	 1.217826
H	 -1.182381	 0.084134	 -2.091861
C	 0.429724	 1.059910	 -1.066040
H	 -0.915691	 -0.651737	 2.089726
C	 0.592367	 0.654092	 1.298286
H	 0.801296	 1.533166	 -1.957670
C	 1.069238	 1.266946	 0.139419
C	 1.273927	 0.896082	 2.624942
H	 1.937406	 1.900547	 0.185943
H	 2.353112	 0.851716	 2.524039
H	 0.974548	 0.161870	 3.363296
H	 1.022207	 1.878946	 3.013482

	symmetry c1
}
ee = energy('scf')
oeprop('DIPOLE', 'QUADRUPOLE', 'MULLIKEN_CHARGES')
f=open( 'psi4out.xyz', 'w' )
f.write( "16  " )
f.write( str(ee) + "\n" )
f.write( MOL.save_string_xyz() )
f.close()
--------------------------------------------------------------------------

  Memory set to   2.000 GiB by Python script.

*** tstart() called on cx1-3-1-3.cx1.hpc.ic.ac.uk
*** at Tue Jul  5 16:31:04 2016


         ---------------------------------------------------------
                                   SCF
            by Justin Turney, Rob Parrish, and Andy Simmonett
                              RHF Reference
                        1 Threads,   2000 MiB Core
         ---------------------------------------------------------

  ==> Geometry <==

    Molecular point group: c1
    Full point group: C1

    Geometry (in Angstrom), charge = 0, multiplicity = 1:

       Center              X                  Y                   Z               Mass       
    ------------   -----------------  -----------------  -----------------  -----------------
           H         -2.838422532605    -0.938406685562    -0.402992611364     1.007825032070
           O         -2.040878532605    -1.448720685562    -0.406522611364    15.994914619560
           C         -0.958004532605    -0.637881685562    -0.406308611364    12.000000000000
           C         -0.485485532605    -0.028896685562    -1.554870611364    12.000000000000
           C         -0.318860532605    -0.433655685562     0.810497388636    12.000000000000
           H         -0.978222532605    -0.188411685562    -2.499189611364     1.007825032070
           C          0.633882467395     0.787364314438    -1.473368611364    12.000000000000
           H         -0.711532532605    -0.924282685562     1.682397388636     1.007825032070
           C          0.796525467395     0.381546314438     0.890957388636    12.000000000000
           H          1.005454467395     1.260620314438    -2.364998611364     1.007825032070
           C          1.273396467395     0.994400314438    -0.267909611364    12.000000000000
           C          1.478085467395     0.623536314438     2.217613388636    12.000000000000
           H          2.141564467395     1.628001314438    -0.221385611364     1.007825032070
           H          2.557270467395     0.579170314438     2.116710388636     1.007825032070
           H          1.178706467395    -0.110675685562     2.955967388636     1.007825032070
           H          1.226365467395     1.606400314438     2.606153388636     1.007825032070

  Running in c1 symmetry.

  Rotational constants: A =      0.12256  B =      0.06089  C =      0.04113 [cm^-1]
  Rotational constants: A =   3674.21023  B =   1825.44927  C =   1233.14256 [MHz]
  Nuclear repulsion =  345.550069874849839

  Charge       = 0
  Multiplicity = 1
  Electrons    = 58
  Nalpha       = 29
  Nbeta        = 29

  ==> Algorithm <==

  SCF Algorithm Type is DF.
  DIIS enabled.
  MOM disabled.
  Fractional occupation disabled.
  Guess Type is CORE.
  Energy threshold   = 1.00e-06
  Density threshold  = 1.00e-06
  Integral threshold = 0.00e+00

  ==> Primary Basis <==

  Basis Set: 6-31G*
    Number of shells: 64
    Number of basis function: 136
    Number of Cartesian functions: 136
    Spherical Harmonics?: false
    Max angular momentum: 2

  ==> Pre-Iterations <==

   -------------------------------------------------------
    Irrep   Nso     Nmo     Nalpha   Nbeta   Ndocc  Nsocc
   -------------------------------------------------------
     A        136     136       0       0       0       0
   -------------------------------------------------------
    Total     136     136      29      29      29       0
   -------------------------------------------------------

 OEINTS: Overlap, kinetic, potential, dipole, and quadrupole integrals
         stored in file 35.

  ==> Integral Setup <==

  ==> DFJK: Density-Fitted J/K Matrices <==

    J tasked:                  Yes
    K tasked:                  Yes
    wK tasked:                  No
    OpenMP threads:              1
    Integrals threads:           1
    Memory (MB):              1430
    Algorithm:                Core
    Integral Cache:           NONE
    Schwarz Cutoff:          1E-12
    Fitting Condition:       1E-12

   => Auxiliary Basis Set <=

  Basis Set: 
    Number of shells: 264
    Number of basis function: 848
    Number of Cartesian functions: 848
    Spherical Harmonics?: false
    Max angular momentum: 3

  Minimum eigenvalue in the overlap matrix is 4.1136425937E-04.
  Using Symmetric Orthogonalization.
  SCF Guess: Core (One-Electron) Hamiltonian.

  ==> Iterations <==

                           Total Energy        Delta E     RMS |[F,P]|

   @DF-RHF iter   1:  -269.18911376150533   -2.69189e+02   6.61127e-02 
   @DF-RHF iter   2:  -220.75729158842051    4.84318e+01   5.51982e-02 DIIS
   @DF-RHF iter   3:  -272.52914452285160   -5.17719e+01   6.07879e-02 DIIS
   @DF-RHF iter   4:  -328.23026206769720   -5.57011e+01   2.92256e-02 DIIS
   @DF-RHF iter   5:  -336.04133689097949   -7.81107e+00   2.42748e-02 DIIS
   @DF-RHF iter   6:  -344.06739675785485   -8.02606e+00   6.89406e-03 DIIS
   @DF-RHF iter   7:  -344.53939859812868   -4.72002e-01   2.19652e-03 DIIS
   @DF-RHF iter   8:  -344.58470527439221   -4.53067e-02   5.74855e-04 DIIS
   @DF-RHF iter   9:  -344.58948973095136   -4.78446e-03   1.61703e-04 DIIS
   @DF-RHF iter  10:  -344.58985457286263   -3.64842e-04   8.45936e-05 DIIS
   @DF-RHF iter  11:  -344.58999176663457   -1.37194e-04   2.65885e-05 DIIS
   @DF-RHF iter  12:  -344.59001624783224   -2.44812e-05   1.07381e-05 DIIS
   @DF-RHF iter  13:  -344.59002255306615   -6.30523e-06   5.59182e-06 DIIS
   @DF-RHF iter  14:  -344.59002370671152   -1.15365e-06   2.16948e-06 DIIS
   @DF-RHF iter  15:  -344.59002389260337   -1.85892e-07   4.47755e-07 DIIS

  ==> Post-Iterations <==

    Orbital Energies (a.u.)
    -----------------------

    Doubly Occupied:                                                      

       1A    -20.575222     2A    -11.286305     3A    -11.239752  
       4A    -11.232195     5A    -11.221925     6A    -11.220928  
       7A    -11.220631     8A    -11.217952     9A     -1.397828  
      10A     -1.148841    11A     -1.042337    12A     -1.002455  
      13A     -0.935297    14A     -0.826232    15A     -0.809610  
      16A     -0.717297    17A     -0.676039    18A     -0.655240  
      19A     -0.620152    20A     -0.590141    21A     -0.574745  
      22A     -0.566441    23A     -0.550054    24A     -0.510928  
      25A     -0.503107    26A     -0.478612    27A     -0.459584  
      28A     -0.328246    29A     -0.316643  

    Virtual:                                                              

      30A      0.149242    31A      0.152818    32A      0.233244  
      33A      0.244210    34A      0.268069    35A      0.294020  
      36A      0.313709    37A      0.324823    38A      0.342217  
      39A      0.344536    40A      0.395468    41A      0.412986  
      42A      0.464910    43A      0.472105    44A      0.511851  
      45A      0.553221    46A      0.604378    47A      0.627372  
      48A      0.731084    49A      0.739133    50A      0.751157  
      51A      0.773151    52A      0.777559    53A      0.822258  
      54A      0.834770    55A      0.836458    56A      0.848667  
      57A      0.879442    58A      0.887110    59A      0.894693  
      60A      0.923021    61A      0.952289    62A      0.975400  
      63A      1.012474    64A      1.016512    65A      1.051274  
      66A      1.108340    67A      1.114611    68A      1.128330  
      69A      1.149164    70A      1.161567    71A      1.172471  
      72A      1.193693    73A      1.215006    74A      1.227446  
      75A      1.245825    76A      1.258944    77A      1.295692  
      78A      1.331650    79A      1.402961    80A      1.411505  
      81A      1.418999    82A      1.440493    83A      1.480229  
      84A      1.511227    85A      1.615775    86A      1.628053  
      87A      1.655977    88A      1.733694    89A      1.736894  
      90A      1.770092    91A      1.773101    92A      1.787930  
      93A      1.938184    94A      2.043127    95A      2.097218  
      96A      2.098784    97A      2.153367    98A      2.189988  
      99A      2.198757   100A      2.217006   101A      2.242846  
     102A      2.277559   103A      2.291718   104A      2.327497  
     105A      2.412772   106A      2.453122   107A      2.478778  
     108A      2.499494   109A      2.537880   110A      2.568254  
     111A      2.635163   112A      2.654076   113A      2.705203  
     114A      2.709324   115A      2.718753   116A      2.776580  
     117A      2.876120   118A      2.915828   119A      2.957015  
     120A      3.035517   121A      3.069485   122A      3.128330  
     123A      3.144158   124A      3.197762   125A      3.282484  
     126A      3.345672   127A      3.537344   128A      3.841379  
     129A      4.328020   130A      4.536111   131A      4.552926  
     132A      4.623289   133A      4.676712   134A      4.795878  
     135A      4.879688   136A      5.194783  

    Final Occupation by Irrep:
              A 
    DOCC [    29 ]

  Energy converged.

  @DF-RHF Final Energy:  -344.59002389260337

   => Energetics <=

    Nuclear Repulsion Energy =            345.5500698748498394
    One-Electron Energy =               -1152.4308240532957370
    Two-Electron Energy =                 462.2907302858426419
    DFT Exchange-Correlation Energy =       0.0000000000000000
    Empirical Dispersion Energy =           0.0000000000000000
    PCM Polarization Energy =               0.0000000000000000
    EFP Energy =                            0.0000000000000000
    Total Energy =                       -344.5900238926031989

    Alert: EFP and PCM quantities not currently incorporated into SCF psivars.

Properties will be evaluated at   0.000000,   0.000000,   0.000000 Bohr
  ==> Properties <==


Properties computed using the SCF density matrix

  Nuclear Dipole Moment: (a.u.)
     X:     3.3474      Y:     2.7233      Z:     3.6285

  Electronic Dipole Moment: (a.u.)
     X:    -3.5128      Y:    -2.0584      Z:    -3.5151

  Dipole Moment: (a.u.)
     X:    -0.1654      Y:     0.6650      Z:     0.1134     Total:     0.6945

  Dipole Moment: (Debye)
     X:    -0.4203      Y:     1.6901      Z:     0.2883     Total:     1.7653


  Saving occupied orbitals to File 180.

*** tstop() called on cx1-3-1-3.cx1.hpc.ic.ac.uk at Tue Jul  5 16:31:15 2016
Module time:
	user time   =      10.95 seconds =       0.18 minutes
	system time =       0.07 seconds =       0.00 minutes
	total time  =         11 seconds =       0.18 minutes
Total time:
	user time   =      10.95 seconds =       0.18 minutes
	system time =       0.07 seconds =       0.00 minutes
	total time  =         11 seconds =       0.18 minutes


Properties will be evaluated at   0.000000,   0.000000,   0.000000 Bohr

Properties computed using the  density matrix

  Nuclear Dipole Moment: (a.u.)
     X:     3.3474      Y:     2.7233      Z:     3.6285

  Electronic Dipole Moment: (a.u.)
     X:    -3.5128      Y:    -2.0584      Z:    -3.5151

  Dipole Moment: (a.u.)
     X:    -0.1654      Y:     0.6650      Z:     0.1134     Total:     0.6945

  Dipole Moment: (Debye)
     X:    -0.4203      Y:     1.6901      Z:     0.2883     Total:     1.7653

  Quadrupole Moment: (Debye Ang)
    XX:   -41.3577     YY:   -52.2471     ZZ:   -43.2684
    XY:     0.2179     XZ:     1.0917     YZ:    -1.7180

  Traceless Quadrupole Moment: (Debye Ang)
    XX:     4.2667     YY:    -6.6227     ZZ:     2.3560
    XY:     0.2179     XZ:     1.0917     YZ:    -1.7180

  Mulliken Charges: (a.u.)
   Center  Symbol    Alpha    Beta     Spin     Total
       1     H     0.27051  0.27051  0.00000  0.45897
       2     O     4.38656  4.38656  0.00000 -0.77311
       3     C     2.81258  2.81258  0.00000  0.37484
       4     C     3.12745  3.12745  0.00000 -0.25490
       5     C     3.13546  3.13546  0.00000 -0.27092
       6     H     0.39703  0.39703  0.00000  0.20595
       7     C     3.09316  3.09316  0.00000 -0.18633
       8     H     0.39658  0.39658  0.00000  0.20684
       9     C     2.97417  2.97417  0.00000  0.05165
      10     H     0.39909  0.39909  0.00000  0.20181
      11     C     3.11682  3.11682  0.00000 -0.23364
      12     C     3.25441  3.25441  0.00000 -0.50882
      13     H     0.40211  0.40211  0.00000  0.19579
      14     H     0.41176  0.41176  0.00000  0.17649
      15     H     0.41198  0.41198  0.00000  0.17604
      16     H     0.41033  0.41033  0.00000  0.17934

   Total alpha = 29.00000, Total beta = 29.00000, Total charge = -0.00000


*** PSI4 exiting successfully. Buy a developer a beer!
