    -----------------------------------------------------------------------
          Psi4: An Open-Source Ab Initio Electronic Structure Package
                              Psi4 (no tag) Driver

                          Git: Rev {detached?}  

    J. M. Turney, A. C. Simmonett, R. M. Parrish, E. G. Hohenstein,
    F. A. Evangelista, J. T. Fermann, B. J. Mintz, L. A. Burns, J. J. Wilke,
    M. L. Abrams, N. J. Russ, M. L. Leininger, C. L. Janssen, E. T. Seidl,
    W. D. Allen, H. F. Schaefer, R. A. King, E. F. Valeev, C. D. Sherrill,
    and T. D. Crawford, WIREs Comput. Mol. Sci. 2, 556-565 (2012)
    (doi: 10.1002/wcms.93)

                         Additional Contributions by
    A. E. DePrince, M. Saitow, U. Bozkaya, A. Yu. Sokolov
    -----------------------------------------------------------------------


    Psi4 started on: Tue Jul  5 17:49:36 2016

    Process ID:  26772
    PSI4DATADIR: /export131/home/mjharvey/miniconda3/share
    Memory level set to 256.000 MB

  ==> Input File <==

--------------------------------------------------------------------------
set {
	reference rhf
	basis 6-31G*
}


set_num_threads( 1 )
memory 2 gb

molecule MOL {
0 1

O	 1.316689	 1.559332	 -0.326568
C	 0.788116	 1.716284	 -1.379704
C	 0.200081	 0.623630	 -2.238883
O	 0.640172	 2.906476	 -1.947763
C	 -0.676190	 -0.353654	 -1.461253
H	 -0.358710	 1.103895	 -3.037514
H	 1.026778	 0.111409	 -2.723572
C	 -1.768387	 0.356824	 -0.660386
H	 -0.052416	 -0.940609	 -0.794486
H	 -1.125601	 -1.059332	 -2.152887
C	 -1.230060	 1.074587	 0.578516
H	 -2.277256	 1.077532	 -1.298845
H	 -2.524164	 -0.365489	 -0.355513
C	 -0.096872	 2.048581	 0.258405
H	 -0.880359	 0.337001	 1.297415
H	 -2.042053	 1.611713	 1.063596
H	 0.745219	 1.534883	 -0.196799
H	 0.262972	 2.541502	 1.156176
H	 -0.425624	 2.819516	 -0.432893
C	 1.792514	 3.724689	 -2.034891
H	 2.180449	 3.940881	 -1.049855
H	 1.472688	 4.634305	 -2.518819
H	 2.560106	 3.239076	 -2.620117

	symmetry c1
}
set optking {
	frozen_dihedral = ("
		15 11 8 12,
		9 5 8 12,
		1 2 3 6,
		9 5 3 6
	")
}

ee = energy('scf')
oeprop('DIPOLE', 'QUADRUPOLE', 'MULLIKEN_CHARGES')
f=open( 'psi4out.xyz', 'w' )
f.write( "23  " )
f.write( str(ee) + "\n" )
f.write( MOL.save_string_xyz() )
f.close()
--------------------------------------------------------------------------

  Memory set to   2.000 GiB by Python script.

*** tstart() called on cx1-1-1-4.cx1.hpc.ic.ac.uk
*** at Tue Jul  5 17:49:37 2016


         ---------------------------------------------------------
                                   SCF
            by Justin Turney, Rob Parrish, and Andy Simmonett
                              RHF Reference
                        1 Threads,   2000 MiB Core
         ---------------------------------------------------------

  ==> Geometry <==

    Molecular point group: c1
    Full point group: C1

    Geometry (in Angstrom), charge = 0, multiplicity = 1:

       Center              X                  Y                   Z               Mass       
    ------------   -----------------  -----------------  -----------------  -----------------
           O          1.178632804104     0.003068768942     0.698856699210    15.994914619560
           C          0.650059804104     0.160020768942    -0.354279300790    12.000000000000
           C          0.062024804104    -0.932633231058    -1.213458300790    12.000000000000
           O          0.502115804104     1.350212768942    -0.922338300790    15.994914619560
           C         -0.814246195896    -1.909917231058    -0.435828300790    12.000000000000
           H         -0.496766195896    -0.452368231058    -2.012089300790     1.007825032070
           H          0.888721804104    -1.444854231058    -1.698147300790     1.007825032070
           C         -1.906443195896    -1.199439231058     0.365038699210    12.000000000000
           H         -0.190472195896    -2.496872231058     0.230938699210     1.007825032070
           H         -1.263657195896    -2.615595231058    -1.127462300790     1.007825032070
           C         -1.368116195896    -0.481676231058     1.603940699210    12.000000000000
           H         -2.415312195896    -0.478731231058    -0.273420300790     1.007825032070
           H         -2.662220195896    -1.921752231058     0.669911699210     1.007825032070
           C         -0.234928195896     0.492317768942     1.283829699210    12.000000000000
           H         -1.018415195896    -1.219262231058     2.322839699210     1.007825032070
           H         -2.180109195896     0.055449768942     2.089020699210     1.007825032070
           H          0.607162804104    -0.021380231058     0.828625699210     1.007825032070
           H          0.124915804104     0.985238768942     2.181600699210     1.007825032070
           H         -0.563680195896     1.263252768942     0.592531699210     1.007825032070
           C          1.654457804104     2.168425768942    -1.009466300790    12.000000000000
           H          2.042392804104     2.384617768942    -0.024430300790     1.007825032070
           H          1.334631804104     3.078041768942    -1.493394300790     1.007825032070
           H          2.422049804104     1.682812768942    -1.594692300790     1.007825032070

  Running in c1 symmetry.

  Rotational constants: A =      0.09782  B =      0.04319  C =      0.03615 [cm^-1]
  Rotational constants: A =   2932.71551  B =   1294.82703  C =   1083.69288 [MHz]
  Nuclear repulsion =  531.594640008027341

  Charge       = 0
  Multiplicity = 1
  Electrons    = 72
  Nalpha       = 36
  Nbeta        = 36

  ==> Algorithm <==

  SCF Algorithm Type is DF.
  DIIS enabled.
  MOM disabled.
  Fractional occupation disabled.
  Guess Type is CORE.
  Energy threshold   = 1.00e-06
  Density threshold  = 1.00e-06
  Integral threshold = 0.00e+00

  ==> Primary Basis <==

  Basis Set: 6-31G*
    Number of shells: 82
    Number of basis function: 163
    Number of Cartesian functions: 163
    Spherical Harmonics?: false
    Max angular momentum: 2

  ==> Pre-Iterations <==

   -------------------------------------------------------
    Irrep   Nso     Nmo     Nalpha   Nbeta   Ndocc  Nsocc
   -------------------------------------------------------
     A        163     163       0       0       0       0
   -------------------------------------------------------
    Total     163     163      36      36      36       0
   -------------------------------------------------------

 OEINTS: Overlap, kinetic, potential, dipole, and quadrupole integrals
         stored in file 35.

  ==> Integral Setup <==

  ==> DFJK: Density-Fitted J/K Matrices <==

    J tasked:                  Yes
    K tasked:                  Yes
    wK tasked:                  No
    OpenMP threads:              1
    Integrals threads:           1
    Memory (MB):              1430
    Algorithm:                Core
    Integral Cache:           NONE
    Schwarz Cutoff:          1E-12
    Fitting Condition:       1E-12

   => Auxiliary Basis Set <=

  Basis Set: 
    Number of shells: 342
    Number of basis function: 1079
    Number of Cartesian functions: 1079
    Spherical Harmonics?: false
    Max angular momentum: 3

  Minimum eigenvalue in the overlap matrix is 1.7670538288E-03.
  Using Symmetric Orthogonalization.
  SCF Guess: Core (One-Electron) Hamiltonian.

  ==> Iterations <==

                           Total Energy        Delta E     RMS |[F,P]|

   @DF-RHF iter   1:  -257.66255428264628   -2.57663e+02   8.21738e-02 
   @DF-RHF iter   2:  -196.73056420855232    6.09320e+01   6.21164e-02 DIIS
   @DF-RHF iter   3:  -318.95845564694594   -1.22228e+02   5.97813e-02 DIIS
   @DF-RHF iter   4:  -391.11742232655183   -7.21590e+01   3.78745e-02 DIIS
   @DF-RHF iter   5:  -402.75873832082050   -1.16413e+01   2.82603e-02 DIIS
   @DF-RHF iter   6:  -419.27445151860150   -1.65157e+01   1.02955e-02 DIIS
   @DF-RHF iter   7:  -421.61136505757770   -2.33691e+00   4.73216e-03 DIIS
   @DF-RHF iter   8:  -421.92866366062674   -3.17299e-01   1.31664e-03 DIIS
   @DF-RHF iter   9:  -421.95261906467874   -2.39554e-02   4.90109e-04 DIIS
   @DF-RHF iter  10:  -421.95806626506533   -5.44720e-03   2.05656e-04 DIIS
   @DF-RHF iter  11:  -421.95911206085111   -1.04580e-03   9.71483e-05 DIIS
   @DF-RHF iter  12:  -421.95959785262744   -4.85792e-04   7.85548e-05 DIIS
   @DF-RHF iter  13:  -421.95993268925054   -3.34837e-04   5.63320e-05 DIIS
   @DF-RHF iter  14:  -421.96019830494777   -2.65616e-04   2.55725e-05 DIIS
   @DF-RHF iter  15:  -421.96024865303013   -5.03481e-05   5.82052e-06 DIIS
   @DF-RHF iter  16:  -421.96025000530926   -1.35228e-06   1.87354e-06 DIIS
   @DF-RHF iter  17:  -421.96025015738769   -1.52078e-07   4.70507e-07 DIIS

  ==> Post-Iterations <==

    Orbital Energies (a.u.)
    -----------------------

    Doubly Occupied:                                                      

       1A    -20.564034     2A    -20.561082     3A    -11.295284  
       4A    -11.270555     5A    -11.267400     6A    -11.224657  
       7A    -11.213211     8A    -11.210811     9A    -11.209862  
      10A     -1.771356    11A     -1.402910    12A     -1.090362  
      13A     -1.049128    14A     -0.977594    15A     -0.951488  
      16A     -0.903751    17A     -0.830392    18A     -0.809835  
      19A     -0.769083    20A     -0.716502    21A     -0.690730  
      22A     -0.649840    23A     -0.619270    24A     -0.619070  
      25A     -0.599598    26A     -0.591803    27A     -0.557224  
      28A     -0.540044    29A     -0.517677    30A     -0.500383  
      31A     -0.475862    32A     -0.464770    33A     -0.463184  
      34A     -0.459028    35A     -0.426047    36A     -0.182253  

    Virtual:                                                              

      37A      0.136207    38A      0.232552    39A      0.259249  
      40A      0.275275    41A      0.283341    42A      0.297736  
      43A      0.311567    44A      0.313952    45A      0.321086  
      46A      0.324295    47A      0.334383    48A      0.346331  
      49A      0.351353    50A      0.366757    51A      0.387255  
      52A      0.395098    53A      0.422396    54A      0.459626  
      55A      0.465826    56A      0.477011    57A      0.520690  
      58A      0.587091    59A      0.659641    60A      0.708337  
      61A      0.725758    62A      0.736730    63A      0.738317  
      64A      0.753215    65A      0.758322    66A      0.800016  
      67A      0.826521    68A      0.833596    69A      0.864440  
      70A      0.905572    71A      0.926703    72A      0.935016  
      73A      0.964762    74A      0.970119    75A      0.991225  
      76A      1.025041    77A      1.034716    78A      1.070313  
      79A      1.107440    80A      1.117690    81A      1.139017  
      82A      1.145096    83A      1.156587    84A      1.158527  
      85A      1.162946    86A      1.178462    87A      1.192685  
      88A      1.211720    89A      1.219847    90A      1.227910  
      91A      1.252637    92A      1.258193    93A      1.264628  
      94A      1.294236    95A      1.316936    96A      1.342377  
      97A      1.400332    98A      1.436215    99A      1.471819  
     100A      1.503094   101A      1.524029   102A      1.581707  
     103A      1.627839   104A      1.694461   105A      1.737021  
     106A      1.757234   107A      1.780658   108A      1.807304  
     109A      1.859296   110A      1.895621   111A      1.959210  
     112A      1.988461   113A      2.019804   114A      2.052943  
     115A      2.067321   116A      2.105728   117A      2.113967  
     118A      2.195712   119A      2.213512   120A      2.224694  
     121A      2.248591   122A      2.274154   123A      2.309809  
     124A      2.333339   125A      2.388307   126A      2.400142  
     127A      2.427287   128A      2.443929   129A      2.471145  
     130A      2.522877   131A      2.561094   132A      2.584681  
     133A      2.610767   134A      2.627389   135A      2.690600  
     136A      2.693883   137A      2.706485   138A      2.721332  
     139A      2.745933   140A      2.792488   141A      2.841942  
     142A      2.865872   143A      2.928052   144A      2.934280  
     145A      2.991371   146A      3.025920   147A      3.061173  
     148A      3.118069   149A      3.208804   150A      3.272015  
     151A      3.379080   152A      3.427202   153A      3.530860  
     154A      4.464119   155A      4.577273   156A      4.590365  
     157A      4.682616   158A      4.761457   159A      4.787925  
     160A      4.956687   161A      5.014455   162A      5.070171  
     163A      5.292330  

    Final Occupation by Irrep:
              A 
    DOCC [    36 ]

  Energy converged.

  @DF-RHF Final Energy:  -421.96025015738769

   => Energetics <=

    Nuclear Repulsion Energy =            531.5946400080273406
    One-Electron Energy =               -1628.2175783845443675
    Two-Electron Energy =                 674.6626882191300183
    DFT Exchange-Correlation Energy =       0.0000000000000000
    Empirical Dispersion Energy =           0.0000000000000000
    PCM Polarization Energy =               0.0000000000000000
    EFP Energy =                            0.0000000000000000
    Total Energy =                       -421.9602501573871223

    Alert: EFP and PCM quantities not currently incorporated into SCF psivars.

Properties will be evaluated at   0.000000,   0.000000,   0.000000 Bohr
  ==> Properties <==


Properties computed using the SCF density matrix

  Nuclear Dipole Moment: (a.u.)
     X:    -3.1519      Y:    -1.1198      Z:     0.6475

  Electronic Dipole Moment: (a.u.)
     X:     3.3138      Y:     1.2506      Z:    -0.5073

  Dipole Moment: (a.u.)
     X:     0.1619      Y:     0.1308      Z:     0.1402     Total:     0.2510

  Dipole Moment: (Debye)
     X:     0.4115      Y:     0.3325      Z:     0.3563     Total:     0.6379


  Saving occupied orbitals to File 180.

*** tstop() called on cx1-1-1-4.cx1.hpc.ic.ac.uk at Tue Jul  5 17:50:04 2016
Module time:
	user time   =      26.54 seconds =       0.44 minutes
	system time =       0.27 seconds =       0.00 minutes
	total time  =         27 seconds =       0.45 minutes
Total time:
	user time   =      26.54 seconds =       0.44 minutes
	system time =       0.27 seconds =       0.00 minutes
	total time  =         27 seconds =       0.45 minutes


Properties will be evaluated at   0.000000,   0.000000,   0.000000 Bohr

Properties computed using the  density matrix

  Nuclear Dipole Moment: (a.u.)
     X:    -3.1519      Y:    -1.1198      Z:     0.6475

  Electronic Dipole Moment: (a.u.)
     X:     3.3138      Y:     1.2506      Z:    -0.5073

  Dipole Moment: (a.u.)
     X:     0.1619      Y:     0.1308      Z:     0.1402     Total:     0.2510

  Dipole Moment: (Debye)
     X:     0.4115      Y:     0.3325      Z:     0.3563     Total:     0.6379

  Quadrupole Moment: (Debye Ang)
    XX:   -55.6260     YY:   -55.1994     ZZ:   -56.2788
    XY:     3.6417     XZ:    -1.9973     YZ:    -0.2893

  Traceless Quadrupole Moment: (Debye Ang)
    XX:     0.0754     YY:     0.5019     ZZ:    -0.5774
    XY:     3.6417     XZ:    -1.9973     YZ:    -0.2893

  Mulliken Charges: (a.u.)
   Center  Symbol    Alpha    Beta     Spin     Total
       1     O     4.10919  4.10919  0.00000 -0.21838
       2     C     2.83391  2.83391  0.00000  0.33218
       3     C     3.15796  3.15796  0.00000 -0.31591
       4     O     4.30540  4.30540  0.00000 -0.61081
       5     C     3.16566  3.16566  0.00000 -0.33133
       6     H     0.40445  0.40445  0.00000  0.19110
       7     H     0.43029  0.43029  0.00000  0.13941
       8     C     3.15170  3.15170  0.00000 -0.30340
       9     H     0.42178  0.42178  0.00000  0.15645
      10     H     0.41677  0.41677  0.00000  0.16645
      11     C     3.14747  3.14747  0.00000 -0.29494
      12     H     0.41842  0.41842  0.00000  0.16316
      13     H     0.41988  0.41988  0.00000  0.16024
      14     C     3.24528  3.24528  0.00000 -0.49056
      15     H     0.42032  0.42032  0.00000  0.15936
      16     H     0.41143  0.41143  0.00000  0.17713
      17     H     0.41051  0.41051  0.00000  0.17898
      18     H     0.40292  0.40292  0.00000  0.19416
      19     H     0.38084  0.38084  0.00000  0.23833
      20     C     3.09378  3.09378  0.00000 -0.18755
      21     H     0.41962  0.41962  0.00000  0.16077
      22     H     0.40856  0.40856  0.00000  0.18289
      23     H     0.42387  0.42387  0.00000  0.15226

   Total alpha = 36.00000, Total beta = 36.00000, Total charge =  0.00000


*** PSI4 exiting successfully. Buy a developer a beer!
