    -----------------------------------------------------------------------
          Psi4: An Open-Source Ab Initio Electronic Structure Package
                              Psi4 (no tag) Driver

                          Git: Rev {detached?}  

    J. M. Turney, A. C. Simmonett, R. M. Parrish, E. G. Hohenstein,
    F. A. Evangelista, J. T. Fermann, B. J. Mintz, L. A. Burns, J. J. Wilke,
    M. L. Abrams, N. J. Russ, M. L. Leininger, C. L. Janssen, E. T. Seidl,
    W. D. Allen, H. F. Schaefer, R. A. King, E. F. Valeev, C. D. Sherrill,
    and T. D. Crawford, WIREs Comput. Mol. Sci. 2, 556-565 (2012)
    (doi: 10.1002/wcms.93)

                         Additional Contributions by
    A. E. DePrince, M. Saitow, U. Bozkaya, A. Yu. Sokolov
    -----------------------------------------------------------------------


    Psi4 started on: Tue Jul  5 16:43:58 2016

    Process ID:   7193
    PSI4DATADIR: /export131/home/mjharvey/miniconda3/share
    Memory level set to 256.000 MB

  ==> Input File <==

--------------------------------------------------------------------------
set {
	reference rhf
	basis 6-31G*
}


set_num_threads( 1 )
memory 2 gb

molecule MOL {
0 1

H	 3.083879	 -1.346558	 0.395444
O	 2.172668	 -1.603300	 0.415122
C	 1.365383	 -0.540424	 0.207814
C	 1.840570	 0.764737	 0.200349
C	 0.020040	 -0.788120	 -0.002258
H	 2.887909	 0.955318	 0.364039
C	 0.971022	 1.820356	 -0.016963
H	 -0.348309	 -1.795773	 0.003256
C	 -0.843769	 0.274371	 -0.219064
H	 1.350422	 2.826051	 -0.020484
C	 -0.375043	 1.582037	 -0.227786
C	 -2.290327	 0.015336	 -0.445430
H	 -1.052235	 2.400485	 -0.396781
O	 -2.762442	 -1.061309	 -0.625674
H	 -2.924959	 0.906638	 -0.437000

	symmetry c1
}
set optking {
	frozen_dihedral = ("
		11 9 12 14
	")
}

ee = energy('scf')
oeprop('DIPOLE', 'QUADRUPOLE', 'MULLIKEN_CHARGES')
f=open( 'psi4out.xyz', 'w' )
f.write( "15  " )
f.write( str(ee) + "\n" )
f.write( MOL.save_string_xyz() )
f.close()
--------------------------------------------------------------------------

  Memory set to   2.000 GiB by Python script.

*** tstart() called on cx1-3-16-3.cx1.hpc.ic.ac.uk
*** at Tue Jul  5 16:43:58 2016


         ---------------------------------------------------------
                                   SCF
            by Justin Turney, Rob Parrish, and Andy Simmonett
                              RHF Reference
                        1 Threads,   2000 MiB Core
         ---------------------------------------------------------

  ==> Geometry <==

    Molecular point group: c1
    Full point group: C1

    Geometry (in Angstrom), charge = 0, multiplicity = 1:

       Center              X                  Y                   Z               Mass       
    ------------   -----------------  -----------------  -----------------  -----------------
           H          3.068791060429    -1.337514516402     0.473289871557     1.007825032070
           O          2.157580060429    -1.594256516402     0.492967871557    15.994914619560
           C          1.350295060429    -0.531380516402     0.285659871557    12.000000000000
           C          1.825482060429     0.773780483598     0.278194871557    12.000000000000
           C          0.004952060429    -0.779076516402     0.075587871557    12.000000000000
           H          2.872821060429     0.964361483598     0.441884871557     1.007825032070
           C          0.955934060429     1.829399483598     0.060882871557    12.000000000000
           H         -0.363396939571    -1.786729516402     0.081101871557     1.007825032070
           C         -0.858856939571     0.283414483598    -0.141218128443    12.000000000000
           H          1.335334060429     2.835094483598     0.057361871557     1.007825032070
           C         -0.390130939571     1.591080483598    -0.149940128443    12.000000000000
           C         -2.305414939571     0.024379483598    -0.367584128443    12.000000000000
           H         -1.067322939571     2.409528483598    -0.318935128443     1.007825032070
           O         -2.777529939571    -1.052265516402    -0.547828128443    15.994914619560
           H         -2.940046939571     0.915681483598    -0.359154128443     1.007825032070

  Running in c1 symmetry.

  Rotational constants: A =      0.09977  B =      0.04344  C =      0.03029 [cm^-1]
  Rotational constants: A =   2991.08382  B =   1302.33769  C =    908.22000 [MHz]
  Nuclear repulsion =  403.139064324108801

  Charge       = 0
  Multiplicity = 1
  Electrons    = 64
  Nalpha       = 32
  Nbeta        = 32

  ==> Algorithm <==

  SCF Algorithm Type is DF.
  DIIS enabled.
  MOM disabled.
  Fractional occupation disabled.
  Guess Type is CORE.
  Energy threshold   = 1.00e-06
  Density threshold  = 1.00e-06
  Integral threshold = 0.00e+00

  ==> Primary Basis <==

  Basis Set: 6-31G*
    Number of shells: 66
    Number of basis function: 147
    Number of Cartesian functions: 147
    Spherical Harmonics?: false
    Max angular momentum: 2

  ==> Pre-Iterations <==

   -------------------------------------------------------
    Irrep   Nso     Nmo     Nalpha   Nbeta   Ndocc  Nsocc
   -------------------------------------------------------
     A        147     147       0       0       0       0
   -------------------------------------------------------
    Total     147     147      32      32      32       0
   -------------------------------------------------------

 OEINTS: Overlap, kinetic, potential, dipole, and quadrupole integrals
         stored in file 35.

  ==> Integral Setup <==

  ==> DFJK: Density-Fitted J/K Matrices <==

    J tasked:                  Yes
    K tasked:                  Yes
    wK tasked:                  No
    OpenMP threads:              1
    Integrals threads:           1
    Memory (MB):              1430
    Algorithm:                Core
    Integral Cache:           NONE
    Schwarz Cutoff:          1E-12
    Fitting Condition:       1E-12

   => Auxiliary Basis Set <=

  Basis Set: 
    Number of shells: 270
    Number of basis function: 879
    Number of Cartesian functions: 879
    Spherical Harmonics?: false
    Max angular momentum: 3

  Minimum eigenvalue in the overlap matrix is 4.1797415559E-04.
  Using Symmetric Orthogonalization.
  SCF Guess: Core (One-Electron) Hamiltonian.

  ==> Iterations <==

                           Total Energy        Delta E     RMS |[F,P]|

   @DF-RHF iter   1:  -337.33021913237070   -3.37330e+02   6.24166e-02 
   @DF-RHF iter   2:  -259.68393189977525    7.76463e+01   6.56112e-02 DIIS
   @DF-RHF iter   3:  -337.41449486314440   -7.77306e+01   4.80773e-02 DIIS
   @DF-RHF iter   4:  -343.68228067402623   -6.26779e+00   5.54034e-02 DIIS
   @DF-RHF iter   5:  -417.43791842153433   -7.37556e+01   9.11005e-03 DIIS
   @DF-RHF iter   6:  -417.89859294064087   -4.60675e-01   6.53627e-03 DIIS
   @DF-RHF iter   7:  -418.26346533966392   -3.64872e-01   1.14037e-03 DIIS
   @DF-RHF iter   8:  -418.28233297510582   -1.88676e-02   4.44255e-04 DIIS
   @DF-RHF iter   9:  -418.28500078241433   -2.66781e-03   1.71097e-04 DIIS
   @DF-RHF iter  10:  -418.28557420850831   -5.73426e-04   6.22613e-05 DIIS
   @DF-RHF iter  11:  -418.28567133222617   -9.71237e-05   2.33468e-05 DIIS
   @DF-RHF iter  12:  -418.28568455258704   -1.32204e-05   1.36497e-05 DIIS
   @DF-RHF iter  13:  -418.28569228545467   -7.73287e-06   5.40267e-06 DIIS
   @DF-RHF iter  14:  -418.28569396470169   -1.67925e-06   2.21778e-06 DIIS
   @DF-RHF iter  15:  -418.28569428396173   -3.19260e-07   9.37762e-07 DIIS

  ==> Post-Iterations <==

    Orbital Energies (a.u.)
    -----------------------

    Doubly Occupied:                                                      

       1A    -20.601303     2A    -20.564625     3A    -11.332485  
       4A    -11.312609     5A    -11.253214     6A    -11.251906  
       7A    -11.249765     8A    -11.246245     9A    -11.239654  
      10A     -1.421177    11A     -1.405130    12A     -1.169588  
      13A     -1.048711    14A     -1.027073    15A     -0.899991  
      16A     -0.845754    17A     -0.813277    18A     -0.736033  
      19A     -0.702053    20A     -0.685546    21A     -0.639802  
      22A     -0.636159    23A     -0.612008    24A     -0.602725  
      25A     -0.572152    26A     -0.549922    27A     -0.542811  
      28A     -0.512955    29A     -0.486381    30A     -0.423533  
      31A     -0.353510    32A     -0.326114  

    Virtual:                                                              

      33A      0.083749    34A      0.144525    35A      0.211200  
      36A      0.224178    37A      0.240562    38A      0.269039  
      39A      0.308654    40A      0.310384    41A      0.336563  
      42A      0.377318    43A      0.409494    44A      0.443177  
      45A      0.465702    46A      0.480000    47A      0.500157  
      48A      0.568581    49A      0.594900    50A      0.674341  
      51A      0.716052    52A      0.725186    53A      0.731791  
      54A      0.756889    55A      0.764598    56A      0.803336  
      57A      0.813281    58A      0.816326    59A      0.848218  
      60A      0.853885    61A      0.859874    62A      0.879008  
      63A      0.898269    64A      0.940873    65A      0.995630  
      66A      0.998825    67A      1.010238    68A      1.056563  
      69A      1.077930    70A      1.088888    71A      1.108537  
      72A      1.124517    73A      1.133209    74A      1.169630  
      75A      1.185273    76A      1.199987    77A      1.209630  
      78A      1.232026    79A      1.232726    80A      1.299671  
      81A      1.315818    82A      1.336149    83A      1.358766  
      84A      1.402939    85A      1.425774    86A      1.481441  
      87A      1.509203    88A      1.512499    89A      1.557775  
      90A      1.614796    91A      1.625531    92A      1.650571  
      93A      1.717369    94A      1.734501    95A      1.746650  
      96A      1.750363    97A      1.828666    98A      1.848176  
      99A      1.936081   100A      2.023521   101A      2.039342  
     102A      2.043209   103A      2.060012   104A      2.092850  
     105A      2.149307   106A      2.177476   107A      2.228659  
     108A      2.249043   109A      2.273614   110A      2.298440  
     111A      2.306370   112A      2.354878   113A      2.390306  
     114A      2.425081   115A      2.457844   116A      2.488825  
     117A      2.579192   118A      2.609355   119A      2.627590  
     120A      2.648617   121A      2.666656   122A      2.739239  
     123A      2.771008   124A      2.842925   125A      2.895830  
     126A      2.924541   127A      2.950965   128A      3.006155  
     129A      3.033018   130A      3.039386   131A      3.111990  
     132A      3.157615   133A      3.231335   134A      3.304736  
     135A      3.343429   136A      3.418484   137A      3.552128  
     138A      3.838022   139A      4.327504   140A      4.358008  
     141A      4.512426   142A      4.532370   143A      4.609487  
     144A      4.640771   145A      4.777832   146A      4.875395  
     147A      5.186575  

    Final Occupation by Irrep:
              A 
    DOCC [    32 ]

  Energy converged.

  @DF-RHF Final Energy:  -418.28569428396173

   => Energetics <=

    Nuclear Repulsion Energy =            403.1390643241088014
    One-Electron Energy =               -1368.7210422485982235
    Two-Electron Energy =                 547.2962836405296230
    DFT Exchange-Correlation Energy =       0.0000000000000000
    Empirical Dispersion Energy =           0.0000000000000000
    PCM Polarization Energy =               0.0000000000000000
    EFP Energy =                            0.0000000000000000
    Total Energy =                       -418.2856942839597423

    Alert: EFP and PCM quantities not currently incorporated into SCF psivars.

Properties will be evaluated at   0.000000,   0.000000,   0.000000 Bohr
  ==> Properties <==


Properties computed using the SCF density matrix

  Nuclear Dipole Moment: (a.u.)
     X:     2.7215      Y:     3.7376      Z:     0.3518

  Electronic Dipole Moment: (a.u.)
     X:    -1.4303      Y:    -2.3755      Z:    -0.1866

  Dipole Moment: (a.u.)
     X:     1.2912      Y:     1.3621      Z:     0.1652     Total:     1.8841

  Dipole Moment: (Debye)
     X:     3.2818      Y:     3.4621      Z:     0.4198     Total:     4.7888


  Saving occupied orbitals to File 180.

*** tstop() called on cx1-3-16-3.cx1.hpc.ic.ac.uk at Tue Jul  5 16:44:15 2016
Module time:
	user time   =      15.73 seconds =       0.26 minutes
	system time =       0.08 seconds =       0.00 minutes
	total time  =         17 seconds =       0.28 minutes
Total time:
	user time   =      15.73 seconds =       0.26 minutes
	system time =       0.08 seconds =       0.00 minutes
	total time  =         17 seconds =       0.28 minutes


Properties will be evaluated at   0.000000,   0.000000,   0.000000 Bohr

Properties computed using the  density matrix

  Nuclear Dipole Moment: (a.u.)
     X:     2.7215      Y:     3.7376      Z:     0.3518

  Electronic Dipole Moment: (a.u.)
     X:    -1.4303      Y:    -2.3755      Z:    -0.1866

  Dipole Moment: (a.u.)
     X:     1.2912      Y:     1.3621      Z:     0.1652     Total:     1.8841

  Dipole Moment: (Debye)
     X:     3.2818      Y:     3.4621      Z:     0.4198     Total:     4.7888

  Quadrupole Moment: (Debye Ang)
    XX:   -46.4967     YY:   -51.7547     ZZ:   -54.5082
    XY:    -5.4806     XZ:    -0.4331     YZ:    -1.0532

  Traceless Quadrupole Moment: (Debye Ang)
    XX:     4.4232     YY:    -0.8348     ZZ:    -3.5883
    XY:    -5.4806     XZ:    -0.4331     YZ:    -1.0532

  Mulliken Charges: (a.u.)
   Center  Symbol    Alpha    Beta     Spin     Total
       1     H     0.27065  0.27065  0.00000  0.45870
       2     O     4.37619  4.37619  0.00000 -0.75239
       3     C     2.79526  2.79526  0.00000  0.40948
       4     C     3.13400  3.13400  0.00000 -0.26801
       5     C     3.11357  3.11357  0.00000 -0.22713
       6     H     0.39877  0.39877  0.00000  0.20246
       7     C     3.09498  3.09498  0.00000 -0.18996
       8     H     0.37067  0.37067  0.00000  0.25867
       9     C     3.04483  3.04483  0.00000 -0.08966
      10     H     0.39301  0.39301  0.00000  0.21397
      11     C     3.11524  3.11524  0.00000 -0.23048
      12     C     2.83357  2.83357  0.00000  0.33286
      13     H     0.39331  0.39331  0.00000  0.21338
      14     O     4.24398  4.24398  0.00000 -0.48796
      15     H     0.42196  0.42196  0.00000  0.15607

   Total alpha = 32.00000, Total beta = 32.00000, Total charge =  0.00000


*** PSI4 exiting successfully. Buy a developer a beer!
