    -----------------------------------------------------------------------
          Psi4: An Open-Source Ab Initio Electronic Structure Package
                              Psi4 (no tag) Driver

                          Git: Rev {detached?}  

    J. M. Turney, A. C. Simmonett, R. M. Parrish, E. G. Hohenstein,
    F. A. Evangelista, J. T. Fermann, B. J. Mintz, L. A. Burns, J. J. Wilke,
    M. L. Abrams, N. J. Russ, M. L. Leininger, C. L. Janssen, E. T. Seidl,
    W. D. Allen, H. F. Schaefer, R. A. King, E. F. Valeev, C. D. Sherrill,
    and T. D. Crawford, WIREs Comput. Mol. Sci. 2, 556-565 (2012)
    (doi: 10.1002/wcms.93)

                         Additional Contributions by
    A. E. DePrince, M. Saitow, U. Bozkaya, A. Yu. Sokolov
    -----------------------------------------------------------------------


    Psi4 started on: Tue Jul  5 16:28:45 2016

    Process ID:  28386
    PSI4DATADIR: /export131/home/mjharvey/miniconda3/share
    Memory level set to 256.000 MB

  ==> Input File <==

--------------------------------------------------------------------------
set {
	reference rhf
	basis 6-31G*
}


set_num_threads( 1 )
memory 2 gb

molecule MOL {
0 1

H	 -0.453439	 -1.541404	 -0.440236
N	 -0.626943	 -0.667432	 -0.000092
C	 -1.979713	 -0.158776	 0.000050
C	 0.415094	 -0.015194	 0.569919
H	 -2.520245	 -0.492427	 -0.879443
H	 -1.934741	 0.918111	 -0.004428
H	 -2.517790	 -0.485056	 0.883818
C	 1.745906	 -0.730798	 0.452295
O	 0.304241	 1.043268	 1.124522
H	 2.012614	 -0.874029	 -0.590157
H	 2.505988	 -0.136533	 0.936878
H	 1.698893	 -1.707500	 0.923655

	symmetry c1
}
set optking {
	frozen_dihedral = ("
		3 2 4 9
	")
}

ee = energy('scf')
oeprop('DIPOLE', 'QUADRUPOLE', 'MULLIKEN_CHARGES')
f=open( 'psi4out.xyz', 'w' )
f.write( "12  " )
f.write( str(ee) + "\n" )
f.write( MOL.save_string_xyz() )
f.close()
--------------------------------------------------------------------------

  Memory set to   2.000 GiB by Python script.

*** tstart() called on cx1-3-2-3.cx1.hpc.ic.ac.uk
*** at Tue Jul  5 16:28:45 2016


         ---------------------------------------------------------
                                   SCF
            by Justin Turney, Rob Parrish, and Andy Simmonett
                              RHF Reference
                        1 Threads,   2000 MiB Core
         ---------------------------------------------------------

  ==> Geometry <==

    Molecular point group: c1
    Full point group: C1

    Geometry (in Angstrom), charge = 0, multiplicity = 1:

       Center              X                  Y                   Z               Mass       
    ------------   -----------------  -----------------  -----------------  -----------------
           H         -0.412981192190    -1.433687799611    -0.865806422178     1.007825032070
           N         -0.586485192190    -0.559715799611    -0.425662422178    14.003074004780
           C         -1.939255192190    -0.051059799611    -0.425520422178    12.000000000000
           C          0.455551807810     0.092522200389     0.144348577822    12.000000000000
           H         -2.479787192190    -0.384710799611    -1.305013422178     1.007825032070
           H         -1.894283192190     1.025827200389    -0.429998422178     1.007825032070
           H         -2.477332192190    -0.377339799611     0.458247577822     1.007825032070
           C          1.786363807810    -0.623081799611     0.026724577822    12.000000000000
           O          0.344698807810     1.150984200389     0.698951577822    15.994914619560
           H          2.053071807810    -0.766312799611    -1.015727422178     1.007825032070
           H          2.546445807810    -0.028816799611     0.511307577822     1.007825032070
           H          1.739350807810    -1.599783799611     0.498084577822     1.007825032070

  Running in c1 symmetry.

  Rotational constants: A =      0.33883  B =      0.12950  C =      0.09706 [cm^-1]
  Rotational constants: A =  10157.86132  B =   3882.44767  C =   2909.74104 [MHz]
  Nuclear repulsion =  181.217051266723445

  Charge       = 0
  Multiplicity = 1
  Electrons    = 40
  Nalpha       = 20
  Nbeta        = 20

  ==> Algorithm <==

  SCF Algorithm Type is DF.
  DIIS enabled.
  MOM disabled.
  Fractional occupation disabled.
  Guess Type is CORE.
  Energy threshold   = 1.00e-06
  Density threshold  = 1.00e-06
  Integral threshold = 0.00e+00

  ==> Primary Basis <==

  Basis Set: 6-31G*
    Number of shells: 44
    Number of basis function: 89
    Number of Cartesian functions: 89
    Spherical Harmonics?: false
    Max angular momentum: 2

  ==> Pre-Iterations <==

   -------------------------------------------------------
    Irrep   Nso     Nmo     Nalpha   Nbeta   Ndocc  Nsocc
   -------------------------------------------------------
     A         89      89       0       0       0       0
   -------------------------------------------------------
    Total      89      89      20      20      20       0
   -------------------------------------------------------

 OEINTS: Overlap, kinetic, potential, dipole, and quadrupole integrals
         stored in file 35.

  ==> Integral Setup <==

  ==> DFJK: Density-Fitted J/K Matrices <==

    J tasked:                  Yes
    K tasked:                  Yes
    wK tasked:                  No
    OpenMP threads:              1
    Integrals threads:           1
    Memory (MB):              1430
    Algorithm:                Core
    Integral Cache:           NONE
    Schwarz Cutoff:          1E-12
    Fitting Condition:       1E-12

   => Auxiliary Basis Set <=

  Basis Set: 
    Number of shells: 183
    Number of basis function: 580
    Number of Cartesian functions: 580
    Spherical Harmonics?: false
    Max angular momentum: 3

  Minimum eigenvalue in the overlap matrix is 3.6572035329E-03.
  Using Symmetric Orthogonalization.
  SCF Guess: Core (One-Electron) Hamiltonian.

  ==> Iterations <==

                           Total Energy        Delta E     RMS |[F,P]|

   @DF-RHF iter   1:  -191.13804329176594   -1.91138e+02   8.58329e-02 
   @DF-RHF iter   2:  -192.99122202097442   -1.85318e+00   5.98558e-02 DIIS
   @DF-RHF iter   3:  -220.47185426962318   -2.74806e+01   6.64515e-02 DIIS
   @DF-RHF iter   4:  -241.78104608427503   -2.13092e+01   3.17643e-02 DIIS
   @DF-RHF iter   5:  -245.65907269569294   -3.87803e+00   1.66856e-02 DIIS
   @DF-RHF iter   6:  -246.78113867849231   -1.12207e+00   6.55058e-03 DIIS
   @DF-RHF iter   7:  -246.97799076105684   -1.96852e-01   2.19352e-03 DIIS
   @DF-RHF iter   8:  -247.00245925558960   -2.44685e-02   6.26643e-04 DIIS
   @DF-RHF iter   9:  -247.00463943129000   -2.18018e-03   2.72233e-04 DIIS
   @DF-RHF iter  10:  -247.00517924627263   -5.39815e-04   1.03221e-04 DIIS
   @DF-RHF iter  11:  -247.00526691189151   -8.76656e-05   3.95314e-05 DIIS
   @DF-RHF iter  12:  -247.00528555607383   -1.86442e-05   1.56933e-05 DIIS
   @DF-RHF iter  13:  -247.00528792847365   -2.37240e-06   3.19983e-06 DIIS
   @DF-RHF iter  14:  -247.00528803212632   -1.03653e-07   7.88338e-07 DIIS

  ==> Post-Iterations <==

    Orbital Energies (a.u.)
    -----------------------

    Doubly Occupied:                                                      

       1A    -20.516364     2A    -15.581101     3A    -11.342587  
       4A    -11.255100     5A    -11.229412     6A     -1.383926  
       7A     -1.228098     8A     -1.015549     9A     -0.931932  
      10A     -0.786224    11A     -0.688949    12A     -0.647540  
      13A     -0.633045    14A     -0.585429    15A     -0.580372  
      16A     -0.554134    17A     -0.546382    18A     -0.505551  
      19A     -0.412726    20A     -0.384536  

    Virtual:                                                              

      21A      0.210564    22A      0.218627    23A      0.266558  
      24A      0.280189    25A      0.309073    26A      0.318817  
      27A      0.327040    28A      0.354969    29A      0.376108  
      30A      0.426263    31A      0.498357    32A      0.582661  
      33A      0.721235    34A      0.738152    35A      0.751918  
      36A      0.767286    37A      0.814079    38A      0.830635  
      39A      0.884978    40A      0.952058    41A      0.984714  
      42A      1.026477    43A      1.042971    44A      1.080909  
      45A      1.113889    46A      1.142762    47A      1.152528  
      48A      1.187751    49A      1.200154    50A      1.213346  
      51A      1.224728    52A      1.242651    53A      1.311294  
      54A      1.355831    55A      1.398435    56A      1.597164  
      57A      1.614320    58A      1.647634    59A      1.679880  
      60A      1.702051    61A      1.810978    62A      1.928158  
      63A      2.044819    64A      2.113992    65A      2.141358  
      66A      2.193335    67A      2.214737    68A      2.252163  
      69A      2.336618    70A      2.372454    71A      2.429568  
      72A      2.500618    73A      2.553133    74A      2.574084  
      75A      2.647338    76A      2.700884    77A      2.777556  
      78A      2.797864    79A      2.902719    80A      3.009285  
      81A      3.044705    82A      3.282205    83A      3.376547  
      84A      3.554974    85A      4.362690    86A      4.473474  
      87A      4.637159    88A      4.687922    89A      4.905816  

    Final Occupation by Irrep:
              A 
    DOCC [    20 ]

  Energy converged.

  @DF-RHF Final Energy:  -247.00528803212632

   => Energetics <=

    Nuclear Repulsion Energy =            181.2170512667234448
    One-Electron Energy =                -694.8265898872354001
    Two-Electron Energy =                 266.6042505883856393
    DFT Exchange-Correlation Energy =       0.0000000000000000
    Empirical Dispersion Energy =           0.0000000000000000
    PCM Polarization Energy =               0.0000000000000000
    EFP Energy =                            0.0000000000000000
    Total Energy =                       -247.0052880321263729

    Alert: EFP and PCM quantities not currently incorporated into SCF psivars.

Properties will be evaluated at   0.000000,   0.000000,   0.000000 Bohr
  ==> Properties <==


Properties computed using the SCF density matrix

  Nuclear Dipole Moment: (a.u.)
     X:    -0.8643      Y:    -3.3348      Z:    -2.0099

  Electronic Dipole Moment: (a.u.)
     X:     0.6922      Y:     1.9854      Z:     1.2075

  Dipole Moment: (a.u.)
     X:    -0.1721      Y:    -1.3493      Z:    -0.8025     Total:     1.5793

  Dipole Moment: (Debye)
     X:    -0.4375      Y:    -3.4297      Z:    -2.0397     Total:     4.0143


  Saving occupied orbitals to File 180.

*** tstop() called on cx1-3-2-3.cx1.hpc.ic.ac.uk at Tue Jul  5 16:28:50 2016
Module time:
	user time   =       4.67 seconds =       0.08 minutes
	system time =       0.04 seconds =       0.00 minutes
	total time  =          5 seconds =       0.08 minutes
Total time:
	user time   =       4.67 seconds =       0.08 minutes
	system time =       0.04 seconds =       0.00 minutes
	total time  =          5 seconds =       0.08 minutes


Properties will be evaluated at   0.000000,   0.000000,   0.000000 Bohr

Properties computed using the  density matrix

  Nuclear Dipole Moment: (a.u.)
     X:    -0.8643      Y:    -3.3348      Z:    -2.0099

  Electronic Dipole Moment: (a.u.)
     X:     0.6922      Y:     1.9854      Z:     1.2075

  Dipole Moment: (a.u.)
     X:    -0.1721      Y:    -1.3493      Z:    -0.8025     Total:     1.5793

  Dipole Moment: (Debye)
     X:    -0.4375      Y:    -3.4297      Z:    -2.0397     Total:     4.0143

  Quadrupole Moment: (Debye Ang)
    XX:   -26.9238     YY:   -32.3223     ZZ:   -31.4851
    XY:    -1.2290     XZ:     0.3899     YZ:    -1.0432

  Traceless Quadrupole Moment: (Debye Ang)
    XX:     3.3199     YY:    -2.0786     ZZ:    -1.2414
    XY:    -1.2290     XZ:     0.3899     YZ:    -1.0432

  Mulliken Charges: (a.u.)
   Center  Symbol    Alpha    Beta     Spin     Total
       1     H     0.31036  0.31036  0.00000  0.37928
       2     N     3.89230  3.89230  0.00000 -0.78459
       3     C     3.13750  3.13750  0.00000 -0.27501
       4     C     2.63105  2.63105  0.00000  0.73790
       5     H     0.41686  0.41686  0.00000  0.16629
       6     H     0.39353  0.39353  0.00000  0.21294
       7     H     0.41363  0.41363  0.00000  0.17274
       8     C     3.29528  3.29528  0.00000 -0.59057
       9     O     4.30155  4.30155  0.00000 -0.60311
      10     H     0.40800  0.40800  0.00000  0.18399
      11     H     0.39191  0.39191  0.00000  0.21618
      12     H     0.40802  0.40802  0.00000  0.18395

   Total alpha = 20.00000, Total beta = 20.00000, Total charge =  0.00000


*** PSI4 exiting successfully. Buy a developer a beer!
