    -----------------------------------------------------------------------
          Psi4: An Open-Source Ab Initio Electronic Structure Package
                              Psi4 (no tag) Driver

                          Git: Rev {detached?}  

    J. M. Turney, A. C. Simmonett, R. M. Parrish, E. G. Hohenstein,
    F. A. Evangelista, J. T. Fermann, B. J. Mintz, L. A. Burns, J. J. Wilke,
    M. L. Abrams, N. J. Russ, M. L. Leininger, C. L. Janssen, E. T. Seidl,
    W. D. Allen, H. F. Schaefer, R. A. King, E. F. Valeev, C. D. Sherrill,
    and T. D. Crawford, WIREs Comput. Mol. Sci. 2, 556-565 (2012)
    (doi: 10.1002/wcms.93)

                         Additional Contributions by
    A. E. DePrince, M. Saitow, U. Bozkaya, A. Yu. Sokolov
    -----------------------------------------------------------------------


    Psi4 started on: Tue Jul  5 16:57:58 2016

    Process ID:  15444
    PSI4DATADIR: /export131/home/mjharvey/miniconda3/share
    Memory level set to 256.000 MB

  ==> Input File <==

--------------------------------------------------------------------------
set {
	reference rhf
	basis 6-31G*
}


set_num_threads( 1 )
memory 2 gb

molecule MOL {
0 1

H	 -0.000158	 1.970498	 0.756846
O	 -0.000074	 1.880206	 -0.189275
C	 -0.000015	 0.544847	 -0.545111
C	 -1.146713	 -0.178430	 0.153418
C	 1.372058	 -0.064025	 -0.275501
H	 -0.178470	 0.486751	 -1.608540
F	 -1.905509	 0.696104	 0.778689
F	 -1.904537	 -0.844922	 -0.691478
F	 -0.685619	 -1.030586	 1.054983
F	 2.283717	 0.570380	 -0.981153
F	 1.423530	 -1.339565	 -0.596012
F	 1.696156	 0.053849	 1.002248

	symmetry c1
}
set optking {
	frozen_dihedral = ("
		6 3 2 1
	")
}

ee = energy('scf')
oeprop('DIPOLE', 'QUADRUPOLE', 'MULLIKEN_CHARGES')
f=open( 'psi4out.xyz', 'w' )
f.write( "12  " )
f.write( str(ee) + "\n" )
f.write( MOL.save_string_xyz() )
f.close()
--------------------------------------------------------------------------

  Memory set to   2.000 GiB by Python script.

*** tstart() called on cx1-3-4-4.cx1.hpc.ic.ac.uk
*** at Tue Jul  5 16:57:59 2016


         ---------------------------------------------------------
                                   SCF
            by Justin Turney, Rob Parrish, and Andy Simmonett
                              RHF Reference
                        1 Threads,   2000 MiB Core
         ---------------------------------------------------------

  ==> Geometry <==

    Molecular point group: c1
    Full point group: C1

    Geometry (in Angstrom), charge = 0, multiplicity = 1:

       Center              X                  Y                   Z               Mass       
    ------------   -----------------  -----------------  -----------------  -----------------
           H         -0.117825900975     1.969415381551     0.763481477871     1.007825032070
           O         -0.117741900975     1.879123381551    -0.182639522129    15.994914619560
           C         -0.117682900975     0.543764381551    -0.538475522129    12.000000000000
           C         -1.264380900975    -0.179512618449     0.160053477871    12.000000000000
           C          1.254390099025    -0.065107618449    -0.268865522129    12.000000000000
           H         -0.296137900975     0.485668381551    -1.601904522129     1.007825032070
           F         -2.023176900975     0.695021381551     0.785324477871    18.998403224000
           F         -2.022204900975    -0.846004618449    -0.684842522129    18.998403224000
           F         -0.803286900975    -1.031668618449     1.061618477871    18.998403224000
           F          2.166049099025     0.569297381551    -0.974517522129    18.998403224000
           F          1.305862099025    -1.340647618449    -0.589376522129    18.998403224000
           F          1.578488099025     0.052766381551     1.008883477871    18.998403224000

  Running in c1 symmetry.

  Rotational constants: A =      0.07223  B =      0.03587  C =      0.03171 [cm^-1]
  Rotational constants: A =   2165.39977  B =   1075.29550  C =    950.68842 [MHz]
  Nuclear repulsion =  671.608928581456780

  Charge       = 0
  Multiplicity = 1
  Electrons    = 82
  Nalpha       = 41
  Nbeta        = 41

  ==> Algorithm <==

  SCF Algorithm Type is DF.
  DIIS enabled.
  MOM disabled.
  Fractional occupation disabled.
  Guess Type is CORE.
  Energy threshold   = 1.00e-06
  Density threshold  = 1.00e-06
  Integral threshold = 0.00e+00

  ==> Primary Basis <==

  Basis Set: 6-31G*
    Number of shells: 64
    Number of basis function: 154
    Number of Cartesian functions: 154
    Spherical Harmonics?: false
    Max angular momentum: 2

  ==> Pre-Iterations <==

   -------------------------------------------------------
    Irrep   Nso     Nmo     Nalpha   Nbeta   Ndocc  Nsocc
   -------------------------------------------------------
     A        154     154       0       0       0       0
   -------------------------------------------------------
    Total     154     154      41      41      41       0
   -------------------------------------------------------

 OEINTS: Overlap, kinetic, potential, dipole, and quadrupole integrals
         stored in file 35.

  ==> Integral Setup <==

  ==> DFJK: Density-Fitted J/K Matrices <==

    J tasked:                  Yes
    K tasked:                  Yes
    wK tasked:                  No
    OpenMP threads:              1
    Integrals threads:           1
    Memory (MB):              1430
    Algorithm:                Core
    Integral Cache:           NONE
    Schwarz Cutoff:          1E-12
    Fitting Condition:       1E-12

   => Auxiliary Basis Set <=

  Basis Set: 
    Number of shells: 258
    Number of basis function: 860
    Number of Cartesian functions: 860
    Spherical Harmonics?: false
    Max angular momentum: 3

  Minimum eigenvalue in the overlap matrix is 1.0277621083E-03.
  Using Symmetric Orthogonalization.
  SCF Guess: Core (One-Electron) Hamiltonian.

  ==> Iterations <==

                           Total Energy        Delta E     RMS |[F,P]|

   @DF-RHF iter   1:  -701.78294666402701   -7.01783e+02   6.77470e-02 
   @DF-RHF iter   2:  -564.30649515663106    1.37476e+02   8.56617e-02 DIIS
   @DF-RHF iter   3:  -736.63575504210201   -1.72329e+02   4.74558e-02 DIIS
   @DF-RHF iter   4:  -734.06621732450469    2.56954e+00   4.66378e-02 DIIS
   @DF-RHF iter   5:  -774.37395381123918   -4.03077e+01   3.01674e-02 DIIS
   @DF-RHF iter   6:  -785.66353632706398   -1.12896e+01   8.35994e-03 DIIS
   @DF-RHF iter   7:  -786.16805669073699   -5.04520e-01   3.44584e-03 DIIS
   @DF-RHF iter   8:  -786.25954677939183   -9.14901e-02   1.02461e-03 DIIS
   @DF-RHF iter   9:  -786.26886953424184   -9.32275e-03   3.52780e-04 DIIS
   @DF-RHF iter  10:  -786.27033546352698   -1.46593e-03   1.07968e-04 DIIS
   @DF-RHF iter  11:  -786.27047667462614   -1.41211e-04   5.16360e-05 DIIS
   @DF-RHF iter  12:  -786.27050859679832   -3.19222e-05   9.11462e-06 DIIS
   @DF-RHF iter  13:  -786.27051015547852   -1.55868e-06   2.52815e-06 DIIS
   @DF-RHF iter  14:  -786.27051030106907   -1.45591e-07   7.49365e-07 DIIS

  ==> Post-Iterations <==

    Orbital Energies (a.u.)
    -----------------------

    Doubly Occupied:                                                      

       1A    -26.363993     2A    -26.363549     3A    -26.360718  
       4A    -26.360530     5A    -26.357974     6A    -26.355733  
       7A    -20.613440     8A    -11.528048     9A    -11.523320  
      10A    -11.347230    11A     -1.765974    12A     -1.757444  
      13A     -1.662182    14A     -1.660247    15A     -1.656866  
      16A     -1.652436    17A     -1.433007    18A     -1.101407  
      19A     -0.997392    20A     -0.936355    21A     -0.867619  
      22A     -0.860851    23A     -0.851965    24A     -0.845120  
      25A     -0.834977    26A     -0.810882    27A     -0.733984  
      28A     -0.732067    29A     -0.726785    30A     -0.723048  
      31A     -0.688021    32A     -0.685998    33A     -0.682668  
      34A     -0.677789    35A     -0.666471    36A     -0.663324  
      37A     -0.655226    38A     -0.650322    39A     -0.615327  
      40A     -0.548539    41A     -0.505701  

    Virtual:                                                              

      42A      0.209431    43A      0.242037    44A      0.282850  
      45A      0.338120    46A      0.365475    47A      0.403823  
      48A      0.453376    49A      0.461573    50A      0.490400  
      51A      0.538002    52A      0.554306    53A      0.668789  
      54A      0.673905    55A      0.711544    56A      0.734457  
      57A      0.749622    58A      0.783230    59A      0.796044  
      60A      0.848230    61A      0.912043    62A      0.972356  
      63A      1.051404    64A      1.073779    65A      1.110855  
      66A      1.167875    67A      1.205411    68A      1.252445  
      69A      1.294754    70A      1.306747    71A      1.341422  
      72A      1.359619    73A      1.365465    74A      1.385584  
      75A      1.422405    76A      1.466689    77A      1.538952  
      78A      1.569378    79A      1.585632    80A      1.594027  
      81A      1.613390    82A      1.622587    83A      1.633350  
      84A      1.637466    85A      1.648923    86A      1.657243  
      87A      1.664352    88A      1.684759    89A      1.707782  
      90A      1.726327    91A      1.749445    92A      1.783910  
      93A      1.864807    94A      1.902926    95A      1.913733  
      96A      1.968458    97A      1.990364    98A      2.021607  
      99A      2.029873   100A      2.084654   101A      2.094624  
     102A      2.108690   103A      2.109616   104A      2.116737  
     105A      2.127703   106A      2.154896   107A      2.172381  
     108A      2.204268   109A      2.282532   110A      2.297014  
     111A      2.308229   112A      2.332110   113A      2.335642  
     114A      2.346485   115A      2.375656   116A      2.395428  
     117A      2.398347   118A      2.402042   119A      2.418945  
     120A      2.475170   121A      2.511656   122A      2.544924  
     123A      2.586450   124A      2.621689   125A      2.671761  
     126A      2.753527   127A      2.775635   128A      2.810136  
     129A      2.852261   130A      2.931854   131A      3.009464  
     132A      3.062743   133A      3.124401   134A      3.175950  
     135A      3.188503   136A      3.238960   137A      3.265572  
     138A      3.304867   139A      3.410109   140A      3.414033  
     141A      3.419435   142A      3.456684   143A      3.470215  
     144A      3.487358   145A      4.165909   146A      4.580403  
     147A      4.732535   148A      4.872525   149A      5.049259  
     150A      5.142157   151A      5.250809   152A      5.472400  
     153A      5.852202   154A      6.698547  

    Final Occupation by Irrep:
              A 
    DOCC [    41 ]

  Energy converged.

  @DF-RHF Final Energy:  -786.27051030106907

   => Energetics <=

    Nuclear Repulsion Energy =            671.6089285814567802
    One-Electron Energy =               -2430.1095957405586887
    Two-Electron Energy =                 972.2301568580342064
    DFT Exchange-Correlation Energy =       0.0000000000000000
    Empirical Dispersion Energy =           0.0000000000000000
    PCM Polarization Energy =               0.0000000000000000
    EFP Energy =                            0.0000000000000000
    Total Energy =                       -786.2705103010675884

    Alert: EFP and PCM quantities not currently incorporated into SCF psivars.

Properties will be evaluated at   0.000000,   0.000000,   0.000000 Bohr
  ==> Properties <==


Properties computed using the SCF density matrix

  Nuclear Dipole Moment: (a.u.)
     X:    -0.5789      Y:     4.1041      Z:    -1.3596

  Electronic Dipole Moment: (a.u.)
     X:     0.4239      Y:    -3.9326      Z:     1.3631

  Dipole Moment: (a.u.)
     X:    -0.1550      Y:     0.1715      Z:     0.0036     Total:     0.2312

  Dipole Moment: (Debye)
     X:    -0.3941      Y:     0.4360      Z:     0.0090     Total:     0.5877


  Saving occupied orbitals to File 180.

*** tstop() called on cx1-3-4-4.cx1.hpc.ic.ac.uk at Tue Jul  5 16:58:16 2016
Module time:
	user time   =      16.96 seconds =       0.28 minutes
	system time =       0.19 seconds =       0.00 minutes
	total time  =         17 seconds =       0.28 minutes
Total time:
	user time   =      16.96 seconds =       0.28 minutes
	system time =       0.19 seconds =       0.00 minutes
	total time  =         17 seconds =       0.28 minutes


Properties will be evaluated at   0.000000,   0.000000,   0.000000 Bohr

Properties computed using the  density matrix

  Nuclear Dipole Moment: (a.u.)
     X:    -0.5789      Y:     4.1041      Z:    -1.3596

  Electronic Dipole Moment: (a.u.)
     X:     0.4239      Y:    -3.9326      Z:     1.3631

  Dipole Moment: (a.u.)
     X:    -0.1550      Y:     0.1715      Z:     0.0036     Total:     0.2312

  Dipole Moment: (Debye)
     X:    -0.3941      Y:     0.4360      Z:     0.0090     Total:     0.5877

  Quadrupole Moment: (Debye Ang)
    XX:   -56.4523     YY:   -55.1763     ZZ:   -50.0563
    XY:    -0.2742     XZ:     0.6957     YZ:     2.9886

  Traceless Quadrupole Moment: (Debye Ang)
    XX:    -2.5574     YY:    -1.2813     ZZ:     3.8387
    XY:    -0.2742     XZ:     0.6957     YZ:     2.9886

  Mulliken Charges: (a.u.)
   Center  Symbol    Alpha    Beta     Spin     Total
       1     H     0.26711  0.26711  0.00000  0.46578
       2     O     4.35983  4.35983  0.00000 -0.71967
       3     C     3.07211  3.07211  0.00000 -0.14421
       4     C     2.43197  2.43197  0.00000  1.13605
       5     C     2.43235  2.43235  0.00000  1.13530
       6     H     0.37226  0.37226  0.00000  0.25548
       7     F     4.67621  4.67621  0.00000 -0.35242
       8     F     4.67485  4.67485  0.00000 -0.34970
       9     F     4.67863  4.67863  0.00000 -0.35726
      10     F     4.67528  4.67528  0.00000 -0.35057
      11     F     4.67634  4.67634  0.00000 -0.35268
      12     F     4.68305  4.68305  0.00000 -0.36610

   Total alpha = 41.00000, Total beta = 41.00000, Total charge =  0.00000


*** PSI4 exiting successfully. Buy a developer a beer!
