    -----------------------------------------------------------------------
          Psi4: An Open-Source Ab Initio Electronic Structure Package
                              Psi4 (no tag) Driver

                          Git: Rev {detached?}  

    J. M. Turney, A. C. Simmonett, R. M. Parrish, E. G. Hohenstein,
    F. A. Evangelista, J. T. Fermann, B. J. Mintz, L. A. Burns, J. J. Wilke,
    M. L. Abrams, N. J. Russ, M. L. Leininger, C. L. Janssen, E. T. Seidl,
    W. D. Allen, H. F. Schaefer, R. A. King, E. F. Valeev, C. D. Sherrill,
    and T. D. Crawford, WIREs Comput. Mol. Sci. 2, 556-565 (2012)
    (doi: 10.1002/wcms.93)

                         Additional Contributions by
    A. E. DePrince, M. Saitow, U. Bozkaya, A. Yu. Sokolov
    -----------------------------------------------------------------------


    Psi4 started on: Tue Jul  5 16:36:06 2016

    Process ID:  22709
    PSI4DATADIR: /export131/home/mjharvey/miniconda3/share
    Memory level set to 256.000 MB

  ==> Input File <==

--------------------------------------------------------------------------
set {
	reference rhf
	basis 6-31G*
}


set_num_threads( 1 )
memory 2 gb

molecule MOL {
0 1

H	 -2.698709	 -0.000305	 0.034435
C	 -1.693833	 0.000034	 0.434417
O	 -0.828952	 -0.000968	 -0.659236
H	 -1.574200	 0.882896	 1.055746
H	 -1.574147	 -0.881698	 1.057355
C	 0.559449	 -0.000018	 -0.420814
C	 1.202390	 -1.356755	 -0.701544
C	 1.276042	 1.141734	 -1.139046
H	 0.626217	 0.184608	 0.644778
H	 0.638926	 -2.147357	 -0.217803
H	 2.215959	 -1.374465	 -0.313474
H	 1.256117	 -1.574233	 -1.763609
H	 0.763170	 2.080302	 -0.958741
H	 2.292622	 1.232736	 -0.769251
H	 1.332252	 0.981942	 -2.211029

	symmetry c1
}
set optking {
	frozen_dihedral = ("
		6 3 2 1
	")
}

ee = energy('scf')
oeprop('DIPOLE', 'QUADRUPOLE', 'MULLIKEN_CHARGES')
f=open( 'psi4out.xyz', 'w' )
f.write( "15  " )
f.write( str(ee) + "\n" )
f.write( MOL.save_string_xyz() )
f.close()
--------------------------------------------------------------------------

  Memory set to   2.000 GiB by Python script.

*** tstart() called on cx1-3-4-2.cx1.hpc.ic.ac.uk
*** at Tue Jul  5 16:36:06 2016


         ---------------------------------------------------------
                                   SCF
            by Justin Turney, Rob Parrish, and Andy Simmonett
                              RHF Reference
                        1 Threads,   2000 MiB Core
         ---------------------------------------------------------

  ==> Geometry <==

    Molecular point group: c1
    Full point group: C1

    Geometry (in Angstrom), charge = 0, multiplicity = 1:

       Center              X                  Y                   Z               Mass       
    ------------   -----------------  -----------------  -----------------  -----------------
           H         -2.782051174135     0.043110641363     0.519587634408     1.007825032070
           C         -1.777175174135     0.043449641363     0.919569634408    12.000000000000
           O         -0.912294174135     0.042447641363    -0.174083365592    15.994914619560
           H         -1.657542174135     0.926311641363     1.540898634408     1.007825032070
           H         -1.657489174135    -0.838282358637     1.542507634408     1.007825032070
           C          0.476106825865     0.043397641363     0.064338634408    12.000000000000
           C          1.119047825865    -1.313339358637    -0.216391365592    12.000000000000
           C          1.192699825865     1.185149641363    -0.653893365592    12.000000000000
           H          0.542874825865     0.228023641363     1.129930634408     1.007825032070
           H          0.555583825865    -2.103941358637     0.267349634408     1.007825032070
           H          2.132616825865    -1.331049358637     0.171678634408     1.007825032070
           H          1.172774825865    -1.530817358637    -1.278456365592     1.007825032070
           H          0.679827825865     2.123717641363    -0.473588365592     1.007825032070
           H          2.209279825865     1.276151641363    -0.284098365592     1.007825032070
           H          1.248909825865     1.025357641363    -1.725876365592     1.007825032070

  Running in c1 symmetry.

  Rotational constants: A =      0.24911  B =      0.12091  C =      0.09137 [cm^-1]
  Rotational constants: A =   7468.21908  B =   3624.81064  C =   2739.21943 [MHz]
  Nuclear repulsion =  195.546252680117789

  Charge       = 0
  Multiplicity = 1
  Electrons    = 42
  Nalpha       = 21
  Nbeta        = 21

  ==> Algorithm <==

  SCF Algorithm Type is DF.
  DIIS enabled.
  MOM disabled.
  Fractional occupation disabled.
  Guess Type is CORE.
  Energy threshold   = 1.00e-06
  Density threshold  = 1.00e-06
  Integral threshold = 0.00e+00

  ==> Primary Basis <==

  Basis Set: 6-31G*
    Number of shells: 50
    Number of basis function: 95
    Number of Cartesian functions: 95
    Spherical Harmonics?: false
    Max angular momentum: 2

  ==> Pre-Iterations <==

   -------------------------------------------------------
    Irrep   Nso     Nmo     Nalpha   Nbeta   Ndocc  Nsocc
   -------------------------------------------------------
     A         95      95       0       0       0       0
   -------------------------------------------------------
    Total      95      95      21      21      21       0
   -------------------------------------------------------

 OEINTS: Overlap, kinetic, potential, dipole, and quadrupole integrals
         stored in file 35.

  ==> Integral Setup <==

  ==> DFJK: Density-Fitted J/K Matrices <==

    J tasked:                  Yes
    K tasked:                  Yes
    wK tasked:                  No
    OpenMP threads:              1
    Integrals threads:           1
    Memory (MB):              1430
    Algorithm:                Core
    Integral Cache:           NONE
    Schwarz Cutoff:          1E-12
    Fitting Condition:       1E-12

   => Auxiliary Basis Set <=

  Basis Set: 
    Number of shells: 210
    Number of basis function: 655
    Number of Cartesian functions: 655
    Spherical Harmonics?: false
    Max angular momentum: 3

  Minimum eigenvalue in the overlap matrix is 4.2818232515E-03.
  Using Symmetric Orthogonalization.
  SCF Guess: Core (One-Electron) Hamiltonian.

  ==> Iterations <==

                           Total Energy        Delta E     RMS |[F,P]|

   @DF-RHF iter   1:  -175.11392317692270   -1.75114e+02   9.41537e-02 
   @DF-RHF iter   2:  -188.33363624112303   -1.32197e+01   4.87235e-02 DIIS
   @DF-RHF iter   3:  -200.23990313461854   -1.19063e+01   6.87779e-02 DIIS
   @DF-RHF iter   4:  -218.71061730679412   -1.84707e+01   4.60826e-02 DIIS
   @DF-RHF iter   5:  -227.99845095213419   -9.28783e+00   3.01628e-02 DIIS
   @DF-RHF iter   6:  -230.24477363528564   -2.24632e+00   1.98305e-02 DIIS
   @DF-RHF iter   7:  -231.70039102510117   -1.45562e+00   9.47971e-03 DIIS
   @DF-RHF iter   8:  -232.11034885616095   -4.09958e-01   1.96261e-03 DIIS
   @DF-RHF iter   9:  -232.13258815514246   -2.22393e-02   8.59507e-04 DIIS
   @DF-RHF iter  10:  -232.13591215091378   -3.32400e-03   1.72255e-04 DIIS
   @DF-RHF iter  11:  -232.13615032570124   -2.38175e-04   4.74973e-05 DIIS
   @DF-RHF iter  12:  -232.13617047209516   -2.01464e-05   1.53023e-05 DIIS
   @DF-RHF iter  13:  -232.13617220548861   -1.73339e-06   3.79960e-06 DIIS
   @DF-RHF iter  14:  -232.13617230828675   -1.02798e-07   8.27403e-07 DIIS

  ==> Post-Iterations <==

    Orbital Energies (a.u.)
    -----------------------

    Doubly Occupied:                                                      

       1A    -20.545419     2A    -11.274896     3A    -11.264982  
       4A    -11.209034     5A    -11.208630     6A     -1.369163  
       7A     -1.051714     8A     -0.936103     9A     -0.921574  
      10A     -0.794964    11A     -0.664058    12A     -0.640022  
      13A     -0.636116    14A     -0.580663    15A     -0.556494  
      16A     -0.541517    17A     -0.536963    18A     -0.496668  
      19A     -0.493564    20A     -0.445317    21A     -0.404143  

    Virtual:                                                              

      22A      0.225607    23A      0.266102    24A      0.281757  
      25A      0.293165    26A      0.313933    27A      0.322420  
      28A      0.338452    29A      0.341152    30A      0.351511  
      31A      0.355327    32A      0.362208    33A      0.396555  
      34A      0.455934    35A      0.471574    36A      0.707120  
      37A      0.720974    38A      0.762120    39A      0.780446  
      40A      0.787696    41A      0.812849    42A      0.834776  
      43A      0.897455    44A      0.933350    45A      0.979958  
      46A      0.993313    47A      0.996837    48A      1.107275  
      49A      1.132669    50A      1.144586    51A      1.173213  
      52A      1.178685    53A      1.193840    54A      1.200755  
      55A      1.214969    56A      1.240537    57A      1.244139  
      58A      1.267628    59A      1.289387    60A      1.380475  
      61A      1.437072    62A      1.583017    63A      1.613286  
      64A      1.696395    65A      1.707340    66A      1.862991  
      67A      1.891932    68A      1.937740    69A      2.053426  
      70A      2.095174    71A      2.111148    72A      2.235920  
      73A      2.262724    74A      2.338828    75A      2.394664  
      76A      2.465586    77A      2.472943    78A      2.500737  
      79A      2.534071    80A      2.579934    81A      2.599782  
      82A      2.613317    83A      2.703806    84A      2.726275  
      85A      2.864533    86A      2.925304    87A      2.945423  
      88A      3.119573    89A      3.217517    90A      3.304644  
      91A      4.376838    92A      4.606104    93A      4.695346  
      94A      4.719974    95A      4.955927  

    Final Occupation by Irrep:
              A 
    DOCC [    21 ]

  Energy converged.

  @DF-RHF Final Energy:  -232.13617230828675

   => Energetics <=

    Nuclear Repulsion Energy =            195.5462526801177887
    One-Electron Energy =                -702.2206539259284455
    Two-Electron Energy =                 274.5382289375230584
    DFT Exchange-Correlation Energy =       0.0000000000000000
    Empirical Dispersion Energy =           0.0000000000000000
    PCM Polarization Energy =               0.0000000000000000
    EFP Energy =                            0.0000000000000000
    Total Energy =                       -232.1361723082875983

    Alert: EFP and PCM quantities not currently incorporated into SCF psivars.

Properties will be evaluated at   0.000000,   0.000000,   0.000000 Bohr
  ==> Properties <==


Properties computed using the SCF density matrix

  Nuclear Dipole Moment: (a.u.)
     X:     2.2875      Y:    -0.1699      Z:     1.3209

  Electronic Dipole Moment: (a.u.)
     X:    -2.0986      Y:     0.1794      Z:    -0.8098

  Dipole Moment: (a.u.)
     X:     0.1889      Y:     0.0095      Z:     0.5112     Total:     0.5450

  Dipole Moment: (Debye)
     X:     0.4801      Y:     0.0241      Z:     1.2992     Total:     1.3853


  Saving occupied orbitals to File 180.

*** tstop() called on cx1-3-4-2.cx1.hpc.ic.ac.uk at Tue Jul  5 16:36:16 2016
Module time:
	user time   =       8.86 seconds =       0.15 minutes
	system time =       0.05 seconds =       0.00 minutes
	total time  =         10 seconds =       0.17 minutes
Total time:
	user time   =       8.86 seconds =       0.15 minutes
	system time =       0.05 seconds =       0.00 minutes
	total time  =         10 seconds =       0.17 minutes


Properties will be evaluated at   0.000000,   0.000000,   0.000000 Bohr

Properties computed using the  density matrix

  Nuclear Dipole Moment: (a.u.)
     X:     2.2875      Y:    -0.1699      Z:     1.3209

  Electronic Dipole Moment: (a.u.)
     X:    -2.0986      Y:     0.1794      Z:    -0.8098

  Dipole Moment: (a.u.)
     X:     0.1889      Y:     0.0095      Z:     0.5112     Total:     0.5450

  Dipole Moment: (Debye)
     X:     0.4801      Y:     0.0241      Z:     1.2992     Total:     1.3853

  Quadrupole Moment: (Debye Ang)
    XX:   -31.5027     YY:   -33.4465     ZZ:   -32.8228
    XY:     0.0475     XZ:    -2.2117     YZ:     0.0978

  Traceless Quadrupole Moment: (Debye Ang)
    XX:     1.0880     YY:    -0.8558     ZZ:    -0.2322
    XY:     0.0475     XZ:    -2.2117     YZ:     0.0978

  Mulliken Charges: (a.u.)
   Center  Symbol    Alpha    Beta     Spin     Total
       1     H     0.41228  0.41228  0.00000  0.17544
       2     C     3.07768  3.07768  0.00000 -0.15536
       3     O     4.31742  4.31742  0.00000 -0.63484
       4     H     0.42985  0.42985  0.00000  0.14031
       5     H     0.43056  0.43056  0.00000  0.13888
       6     C     2.90378  2.90378  0.00000  0.19244
       7     C     3.24266  3.24266  0.00000 -0.48533
       8     C     3.24232  3.24232  0.00000 -0.48464
       9     H     0.43416  0.43416  0.00000  0.13167
      10     H     0.41694  0.41694  0.00000  0.16611
      11     H     0.42280  0.42280  0.00000  0.15440
      12     H     0.41631  0.41631  0.00000  0.16738
      13     H     0.41479  0.41479  0.00000  0.17042
      14     H     0.42212  0.42212  0.00000  0.15576
      15     H     0.41632  0.41632  0.00000  0.16735

   Total alpha = 21.00000, Total beta = 21.00000, Total charge =  0.00000


*** PSI4 exiting successfully. Buy a developer a beer!
