    -----------------------------------------------------------------------
          Psi4: An Open-Source Ab Initio Electronic Structure Package
                              Psi4 (no tag) Driver

                          Git: Rev {detached?}  

    J. M. Turney, A. C. Simmonett, R. M. Parrish, E. G. Hohenstein,
    F. A. Evangelista, J. T. Fermann, B. J. Mintz, L. A. Burns, J. J. Wilke,
    M. L. Abrams, N. J. Russ, M. L. Leininger, C. L. Janssen, E. T. Seidl,
    W. D. Allen, H. F. Schaefer, R. A. King, E. F. Valeev, C. D. Sherrill,
    and T. D. Crawford, WIREs Comput. Mol. Sci. 2, 556-565 (2012)
    (doi: 10.1002/wcms.93)

                         Additional Contributions by
    A. E. DePrince, M. Saitow, U. Bozkaya, A. Yu. Sokolov
    -----------------------------------------------------------------------


    Psi4 started on: Tue Jul  5 16:28:10 2016

    Process ID:  31971
    PSI4DATADIR: /export131/home/mjharvey/miniconda3/share
    Memory level set to 256.000 MB

  ==> Input File <==

--------------------------------------------------------------------------
set {
	reference rhf
	basis 6-31G*
}


set_num_threads( 1 )
memory 2 gb

molecule MOL {
0 1

H	 1.148083	 -1.049780	 0.784252
O	 1.319262	 -0.618148	 -0.041729
C	 0.709265	 0.639550	 -0.033818
C	 0.409984	 1.171676	 1.343082
H	 -0.214314	 0.531195	 -0.591011
H	 1.314725	 1.366715	 -0.573887
C	 0.534226	 0.492555	 2.465634
H	 0.065384	 2.193907	 1.370949
H	 0.857079	 -0.532690	 2.473901
H	 0.302749	 0.937042	 3.416857

	symmetry c1
}
set optking {
	frozen_dihedral = ("
		5 3 4 7,
		3 4 7 9
	")
}

ee = energy('scf')
oeprop('DIPOLE', 'QUADRUPOLE', 'MULLIKEN_CHARGES')
f=open( 'psi4out.xyz', 'w' )
f.write( "10  " )
f.write( str(ee) + "\n" )
f.write( MOL.save_string_xyz() )
f.close()
--------------------------------------------------------------------------

  Memory set to   2.000 GiB by Python script.

*** tstart() called on cx1-3-5-2.cx1.hpc.ic.ac.uk
*** at Tue Jul  5 16:28:10 2016


         ---------------------------------------------------------
                                   SCF
            by Justin Turney, Rob Parrish, and Andy Simmonett
                              RHF Reference
                        1 Threads,   2000 MiB Core
         ---------------------------------------------------------

  ==> Geometry <==

    Molecular point group: c1
    Full point group: C1

    Geometry (in Angstrom), charge = 0, multiplicity = 1:

       Center              X                  Y                   Z               Mass       
    ------------   -----------------  -----------------  -----------------  -----------------
           H          0.382358620612    -1.415576390088    -0.104179650118     1.007825032070
           O          0.553537620612    -0.983944390088    -0.930160650118    15.994914619560
           C         -0.056459379388     0.273753609912    -0.922249650118    12.000000000000
           C         -0.355740379388     0.805879609912     0.454650349882    12.000000000000
           H         -0.980038379388     0.165398609912    -1.479442650118     1.007825032070
           H          0.549000620612     1.000918609912    -1.462318650118     1.007825032070
           C         -0.231498379388     0.126758609912     1.577202349882    12.000000000000
           H         -0.700340379388     1.828110609912     0.482517349882     1.007825032070
           H          0.091354620612    -0.898486390088     1.585469349882     1.007825032070
           H         -0.462975379388     0.571245609912     2.528425349882     1.007825032070

  Running in c1 symmetry.

  Rotational constants: A =      0.57827  B =      0.20157  C =      0.15397 [cm^-1]
  Rotational constants: A =  17336.01671  B =   6042.94420  C =   4615.76828 [MHz]
  Nuclear repulsion =  119.825454274210955

  Charge       = 0
  Multiplicity = 1
  Electrons    = 32
  Nalpha       = 16
  Nbeta        = 16

  ==> Algorithm <==

  SCF Algorithm Type is DF.
  DIIS enabled.
  MOM disabled.
  Fractional occupation disabled.
  Guess Type is CORE.
  Energy threshold   = 1.00e-06
  Density threshold  = 1.00e-06
  Integral threshold = 0.00e+00

  ==> Primary Basis <==

  Basis Set: 6-31G*
    Number of shells: 36
    Number of basis function: 72
    Number of Cartesian functions: 72
    Spherical Harmonics?: false
    Max angular momentum: 2

  ==> Pre-Iterations <==

   -------------------------------------------------------
    Irrep   Nso     Nmo     Nalpha   Nbeta   Ndocc  Nsocc
   -------------------------------------------------------
     A         72      72       0       0       0       0
   -------------------------------------------------------
    Total      72      72      16      16      16       0
   -------------------------------------------------------

 OEINTS: Overlap, kinetic, potential, dipole, and quadrupole integrals
         stored in file 35.

  ==> Integral Setup <==

  ==> DFJK: Density-Fitted J/K Matrices <==

    J tasked:                  Yes
    K tasked:                  Yes
    wK tasked:                  No
    OpenMP threads:              1
    Integrals threads:           1
    Memory (MB):              1430
    Algorithm:                Core
    Integral Cache:           NONE
    Schwarz Cutoff:          1E-12
    Fitting Condition:       1E-12

   => Auxiliary Basis Set <=

  Basis Set: 
    Number of shells: 150
    Number of basis function: 474
    Number of Cartesian functions: 474
    Spherical Harmonics?: false
    Max angular momentum: 3

  Minimum eigenvalue in the overlap matrix is 3.7198739347E-03.
  Using Symmetric Orthogonalization.
  SCF Guess: Core (One-Electron) Hamiltonian.

  ==> Iterations <==

                           Total Energy        Delta E     RMS |[F,P]|

   @DF-RHF iter   1:  -158.40173393810673   -1.58402e+02   8.88991e-02 
   @DF-RHF iter   2:  -125.29703968140771    3.31047e+01   8.10846e-02 DIIS
   @DF-RHF iter   3:  -168.90518022753068   -4.36081e+01   5.76967e-02 DIIS
   @DF-RHF iter   4:  -188.34171125878063   -1.94365e+01   3.33709e-02 DIIS
   @DF-RHF iter   5:  -191.73301788215045   -3.39131e+00   8.76086e-03 DIIS
   @DF-RHF iter   6:  -191.86959678276341   -1.36579e-01   3.73227e-03 DIIS
   @DF-RHF iter   7:  -191.90260510718954   -3.30083e-02   1.60035e-03 DIIS
   @DF-RHF iter   8:  -191.90950434402103   -6.89924e-03   4.41974e-04 DIIS
   @DF-RHF iter   9:  -191.91016266188532   -6.58318e-04   1.19053e-04 DIIS
   @DF-RHF iter  10:  -191.91022495376538   -6.22919e-05   3.48898e-05 DIIS
   @DF-RHF iter  11:  -191.91023115417883   -6.20041e-06   1.51008e-05 DIIS
   @DF-RHF iter  12:  -191.91023245224952   -1.29807e-06   4.34443e-06 DIIS
   @DF-RHF iter  13:  -191.91023255538258   -1.03133e-07   9.80187e-07 DIIS

  ==> Post-Iterations <==

    Orbital Energies (a.u.)
    -----------------------

    Doubly Occupied:                                                      

       1A    -20.555525     2A    -11.278700     3A    -11.242595  
       4A    -11.231473     5A     -1.367323     6A     -1.066537  
       7A     -0.935754     8A     -0.773746     9A     -0.696534  
      10A     -0.652079    11A     -0.635405    12A     -0.569529  
      13A     -0.550438    14A     -0.489541    15A     -0.448982  
      16A     -0.372660  

    Virtual:                                                              

      17A      0.176050    18A      0.229890    19A      0.252883  
      20A      0.294508    21A      0.332195    22A      0.338683  
      23A      0.358860    24A      0.396418    25A      0.464158  
      26A      0.577278    27A      0.729398    28A      0.757236  
      29A      0.771144    30A      0.818991    31A      0.856848  
      32A      0.896914    33A      0.904413    34A      0.918636  
      35A      1.010478    36A      1.075735    37A      1.121522  
      38A      1.146728    39A      1.164754    40A      1.199645  
      41A      1.233358    42A      1.271111    43A      1.337341  
      44A      1.348445    45A      1.411314    46A      1.493589  
      47A      1.530459    48A      1.650885    49A      1.755805  
      50A      1.820710    51A      1.951944    52A      1.985838  
      53A      2.033807    54A      2.160895    55A      2.265748  
      56A      2.274302    57A      2.349734    58A      2.484399  
      59A      2.520270    60A      2.551592    61A      2.689792  
      62A      2.729132    63A      2.796140    64A      2.823875  
      65A      2.874494    66A      3.078738    67A      3.236522  
      68A      3.321306    69A      4.229946    70A      4.532149  
      71A      4.634027    72A      4.856101  

    Final Occupation by Irrep:
              A 
    DOCC [    16 ]

  Energy converged.

  @DF-RHF Final Energy:  -191.91023255538258

   => Energetics <=

    Nuclear Repulsion Energy =            119.8254542742109550
    One-Electron Energy =                -497.7376294687782092
    Two-Electron Energy =                 186.0019426391845627
    DFT Exchange-Correlation Energy =       0.0000000000000000
    Empirical Dispersion Energy =           0.0000000000000000
    PCM Polarization Energy =               0.0000000000000000
    EFP Energy =                            0.0000000000000000
    Total Energy =                       -191.9102325553826631

    Alert: EFP and PCM quantities not currently incorporated into SCF psivars.

Properties will be evaluated at   0.000000,   0.000000,   0.000000 Bohr
  ==> Properties <==


Properties computed using the SCF density matrix

  Nuclear Dipole Moment: (a.u.)
     X:    -1.0479      Y:     1.1686      Z:     1.4490

  Electronic Dipole Moment: (a.u.)
     X:     0.6368      Y:    -0.8070      Z:    -0.9337

  Dipole Moment: (a.u.)
     X:    -0.4111      Y:     0.3616      Z:     0.5153     Total:     0.7519

  Dipole Moment: (Debye)
     X:    -1.0450      Y:     0.9191      Z:     1.3098     Total:     1.9111


  Saving occupied orbitals to File 180.

*** tstop() called on cx1-3-5-2.cx1.hpc.ic.ac.uk at Tue Jul  5 16:28:13 2016
Module time:
	user time   =       2.24 seconds =       0.04 minutes
	system time =       0.02 seconds =       0.00 minutes
	total time  =          3 seconds =       0.05 minutes
Total time:
	user time   =       2.24 seconds =       0.04 minutes
	system time =       0.02 seconds =       0.00 minutes
	total time  =          3 seconds =       0.05 minutes


Properties will be evaluated at   0.000000,   0.000000,   0.000000 Bohr

Properties computed using the  density matrix

  Nuclear Dipole Moment: (a.u.)
     X:    -1.0479      Y:     1.1686      Z:     1.4490

  Electronic Dipole Moment: (a.u.)
     X:     0.6368      Y:    -0.8070      Z:    -0.9337

  Dipole Moment: (a.u.)
     X:    -0.4111      Y:     0.3616      Z:     0.5153     Total:     0.7519

  Dipole Moment: (Debye)
     X:    -1.0450      Y:     0.9191      Z:     1.3098     Total:     1.9111

  Quadrupole Moment: (Debye Ang)
    XX:   -27.4020     YY:   -23.2779     ZZ:   -25.3564
    XY:     0.0451     XZ:     1.2503     YZ:    -3.2793

  Traceless Quadrupole Moment: (Debye Ang)
    XX:    -2.0565     YY:     2.0675     ZZ:    -0.0109
    XY:     0.0451     XZ:     1.2503     YZ:    -3.2793

  Mulliken Charges: (a.u.)
   Center  Symbol    Alpha    Beta     Spin     Total
       1     H     0.27326  0.27326  0.00000  0.45348
       2     O     4.37592  4.37592  0.00000 -0.75184
       3     C     2.99249  2.99249  0.00000  0.01502
       4     C     3.08583  3.08583  0.00000 -0.17167
       5     H     0.41962  0.41962  0.00000  0.16075
       6     H     0.41465  0.41465  0.00000  0.17070
       7     C     3.20739  3.20739  0.00000 -0.41479
       8     H     0.40506  0.40506  0.00000  0.18987
       9     H     0.42171  0.42171  0.00000  0.15659
      10     H     0.40406  0.40406  0.00000  0.19189

   Total alpha = 16.00000, Total beta = 16.00000, Total charge = -0.00000


*** PSI4 exiting successfully. Buy a developer a beer!
