    -----------------------------------------------------------------------
          Psi4: An Open-Source Ab Initio Electronic Structure Package
                              Psi4 (no tag) Driver

                          Git: Rev {detached?}  

    J. M. Turney, A. C. Simmonett, R. M. Parrish, E. G. Hohenstein,
    F. A. Evangelista, J. T. Fermann, B. J. Mintz, L. A. Burns, J. J. Wilke,
    M. L. Abrams, N. J. Russ, M. L. Leininger, C. L. Janssen, E. T. Seidl,
    W. D. Allen, H. F. Schaefer, R. A. King, E. F. Valeev, C. D. Sherrill,
    and T. D. Crawford, WIREs Comput. Mol. Sci. 2, 556-565 (2012)
    (doi: 10.1002/wcms.93)

                         Additional Contributions by
    A. E. DePrince, M. Saitow, U. Bozkaya, A. Yu. Sokolov
    -----------------------------------------------------------------------


    Psi4 started on: Tue Jul  5 16:25:37 2016

    Process ID:  16759
    PSI4DATADIR: /export131/home/mjharvey/miniconda3/share
    Memory level set to 256.000 MB

  ==> Input File <==

--------------------------------------------------------------------------
set {
	reference rhf
	basis 6-31G*
}


set_num_threads( 1 )
memory 2 gb

molecule MOL {
0 1

H	 -1.535062	 -1.731057	 -1.267172
N	 -0.635097	 -1.300471	 -1.176961
C	 -0.563778	 -0.502042	 0.037919
H	 -0.508499	 -0.721815	 -1.985593
C	 0.575259	 0.508231	 -0.048326
H	 -0.379745	 -1.178195	 0.867464
H	 -1.495719	 0.022884	 0.263049
C	 1.954651	 -0.143624	 0.035137
H	 0.475158	 1.060484	 -0.977307
H	 0.469181	 1.234488	 0.755973
H	 2.103292	 -0.853109	 -0.774172
H	 2.742821	 0.599562	 -0.030094
H	 2.083613	 -0.679371	 0.971560

	symmetry c1
}
set optking {
	frozen_dihedral = ("
		6 3 5 9
	")
}

ee = energy('scf')
oeprop('DIPOLE', 'QUADRUPOLE', 'MULLIKEN_CHARGES')
f=open( 'psi4out.xyz', 'w' )
f.write( "13  " )
f.write( str(ee) + "\n" )
f.write( MOL.save_string_xyz() )
f.close()
--------------------------------------------------------------------------

  Memory set to   2.000 GiB by Python script.

*** tstart() called on cx1-3-15-3.cx1.hpc.ic.ac.uk
*** at Tue Jul  5 16:25:37 2016


         ---------------------------------------------------------
                                   SCF
            by Justin Turney, Rob Parrish, and Andy Simmonett
                              RHF Reference
                        1 Threads,   2000 MiB Core
         ---------------------------------------------------------

  ==> Geometry <==

    Molecular point group: c1
    Full point group: C1

    Geometry (in Angstrom), charge = 0, multiplicity = 1:

       Center              X                  Y                   Z               Mass       
    ------------   -----------------  -----------------  -----------------  -----------------
           H         -1.851384246813    -1.356548684932    -0.956074236058     1.007825032070
           N         -0.951419246813    -0.925962684932    -0.865863236058    14.003074004780
           C         -0.880100246813    -0.127533684932     0.349016763942    12.000000000000
           H         -0.824821246813    -0.347306684932    -1.674495236058     1.007825032070
           C          0.258936753187     0.882739315068     0.262771763942    12.000000000000
           H         -0.696067246813    -0.803686684932     1.178561763942     1.007825032070
           H         -1.812041246813     0.397392315068     0.574146763942     1.007825032070
           C          1.638328753187     0.230884315068     0.346234763942    12.000000000000
           H          0.158835753187     1.434992315068    -0.666209236058     1.007825032070
           H          0.152858753187     1.608996315068     1.067070763942     1.007825032070
           H          1.786969753187    -0.478600684932    -0.463074236058     1.007825032070
           H          2.426498753187     0.974070315068     0.281003763942     1.007825032070
           H          1.767290753187    -0.304862684932     1.282657763942     1.007825032070

  Running in c1 symmetry.

  Rotational constants: A =      0.48560  B =      0.16067  C =      0.14130 [cm^-1]
  Rotational constants: A =  14557.93190  B =   4816.79129  C =   4236.06351 [MHz]
  Nuclear repulsion =  133.865149337012070

  Charge       = 0
  Multiplicity = 1
  Electrons    = 34
  Nalpha       = 17
  Nbeta        = 17

  ==> Algorithm <==

  SCF Algorithm Type is DF.
  DIIS enabled.
  MOM disabled.
  Fractional occupation disabled.
  Guess Type is CORE.
  Energy threshold   = 1.00e-06
  Density threshold  = 1.00e-06
  Integral threshold = 0.00e+00

  ==> Primary Basis <==

  Basis Set: 6-31G*
    Number of shells: 42
    Number of basis function: 78
    Number of Cartesian functions: 78
    Spherical Harmonics?: false
    Max angular momentum: 2

  ==> Pre-Iterations <==

   -------------------------------------------------------
    Irrep   Nso     Nmo     Nalpha   Nbeta   Ndocc  Nsocc
   -------------------------------------------------------
     A         78      78       0       0       0       0
   -------------------------------------------------------
    Total      78      78      17      17      17       0
   -------------------------------------------------------

 OEINTS: Overlap, kinetic, potential, dipole, and quadrupole integrals
         stored in file 35.

  ==> Integral Setup <==

  ==> DFJK: Density-Fitted J/K Matrices <==

    J tasked:                  Yes
    K tasked:                  Yes
    wK tasked:                  No
    OpenMP threads:              1
    Integrals threads:           1
    Memory (MB):              1430
    Algorithm:                Core
    Integral Cache:           NONE
    Schwarz Cutoff:          1E-12
    Fitting Condition:       1E-12

   => Auxiliary Basis Set <=

  Basis Set: 
    Number of shells: 177
    Number of basis function: 549
    Number of Cartesian functions: 549
    Spherical Harmonics?: false
    Max angular momentum: 3

  Minimum eigenvalue in the overlap matrix is 5.2013012550E-03.
  Using Symmetric Orthogonalization.
  SCF Guess: Core (One-Electron) Hamiltonian.

  ==> Iterations <==

                           Total Energy        Delta E     RMS |[F,P]|

   @DF-RHF iter   1:  -134.82400986498428   -1.34824e+02   8.59418e-02 
   @DF-RHF iter   2:  -103.38995442247906    3.14341e+01   8.01299e-02 DIIS
   @DF-RHF iter   3:  -148.14467865288381   -4.47547e+01   5.33437e-02 DIIS
   @DF-RHF iter   4:  -156.04918269072479   -7.90450e+00   5.30815e-02 DIIS
   @DF-RHF iter   5:  -173.07385573019255   -1.70247e+01   8.23524e-03 DIIS
   @DF-RHF iter   6:  -173.25069216885859   -1.76836e-01   3.17713e-03 DIIS
   @DF-RHF iter   7:  -173.27763460475850   -2.69424e-02   7.36363e-04 DIIS
   @DF-RHF iter   8:  -173.27974816965960   -2.11356e-03   1.58336e-04 DIIS
   @DF-RHF iter   9:  -173.27987286181346   -1.24692e-04   5.45918e-05 DIIS
   @DF-RHF iter  10:  -173.27988564827481   -1.27865e-05   2.08219e-05 DIIS
   @DF-RHF iter  11:  -173.27988770528455   -2.05701e-06   6.92337e-06 DIIS
   @DF-RHF iter  12:  -173.27988788128292   -1.75998e-07   2.70083e-06 DIIS
   @DF-RHF iter  13:  -173.27988791379747   -3.25145e-08   4.70980e-07 DIIS

  ==> Post-Iterations <==

    Orbital Energies (a.u.)
    -----------------------

    Doubly Occupied:                                                      

       1A    -15.531841     2A    -11.239506     3A    -11.216494  
       4A    -11.203268     5A     -1.177969     6A     -1.031375  
       7A     -0.901781     8A     -0.797452     9A     -0.664183  
      10A     -0.618064    11A     -0.608177    12A     -0.559927  
      13A     -0.536316    14A     -0.490938    15A     -0.477867  
      16A     -0.467504    17A     -0.378893  

    Virtual:                                                              

      18A      0.225892    19A      0.267641    20A      0.279070  
      21A      0.297554    22A      0.312141    23A      0.327431  
      24A      0.346803    25A      0.354097    26A      0.361173  
      27A      0.402573    28A      0.444103    29A      0.467281  
      30A      0.719523    31A      0.736332    32A      0.752725  
      33A      0.777383    34A      0.818499    35A      0.903831  
      36A      0.949541    37A      0.977015    38A      1.004896  
      39A      1.017201    40A      1.102124    41A      1.138919  
      42A      1.155866    43A      1.173511    44A      1.200788  
      45A      1.216865    46A      1.221369    47A      1.235470  
      48A      1.253826    49A      1.267689    50A      1.275589  
      51A      1.328694    52A      1.516955    53A      1.711144  
      54A      1.720059    55A      1.779520    56A      1.887123  
      57A      1.985919    58A      2.021303    59A      2.202876  
      60A      2.256950    61A      2.280384    62A      2.313364  
      63A      2.363276    64A      2.471711    65A      2.507857  
      66A      2.574777    67A      2.642633    68A      2.697080  
      69A      2.758060    70A      2.806019    71A      2.844731  
      72A      2.997696    73A      3.002306    74A      3.111840  
      75A      4.214960    76A      4.598564    77A      4.780699  
      78A      4.920361  

    Final Occupation by Irrep:
              A 
    DOCC [    17 ]

  Energy converged.

  @DF-RHF Final Energy:  -173.27988791379747

   => Energetics <=

    Nuclear Repulsion Energy =            133.8651493370120704
    One-Electron Energy =                -498.4868942739149134
    Two-Electron Energy =                 191.3418570231054900
    DFT Exchange-Correlation Energy =       0.0000000000000000
    Empirical Dispersion Energy =           0.0000000000000000
    PCM Polarization Energy =               0.0000000000000000
    EFP Energy =                            0.0000000000000000
    Total Energy =                       -173.2798879137973245

    Alert: EFP and PCM quantities not currently incorporated into SCF psivars.

Properties will be evaluated at   0.000000,   0.000000,   0.000000 Bohr
  ==> Properties <==


Properties computed using the SCF density matrix

  Nuclear Dipole Moment: (a.u.)
     X:     1.0416      Y:     1.0568      Z:     0.5871

  Electronic Dipole Moment: (a.u.)
     X:    -1.4629      Y:    -0.6570      Z:    -0.6425

  Dipole Moment: (a.u.)
     X:    -0.4213      Y:     0.3998      Z:    -0.0554     Total:     0.5835

  Dipole Moment: (Debye)
     X:    -1.0709      Y:     1.0163      Z:    -0.1407     Total:     1.4831


  Saving occupied orbitals to File 180.

*** tstop() called on cx1-3-15-3.cx1.hpc.ic.ac.uk at Tue Jul  5 16:25:41 2016
Module time:
	user time   =       2.95 seconds =       0.05 minutes
	system time =       0.01 seconds =       0.00 minutes
	total time  =          4 seconds =       0.07 minutes
Total time:
	user time   =       2.95 seconds =       0.05 minutes
	system time =       0.01 seconds =       0.00 minutes
	total time  =          4 seconds =       0.07 minutes


Properties will be evaluated at   0.000000,   0.000000,   0.000000 Bohr

Properties computed using the  density matrix

  Nuclear Dipole Moment: (a.u.)
     X:     1.0416      Y:     1.0568      Z:     0.5871

  Electronic Dipole Moment: (a.u.)
     X:    -1.4629      Y:    -0.6570      Z:    -0.6425

  Dipole Moment: (a.u.)
     X:    -0.4213      Y:     0.3998      Z:    -0.0554     Total:     0.5835

  Dipole Moment: (Debye)
     X:    -1.0709      Y:     1.0163      Z:    -0.1407     Total:     1.4831

  Quadrupole Moment: (Debye Ang)
    XX:   -25.4335     YY:   -29.5354     ZZ:   -25.8624
    XY:     1.1867     XZ:     1.2440     YZ:    -1.0520

  Traceless Quadrupole Moment: (Debye Ang)
    XX:     1.5103     YY:    -2.5916     ZZ:     1.0814
    XY:     1.1867     XZ:     1.2440     YZ:    -1.0520

  Mulliken Charges: (a.u.)
   Center  Symbol    Alpha    Beta     Spin     Total
       1     H     0.33227  0.33227  0.00000  0.33546
       2     N     3.92270  3.92270  0.00000 -0.84539
       3     C     3.05770  3.05770  0.00000 -0.11541
       4     H     0.33555  0.33555  0.00000  0.32890
       5     C     3.16082  3.16082  0.00000 -0.32164
       6     H     0.41999  0.41999  0.00000  0.16001
       7     H     0.43227  0.43227  0.00000  0.13546
       8     C     3.23855  3.23855  0.00000 -0.47710
       9     H     0.42613  0.42613  0.00000  0.14775
      10     H     0.42030  0.42030  0.00000  0.15941
      11     H     0.40986  0.40986  0.00000  0.18028
      12     H     0.42224  0.42224  0.00000  0.15552
      13     H     0.42162  0.42162  0.00000  0.15676

   Total alpha = 17.00000, Total beta = 17.00000, Total charge = -0.00000


*** PSI4 exiting successfully. Buy a developer a beer!
