    -----------------------------------------------------------------------
          Psi4: An Open-Source Ab Initio Electronic Structure Package
                              Psi4 (no tag) Driver

                          Git: Rev {detached?}  

    J. M. Turney, A. C. Simmonett, R. M. Parrish, E. G. Hohenstein,
    F. A. Evangelista, J. T. Fermann, B. J. Mintz, L. A. Burns, J. J. Wilke,
    M. L. Abrams, N. J. Russ, M. L. Leininger, C. L. Janssen, E. T. Seidl,
    W. D. Allen, H. F. Schaefer, R. A. King, E. F. Valeev, C. D. Sherrill,
    and T. D. Crawford, WIREs Comput. Mol. Sci. 2, 556-565 (2012)
    (doi: 10.1002/wcms.93)

                         Additional Contributions by
    A. E. DePrince, M. Saitow, U. Bozkaya, A. Yu. Sokolov
    -----------------------------------------------------------------------


    Psi4 started on: Tue Jul  5 16:53:53 2016

    Process ID:   5954
    PSI4DATADIR: /export131/home/mjharvey/miniconda3/share
    Memory level set to 256.000 MB

  ==> Input File <==

--------------------------------------------------------------------------
set {
	reference rhf
	basis 6-31G*
}


set_num_threads( 1 )
memory 2 gb

molecule MOL {
0 1

O	 -0.488453	 0.057968	 1.132425
C	 -0.451170	 -1.129930	 1.097049
C	 0.801727	 -1.959116	 0.945507
O	 -1.528589	 -1.897310	 1.185968
C	 1.124911	 -2.785238	 2.184071
H	 1.613075	 -1.280220	 0.700432
H	 0.669725	 -2.590969	 0.072237
H	 1.272053	 -2.149836	 3.048928
H	 2.030738	 -3.360307	 2.024106
H	 0.320287	 -3.472711	 2.414906
C	 -2.190117	 -1.959098	 2.445318
C	 -1.275721	 -2.693673	 3.402705
H	 -3.134752	 -2.471130	 2.322544
H	 -2.398622	 -0.953348	 2.783820
H	 -1.072206	 -3.697200	 3.046790
H	 -1.743193	 -2.763882	 4.379531
H	 -0.332024	 -2.171153	 3.510712

	symmetry c1
}
set optking {
	frozen_dihedral = ("
		2 4 11 13,
		4 2 3 6
	")
}

ee = energy('scf')
oeprop('DIPOLE', 'QUADRUPOLE', 'MULLIKEN_CHARGES')
f=open( 'psi4out.xyz', 'w' )
f.write( "17  " )
f.write( str(ee) + "\n" )
f.write( MOL.save_string_xyz() )
f.close()
--------------------------------------------------------------------------

  Memory set to   2.000 GiB by Python script.

*** tstart() called on cx1-3-16-4.cx1.hpc.ic.ac.uk
*** at Tue Jul  5 16:53:53 2016


         ---------------------------------------------------------
                                   SCF
            by Justin Turney, Rob Parrish, and Andy Simmonett
                              RHF Reference
                        1 Threads,   2000 MiB Core
         ---------------------------------------------------------

  ==> Geometry <==

    Molecular point group: c1
    Full point group: C1

    Geometry (in Angstrom), charge = 0, multiplicity = 1:

       Center              X                  Y                   Z               Mass       
    ------------   -----------------  -----------------  -----------------  -----------------
           O          0.089038882462     1.829829119467    -0.655327689214    15.994914619560
           C          0.126321882462     0.641931119467    -0.690703689214    12.000000000000
           C          1.379218882462    -0.187254880533    -0.842245689214    12.000000000000
           O         -0.951097117538    -0.125448880533    -0.601784689214    15.994914619560
           C          1.702402882462    -1.013376880533     0.396318310786    12.000000000000
           H          2.190566882462     0.491641119467    -1.087320689214     1.007825032070
           H          1.247216882462    -0.819107880533    -1.715515689214     1.007825032070
           H          1.849544882462    -0.377974880533     1.261175310786     1.007825032070
           H          2.608229882462    -1.588445880533     0.236353310786     1.007825032070
           H          0.897778882462    -1.700849880533     0.627153310786     1.007825032070
           C         -1.612625117538    -0.187236880533     0.657565310786    12.000000000000
           C         -0.698229117538    -0.921811880533     1.614952310786    12.000000000000
           H         -2.557260117538    -0.699268880533     0.534791310786     1.007825032070
           H         -1.821130117538     0.818513119467     0.996067310786     1.007825032070
           H         -0.494714117538    -1.925338880533     1.259037310786     1.007825032070
           H         -1.165701117538    -0.992020880533     2.591778310786     1.007825032070
           H          0.245467882462    -0.399291880533     1.722959310786     1.007825032070

  Running in c1 symmetry.

  Rotational constants: A =      0.10573  B =      0.09057  C =      0.05828 [cm^-1]
  Rotational constants: A =   3169.75256  B =   2715.13734  C =   1747.32250 [MHz]
  Nuclear repulsion =  332.243259823735229

  Charge       = 0
  Multiplicity = 1
  Electrons    = 56
  Nalpha       = 28
  Nbeta        = 28

  ==> Algorithm <==

  SCF Algorithm Type is DF.
  DIIS enabled.
  MOM disabled.
  Fractional occupation disabled.
  Guess Type is CORE.
  Energy threshold   = 1.00e-06
  Density threshold  = 1.00e-06
  Integral threshold = 0.00e+00

  ==> Primary Basis <==

  Basis Set: 6-31G*
    Number of shells: 62
    Number of basis function: 125
    Number of Cartesian functions: 125
    Spherical Harmonics?: false
    Max angular momentum: 2

  ==> Pre-Iterations <==

   -------------------------------------------------------
    Irrep   Nso     Nmo     Nalpha   Nbeta   Ndocc  Nsocc
   -------------------------------------------------------
     A        125     125       0       0       0       0
   -------------------------------------------------------
    Total     125     125      28      28      28       0
   -------------------------------------------------------

 OEINTS: Overlap, kinetic, potential, dipole, and quadrupole integrals
         stored in file 35.

  ==> Integral Setup <==

  ==> DFJK: Density-Fitted J/K Matrices <==

    J tasked:                  Yes
    K tasked:                  Yes
    wK tasked:                  No
    OpenMP threads:              1
    Integrals threads:           1
    Memory (MB):              1430
    Algorithm:                Core
    Integral Cache:           NONE
    Schwarz Cutoff:          1E-12
    Fitting Condition:       1E-12

   => Auxiliary Basis Set <=

  Basis Set: 
    Number of shells: 258
    Number of basis function: 817
    Number of Cartesian functions: 817
    Spherical Harmonics?: false
    Max angular momentum: 3

  Minimum eigenvalue in the overlap matrix is 3.3178625904E-03.
  Using Symmetric Orthogonalization.
  SCF Guess: Core (One-Electron) Hamiltonian.

  ==> Iterations <==

                           Total Energy        Delta E     RMS |[F,P]|

   @DF-RHF iter   1:  -255.74313559930908   -2.55743e+02   7.72720e-02 
   @DF-RHF iter   2:  -212.30106962143384    4.34421e+01   6.79966e-02 DIIS
   @DF-RHF iter   3:  -299.42460139427999   -8.71235e+01   4.93403e-02 DIIS
   @DF-RHF iter   4:  -331.82134619807800   -3.23967e+01   3.42691e-02 DIIS
   @DF-RHF iter   5:  -342.74134279307020   -1.09200e+01   1.44960e-02 DIIS
   @DF-RHF iter   6:  -344.63937797080405   -1.89804e+00   5.34660e-03 DIIS
   @DF-RHF iter   7:  -344.82673732478395   -1.87359e-01   1.54643e-03 DIIS
   @DF-RHF iter   8:  -344.84486417886217   -1.81269e-02   5.79056e-04 DIIS
   @DF-RHF iter   9:  -344.84814587259621   -3.28169e-03   1.86712e-04 DIIS
   @DF-RHF iter  10:  -344.84861322326492   -4.67351e-04   7.87296e-05 DIIS
   @DF-RHF iter  11:  -344.84871879650552   -1.05573e-04   3.21386e-05 DIIS
   @DF-RHF iter  12:  -344.84873919044094   -2.03939e-05   1.19457e-05 DIIS
   @DF-RHF iter  13:  -344.84874260672029   -3.41628e-06   4.13859e-06 DIIS
   @DF-RHF iter  14:  -344.84874305466803   -4.47948e-07   1.61337e-06 DIIS
   @DF-RHF iter  15:  -344.84874314085869   -8.61907e-08   6.07724e-07 DIIS

  ==> Post-Iterations <==

    Orbital Energies (a.u.)
    -----------------------

    Doubly Occupied:                                                      

       1A    -20.585013     2A    -20.551913     3A    -11.372096  
       4A    -11.295718     5A    -11.236628     6A    -11.224160  
       7A    -11.223637     8A     -1.463528     9A     -1.364503  
      10A     -1.068813    11A     -1.051429    12A     -0.902947  
      13A     -0.890172    14A     -0.761227    15A     -0.702624  
      16A     -0.681086    17A     -0.670245    18A     -0.636214  
      19A     -0.619917    20A     -0.586756    21A     -0.569431  
      22A     -0.556786    23A     -0.519810    24A     -0.506092  
      25A     -0.484970    26A     -0.481995    27A     -0.449540  
      28A     -0.431591  

    Virtual:                                                              

      29A      0.175181    30A      0.235663    31A      0.259136  
      32A      0.262326    33A      0.269758    34A      0.304998  
      35A      0.309646    36A      0.325482    37A      0.329688  
      38A      0.346381    39A      0.357458    40A      0.377629  
      41A      0.422972    42A      0.445183    43A      0.487696  
      44A      0.527785    45A      0.577461    46A      0.695028  
      47A      0.718020    48A      0.731261    49A      0.757344  
      50A      0.776068    51A      0.801525    52A      0.812629  
      53A      0.848771    54A      0.879222    55A      0.906319  
      56A      0.930403    57A      0.984963    58A      0.991520  
      59A      1.034181    60A      1.064663    61A      1.105279  
      62A      1.116204    63A      1.139235    64A      1.152406  
      65A      1.158923    66A      1.169628    67A      1.201322  
      68A      1.212063    69A      1.216601    70A      1.245709  
      71A      1.260206    72A      1.277979    73A      1.291837  
      74A      1.343453    75A      1.372790    76A      1.402478  
      77A      1.425274    78A      1.487036    79A      1.583158  
      80A      1.603771    81A      1.667958    82A      1.743660  
      83A      1.795925    84A      1.883704    85A      1.921822  
      86A      1.977001    87A      2.008161    88A      2.025457  
      89A      2.056387    90A      2.105370    91A      2.147937  
      92A      2.165450    93A      2.194456    94A      2.253158  
      95A      2.261719    96A      2.282870    97A      2.291674  
      98A      2.339403    99A      2.407652   100A      2.447637  
     101A      2.485976   102A      2.569644   103A      2.596278  
     104A      2.619169   105A      2.663098   106A      2.670276  
     107A      2.699523   108A      2.766082   109A      2.781246  
     110A      2.872795   111A      2.918549   112A      2.969310  
     113A      3.013466   114A      3.197995   115A      3.210356  
     116A      3.337466   117A      3.380640   118A      3.504860  
     119A      4.427427   120A      4.538937   121A      4.616269  
     122A      4.706134   123A      4.790891   124A      4.883503  
     125A      5.012166  

    Final Occupation by Irrep:
              A 
    DOCC [    28 ]

  Energy converged.

  @DF-RHF Final Energy:  -344.84874314085869

   => Energetics <=

    Nuclear Repulsion Energy =            332.2432598237352295
    One-Electron Energy =               -1128.4062807782465825
    Two-Electron Energy =                 451.3142778136513584
    DFT Exchange-Correlation Energy =       0.0000000000000000
    Empirical Dispersion Energy =           0.0000000000000000
    PCM Polarization Energy =               0.0000000000000000
    EFP Energy =                            0.0000000000000000
    Total Energy =                       -344.8487431408599946

    Alert: EFP and PCM quantities not currently incorporated into SCF psivars.

Properties will be evaluated at   0.000000,   0.000000,   0.000000 Bohr
  ==> Properties <==


Properties computed using the SCF density matrix

  Nuclear Dipole Moment: (a.u.)
     X:     2.8083      Y:    -6.7342      Z:     6.0186

  Electronic Dipole Moment: (a.u.)
     X:    -2.7102      Y:     5.6005      Z:    -5.3418

  Dipole Moment: (a.u.)
     X:     0.0980      Y:    -1.1337      Z:     0.6767     Total:     1.3240

  Dipole Moment: (Debye)
     X:     0.2492      Y:    -2.8816      Z:     1.7201     Total:     3.3652


  Saving occupied orbitals to File 180.

*** tstop() called on cx1-3-16-4.cx1.hpc.ic.ac.uk at Tue Jul  5 16:54:06 2016
Module time:
	user time   =      11.89 seconds =       0.20 minutes
	system time =       0.08 seconds =       0.00 minutes
	total time  =         13 seconds =       0.22 minutes
Total time:
	user time   =      11.89 seconds =       0.20 minutes
	system time =       0.08 seconds =       0.00 minutes
	total time  =         13 seconds =       0.22 minutes


Properties will be evaluated at   0.000000,   0.000000,   0.000000 Bohr

Properties computed using the  density matrix

  Nuclear Dipole Moment: (a.u.)
     X:     2.8083      Y:    -6.7342      Z:     6.0186

  Electronic Dipole Moment: (a.u.)
     X:    -2.7102      Y:     5.6005      Z:    -5.3418

  Dipole Moment: (a.u.)
     X:     0.0980      Y:    -1.1337      Z:     0.6767     Total:     1.3240

  Dipole Moment: (Debye)
     X:     0.2492      Y:    -2.8816      Z:     1.7201     Total:     3.3652

  Quadrupole Moment: (Debye Ang)
    XX:   -40.4411     YY:   -49.7101     ZZ:   -42.4428
    XY:    -0.1894     XZ:    -3.0602     YZ:     1.5080

  Traceless Quadrupole Moment: (Debye Ang)
    XX:     3.7569     YY:    -5.5121     ZZ:     1.7552
    XY:    -0.1894     XZ:    -3.0602     YZ:     1.5080

  Mulliken Charges: (a.u.)
   Center  Symbol    Alpha    Beta     Spin     Total
       1     O     4.26435  4.26435  0.00000 -0.52869
       2     C     2.62855  2.62855  0.00000  0.74290
       3     C     3.18901  3.18901  0.00000 -0.37801
       4     O     4.31240  4.31240  0.00000 -0.62479
       5     C     3.26350  3.26350  0.00000 -0.52700
       6     H     0.40119  0.40119  0.00000  0.19762
       7     H     0.40238  0.40238  0.00000  0.19524
       8     H     0.40878  0.40878  0.00000  0.18243
       9     H     0.40975  0.40975  0.00000  0.18050
      10     H     0.40913  0.40913  0.00000  0.18173
      11     C     3.00451  3.00451  0.00000 -0.00901
      12     C     3.26830  3.26830  0.00000 -0.53659
      13     H     0.40448  0.40448  0.00000  0.19103
      14     H     0.40451  0.40451  0.00000  0.19098
      15     H     0.40651  0.40651  0.00000  0.18698
      16     H     0.41353  0.41353  0.00000  0.17295
      17     H     0.40914  0.40914  0.00000  0.18173

   Total alpha = 28.00000, Total beta = 28.00000, Total charge = -0.00000


*** PSI4 exiting successfully. Buy a developer a beer!
