    -----------------------------------------------------------------------
          Psi4: An Open-Source Ab Initio Electronic Structure Package
                              Psi4 (no tag) Driver

                          Git: Rev {detached?}  

    J. M. Turney, A. C. Simmonett, R. M. Parrish, E. G. Hohenstein,
    F. A. Evangelista, J. T. Fermann, B. J. Mintz, L. A. Burns, J. J. Wilke,
    M. L. Abrams, N. J. Russ, M. L. Leininger, C. L. Janssen, E. T. Seidl,
    W. D. Allen, H. F. Schaefer, R. A. King, E. F. Valeev, C. D. Sherrill,
    and T. D. Crawford, WIREs Comput. Mol. Sci. 2, 556-565 (2012)
    (doi: 10.1002/wcms.93)

                         Additional Contributions by
    A. E. DePrince, M. Saitow, U. Bozkaya, A. Yu. Sokolov
    -----------------------------------------------------------------------


    Psi4 started on: Tue Jul  5 17:14:04 2016

    Process ID:  17346
    PSI4DATADIR: /export131/home/mjharvey/miniconda3/share
    Memory level set to 256.000 MB

  ==> Input File <==

--------------------------------------------------------------------------
set {
	reference rhf
	basis 6-31G*
}


set_num_threads( 1 )
memory 2 gb

molecule MOL {
0 1

H	 0.520913	 -3.355335	 -0.750069
O	 0.895837	 -2.618051	 -0.278264
C	 0.102382	 -1.563045	 -0.462125
C	 0.624473	 -0.343591	 0.253101
O	 -0.886133	 -1.623171	 -1.118051
C	 -0.265902	 0.883932	 0.072916
H	 0.740303	 -0.614115	 1.297502
H	 1.628992	 -0.158063	 -0.118751
C	 -1.728698	 0.646073	 0.462102
H	 -0.209144	 1.219470	 -0.958188
H	 0.135059	 1.692851	 0.673903
C	 -2.717815	 1.682958	 -0.077782
H	 -1.791920	 0.639611	 1.547792
H	 -2.034463	 -0.347277	 0.136649
C	 -2.527061	 1.955177	 -1.569756
H	 -3.733511	 1.334675	 0.098587
H	 -2.615900	 2.618202	 0.466566
H	 -3.237276	 2.693498	 -1.928630
H	 -2.666216	 1.050214	 -2.154143
H	 -1.528257	 2.329965	 -1.775088

	symmetry c1
}
set optking {
	frozen_dihedral = ("
		16 12 9 6,
		7 4 6 10,
		5 3 4 7,
		1 2 3 5
	")
}

ee = energy('scf')
oeprop('DIPOLE', 'QUADRUPOLE', 'MULLIKEN_CHARGES')
f=open( 'psi4out.xyz', 'w' )
f.write( "20  " )
f.write( str(ee) + "\n" )
f.write( MOL.save_string_xyz() )
f.close()
--------------------------------------------------------------------------

  Memory set to   2.000 GiB by Python script.

*** tstart() called on cx1-1-1-2.cx1.hpc.ic.ac.uk
*** at Tue Jul  5 17:14:05 2016


         ---------------------------------------------------------
                                   SCF
            by Justin Turney, Rob Parrish, and Andy Simmonett
                              RHF Reference
                        1 Threads,   2000 MiB Core
         ---------------------------------------------------------

  ==> Geometry <==

    Molecular point group: c1
    Full point group: C1

    Geometry (in Angstrom), charge = 0, multiplicity = 1:

       Center              X                  Y                   Z               Mass       
    ------------   -----------------  -----------------  -----------------  -----------------
           H          1.321226713087    -3.187137414320    -0.390988168984     1.007825032070
           O          1.696150713087    -2.449853414320     0.080816831016    15.994914619560
           C          0.902695713087    -1.394847414320    -0.103044168984    12.000000000000
           C          1.424786713087    -0.175393414320     0.612181831016    12.000000000000
           O         -0.085819286913    -1.454973414320    -0.758970168984    15.994914619560
           C          0.534411713087     1.052129585680     0.431996831016    12.000000000000
           H          1.540616713087    -0.445917414320     1.656582831016     1.007825032070
           H          2.429305713087     0.010134585680     0.240329831016     1.007825032070
           C         -0.928384286913     0.814270585680     0.821182831016    12.000000000000
           H          0.591169713087     1.387667585680    -0.599107168984     1.007825032070
           H          0.935372713087     1.861048585680     1.032983831016     1.007825032070
           C         -1.917501286913     1.851155585680     0.281298831016    12.000000000000
           H         -0.991606286913     0.807808585680     1.906872831016     1.007825032070
           H         -1.234149286913    -0.179079414320     0.495729831016     1.007825032070
           C         -1.726747286913     2.123374585680    -1.210675168984    12.000000000000
           H         -2.933197286913     1.502872585680     0.457667831016     1.007825032070
           H         -1.815586286913     2.786399585680     0.825646831016     1.007825032070
           H         -2.436962286913     2.861695585680    -1.569549168984     1.007825032070
           H         -1.865902286913     1.218411585680    -1.795062168984     1.007825032070
           H         -0.727943286913     2.498162585680    -1.416007168984     1.007825032070

  Running in c1 symmetry.

  Rotational constants: A =      0.14240  B =      0.03379  C =      0.03079 [cm^-1]
  Rotational constants: A =   4269.05317  B =   1012.97647  C =    923.20048 [MHz]
  Nuclear repulsion =  391.935884418209014

  Charge       = 0
  Multiplicity = 1
  Electrons    = 64
  Nalpha       = 32
  Nbeta        = 32

  ==> Algorithm <==

  SCF Algorithm Type is DF.
  DIIS enabled.
  MOM disabled.
  Fractional occupation disabled.
  Guess Type is CORE.
  Energy threshold   = 1.00e-06
  Density threshold  = 1.00e-06
  Integral threshold = 0.00e+00

  ==> Primary Basis <==

  Basis Set: 6-31G*
    Number of shells: 72
    Number of basis function: 144
    Number of Cartesian functions: 144
    Spherical Harmonics?: false
    Max angular momentum: 2

  ==> Pre-Iterations <==

   -------------------------------------------------------
    Irrep   Nso     Nmo     Nalpha   Nbeta   Ndocc  Nsocc
   -------------------------------------------------------
     A        144     144       0       0       0       0
   -------------------------------------------------------
    Total     144     144      32      32      32       0
   -------------------------------------------------------

 OEINTS: Overlap, kinetic, potential, dipole, and quadrupole integrals
         stored in file 35.

  ==> Integral Setup <==

  ==> DFJK: Density-Fitted J/K Matrices <==

    J tasked:                  Yes
    K tasked:                  Yes
    wK tasked:                  No
    OpenMP threads:              1
    Integrals threads:           1
    Memory (MB):              1430
    Algorithm:                Core
    Integral Cache:           NONE
    Schwarz Cutoff:          1E-12
    Fitting Condition:       1E-12

   => Auxiliary Basis Set <=

  Basis Set: 
    Number of shells: 300
    Number of basis function: 948
    Number of Cartesian functions: 948
    Spherical Harmonics?: false
    Max angular momentum: 3

  Minimum eigenvalue in the overlap matrix is 3.2245729340E-03.
  Using Symmetric Orthogonalization.
  SCF Guess: Core (One-Electron) Hamiltonian.

  ==> Iterations <==

                           Total Energy        Delta E     RMS |[F,P]|

   @DF-RHF iter   1:  -287.05018739818200   -2.87050e+02   6.78433e-02 
   @DF-RHF iter   2:  -101.70627786644519    1.85344e+02   8.51998e-02 DIIS
   @DF-RHF iter   3:  -332.28245767697632   -2.30576e+02   3.78116e-02 DIIS
   @DF-RHF iter   4:  -202.30867069464426    1.29974e+02   7.63082e-02 DIIS
   @DF-RHF iter   5:  -256.11109433980010   -5.38024e+01   6.90835e-02 DIIS
   @DF-RHF iter   6:  -301.91514073591117   -4.58040e+01   6.02230e-02 DIIS
   @DF-RHF iter   7:  -308.46570483504883   -6.55056e+00   5.43122e-02 DIIS
   @DF-RHF iter   8:  -332.88211458357108   -2.44164e+01   4.94561e-02 DIIS
   @DF-RHF iter   9:  -340.93113067907376   -8.04902e+00   4.21320e-02 DIIS
   @DF-RHF iter  10:  -360.86010722767384   -1.99290e+01   3.15474e-02 DIIS
   @DF-RHF iter  11:  -383.45191116722941   -2.25918e+01   6.47357e-03 DIIS
   @DF-RHF iter  12:  -383.81560014100086   -3.63689e-01   3.72448e-03 DIIS
   @DF-RHF iter  13:  -383.92640739252755   -1.10807e-01   7.96098e-04 DIIS
   @DF-RHF iter  14:  -383.93639413391855   -9.98674e-03   2.94893e-04 DIIS
   @DF-RHF iter  15:  -383.93778348969244   -1.38936e-03   1.07706e-04 DIIS
   @DF-RHF iter  16:  -383.93792062335712   -1.37134e-04   4.30351e-05 DIIS
   @DF-RHF iter  17:  -383.93795828842957   -3.76651e-05   1.25540e-05 DIIS
   @DF-RHF iter  18:  -383.93796086268679   -2.57426e-06   3.57270e-06 DIIS
   @DF-RHF iter  19:  -383.93796118107394   -3.18387e-07   1.19115e-06 DIIS
   @DF-RHF iter  20:  -383.93796121659926   -3.55253e-08   3.62636e-07 DIIS

  ==> Post-Iterations <==

    Orbital Energies (a.u.)
    -----------------------

    Doubly Occupied:                                                      

       1A    -20.614911     2A    -20.553838     3A    -11.384006  
       4A    -11.241930     5A    -11.220787     6A    -11.209750  
       7A    -11.203572     8A    -11.199950     9A     -1.477674  
      10A     -1.369646    11A     -1.091418    12A     -1.035699  
      13A     -0.948062    14A     -0.877557    15A     -0.806536  
      16A     -0.770982    17A     -0.704546    18A     -0.691145  
      19A     -0.657541    20A     -0.626165    21A     -0.610933  
      22A     -0.590177    23A     -0.573528    24A     -0.550444  
      25A     -0.521302    26A     -0.513381    27A     -0.502888  
      28A     -0.483242    29A     -0.464367    30A     -0.456171  
      31A     -0.448152    32A     -0.427849  

    Virtual:                                                              

      33A      0.190694    34A      0.231137    35A      0.236321  
      36A      0.256695    37A      0.271201    38A      0.295285  
      39A      0.321302    40A      0.325408    41A      0.336003  
      42A      0.342583    43A      0.346269    44A      0.379982  
      45A      0.386678    46A      0.395689    47A      0.416688  
      48A      0.440243    49A      0.459013    50A      0.470199  
      51A      0.514063    52A      0.551875    53A      0.709458  
      54A      0.719618    55A      0.743332    56A      0.756657  
      57A      0.774844    58A      0.786052    59A      0.822255  
      60A      0.837790    61A      0.870643    62A      0.922569  
      63A      0.934360    64A      0.948669    65A      0.956834  
      66A      0.974929    67A      0.977965    68A      1.063153  
      69A      1.089454    70A      1.105889    71A      1.113382  
      72A      1.136180    73A      1.147308    74A      1.160824  
      75A      1.174944    76A      1.185308    77A      1.194782  
      78A      1.204926    79A      1.214167    80A      1.221696  
      81A      1.236206    82A      1.242751    83A      1.256353  
      84A      1.263474    85A      1.293716    86A      1.314646  
      87A      1.347964    88A      1.383543    89A      1.464515  
      90A      1.482890    91A      1.569129    92A      1.628011  
      93A      1.675482    94A      1.729716    95A      1.765653  
      96A      1.807624    97A      1.822663    98A      1.838596  
      99A      1.947235   100A      1.965438   101A      2.002120  
     102A      2.019976   103A      2.037662   104A      2.098001  
     105A      2.115706   106A      2.125811   107A      2.156231  
     108A      2.210024   109A      2.256410   110A      2.267397  
     111A      2.292833   112A      2.309452   113A      2.330435  
     114A      2.345048   115A      2.398835   116A      2.438508  
     117A      2.475421   118A      2.519278   119A      2.632637  
     120A      2.658275   121A      2.686338   122A      2.707353  
     123A      2.720507   124A      2.739848   125A      2.771876  
     126A      2.801795   127A      2.825703   128A      2.920668  
     129A      2.958261   130A      3.022827   131A      3.033726  
     132A      3.119935   133A      3.134933   134A      3.281133  
     135A      3.403633   136A      3.510629   137A      4.265181  
     138A      4.541242   139A      4.587570   140A      4.651673  
     141A      4.782555   142A      4.857516   143A      4.914057  
     144A      5.011591  

    Final Occupation by Irrep:
              A 
    DOCC [    32 ]

  Energy converged.

  @DF-RHF Final Energy:  -383.93796121659926

   => Energetics <=

    Nuclear Repulsion Energy =            391.9358844182090138
    One-Electron Energy =               -1300.0914484991003519
    Two-Electron Energy =                 524.2176028642923029
    DFT Exchange-Correlation Energy =       0.0000000000000000
    Empirical Dispersion Energy =           0.0000000000000000
    PCM Polarization Energy =               0.0000000000000000
    EFP Energy =                            0.0000000000000000
    Total Energy =                       -383.9379612165989784

    Alert: EFP and PCM quantities not currently incorporated into SCF psivars.

Properties will be evaluated at   0.000000,   0.000000,   0.000000 Bohr
  ==> Properties <==


Properties computed using the SCF density matrix

  Nuclear Dipole Moment: (a.u.)
     X:    -4.8555      Y:    10.4078      Z:     0.7890

  Electronic Dipole Moment: (a.u.)
     X:     5.3681      Y:   -10.4839      Z:    -0.4843

  Dipole Moment: (a.u.)
     X:     0.5126      Y:    -0.0760      Z:     0.3047     Total:     0.6011

  Dipole Moment: (Debye)
     X:     1.3028      Y:    -0.1932      Z:     0.7745     Total:     1.5279


  Saving occupied orbitals to File 180.

*** tstop() called on cx1-1-1-2.cx1.hpc.ic.ac.uk at Tue Jul  5 17:14:23 2016
Module time:
	user time   =      18.08 seconds =       0.30 minutes
	system time =       0.23 seconds =       0.00 minutes
	total time  =         18 seconds =       0.30 minutes
Total time:
	user time   =      18.08 seconds =       0.30 minutes
	system time =       0.23 seconds =       0.00 minutes
	total time  =         18 seconds =       0.30 minutes


Properties will be evaluated at   0.000000,   0.000000,   0.000000 Bohr

Properties computed using the  density matrix

  Nuclear Dipole Moment: (a.u.)
     X:    -4.8555      Y:    10.4078      Z:     0.7890

  Electronic Dipole Moment: (a.u.)
     X:     5.3681      Y:   -10.4839      Z:    -0.4843

  Dipole Moment: (a.u.)
     X:     0.5126      Y:    -0.0760      Z:     0.3047     Total:     0.6011

  Dipole Moment: (Debye)
     X:     1.3028      Y:    -0.1932      Z:     0.7745     Total:     1.5279

  Quadrupole Moment: (Debye Ang)
    XX:   -51.0625     YY:   -46.0969     ZZ:   -51.1474
    XY:    -0.3714     XZ:    -1.5713     YZ:     0.8177

  Traceless Quadrupole Moment: (Debye Ang)
    XX:    -1.6269     YY:     3.3387     ZZ:    -1.7118
    XY:    -0.3714     XZ:    -1.5713     YZ:     0.8177

  Mulliken Charges: (a.u.)
   Center  Symbol    Alpha    Beta     Spin     Total
       1     H     0.26777  0.26777  0.00000  0.46446
       2     O     4.35086  4.35086  0.00000 -0.70173
       3     C     2.62326  2.62326  0.00000  0.75347
       4     C     3.21038  3.21038  0.00000 -0.42076
       5     O     4.27977  4.27977  0.00000 -0.55955
       6     C     3.15923  3.15923  0.00000 -0.31846
       7     H     0.39799  0.39799  0.00000  0.20401
       8     H     0.39555  0.39555  0.00000  0.20891
       9     C     3.16526  3.16526  0.00000 -0.33053
      10     H     0.41133  0.41133  0.00000  0.17734
      11     H     0.41710  0.41710  0.00000  0.16580
      12     C     3.15084  3.15084  0.00000 -0.30168
      13     H     0.42766  0.42766  0.00000  0.14469
      14     H     0.39447  0.39447  0.00000  0.21107
      15     C     3.24487  3.24487  0.00000 -0.48973
      16     H     0.41980  0.41980  0.00000  0.16041
      17     H     0.42605  0.42605  0.00000  0.14789
      18     H     0.42127  0.42127  0.00000  0.15747
      19     H     0.41332  0.41332  0.00000  0.17335
      20     H     0.42322  0.42322  0.00000  0.15356

   Total alpha = 32.00000, Total beta = 32.00000, Total charge =  0.00000


*** PSI4 exiting successfully. Buy a developer a beer!
