    -----------------------------------------------------------------------
          Psi4: An Open-Source Ab Initio Electronic Structure Package
                              Psi4 (no tag) Driver

                          Git: Rev {detached?}  

    J. M. Turney, A. C. Simmonett, R. M. Parrish, E. G. Hohenstein,
    F. A. Evangelista, J. T. Fermann, B. J. Mintz, L. A. Burns, J. J. Wilke,
    M. L. Abrams, N. J. Russ, M. L. Leininger, C. L. Janssen, E. T. Seidl,
    W. D. Allen, H. F. Schaefer, R. A. King, E. F. Valeev, C. D. Sherrill,
    and T. D. Crawford, WIREs Comput. Mol. Sci. 2, 556-565 (2012)
    (doi: 10.1002/wcms.93)

                         Additional Contributions by
    A. E. DePrince, M. Saitow, U. Bozkaya, A. Yu. Sokolov
    -----------------------------------------------------------------------


    Psi4 started on: Tue Jul 26 13:31:28 2016

    Process ID:  11177
    PSI4DATADIR: /export131/home/mjharvey/miniconda3/share
    Memory level set to 256.000 MB

  ==> Input File <==

--------------------------------------------------------------------------
set {
	reference rhf
	basis 6-31G*
}


set_num_threads( 24 )
memory 2 gb

molecule MOL {
0 1

H	 -2.463887	 -1.404751	 3.174456
C	 -2.393282	 -1.145213	 2.135980
C	 -1.224516	 -1.150904	 1.538115
H	 -3.292956	 -0.884230	 1.609638
O	 -0.084466	 -1.502198	 2.188836
H	 -1.102384	 -0.898552	 0.500024
C	 1.126253	 -1.314296	 1.540540
C	 1.389404	 -2.400771	 0.522278
H	 1.963351	 -1.288009	 2.229412
H	 1.075391	 -0.372880	 1.014546
F	 0.247734	 -2.755091	 -0.049583
F	 2.205670	 -1.989884	 -0.433645
F	 1.919307	 -3.474360	 1.069928

	symmetry c1
}
set optking {
	frozen_dihedral = ("
		11 8 7 9,
		3 5 7 9,
		6 3 5 7
	")
}

ee = energy('scf')
oeprop('DIPOLE', 'QUADRUPOLE', 'MULLIKEN_CHARGES')
f=open( 'psi4out.xyz', 'w' )
f.write( "13  " )
f.write( str(ee) + "\n" )
f.write( MOL.save_string_xyz() )
f.close()
--------------------------------------------------------------------------

  Memory set to   2.000 GiB by Python script.

*** tstart() called on cx1b.hpc.ic.ac.uk
*** at Tue Jul 26 13:31:28 2016


         ---------------------------------------------------------
                                   SCF
            by Justin Turney, Rob Parrish, and Andy Simmonett
                              RHF Reference
                       24 Threads,   2000 MiB Core
         ---------------------------------------------------------

  ==> Geometry <==

    Molecular point group: c1
    Full point group: C1

    Geometry (in Angstrom), charge = 0, multiplicity = 1:

       Center              X                  Y                   Z               Mass       
    ------------   -----------------  -----------------  -----------------  -----------------
           H         -2.976842747696     0.636063648115     2.193775934750     1.007825032070
           C         -2.906237747696     0.895601648115     1.155299934750    12.000000000000
           C         -1.737471747696     0.889910648115     0.557434934750    12.000000000000
           H         -3.805911747696     1.156584648115     0.628957934750     1.007825032070
           O         -0.597421747696     0.538616648115     1.208155934750    15.994914619560
           H         -1.615339747696     1.142262648115    -0.480656065250     1.007825032070
           C          0.613297252304     0.726518648115     0.559859934750    12.000000000000
           C          0.876448252304    -0.359956351885    -0.458402065250    12.000000000000
           H          1.450395252304     0.752805648115     1.248731934750     1.007825032070
           H          0.562435252304     1.667934648115     0.033865934750     1.007825032070
           F         -0.265221747696    -0.714276351885    -1.030263065250    18.998403224000
           F          1.692714252304     0.050930648115    -1.414325065250    18.998403224000
           F          1.406351252304    -1.433545351885     0.089247934750    18.998403224000

  Running in c1 symmetry.

  Rotational constants: A =      0.15416  B =      0.04019  C =      0.03899 [cm^-1]
  Rotational constants: A =   4621.54870  B =   1204.87579  C =   1168.74937 [MHz]
  Nuclear repulsion =  415.665771938647083

  Charge       = 0
  Multiplicity = 1
  Electrons    = 64
  Nalpha       = 32
  Nbeta        = 32

  ==> Algorithm <==

  SCF Algorithm Type is DF.
  DIIS enabled.
  MOM disabled.
  Fractional occupation disabled.
  Guess Type is CORE.
  Energy threshold   = 1.00e-06
  Density threshold  = 1.00e-06
  Integral threshold = 0.00e+00

  ==> Primary Basis <==

  Basis Set: 6-31G*
    Number of shells: 58
    Number of basis function: 130
    Number of Cartesian functions: 130
    Spherical Harmonics?: false
    Max angular momentum: 2

  ==> Pre-Iterations <==

   -------------------------------------------------------
    Irrep   Nso     Nmo     Nalpha   Nbeta   Ndocc  Nsocc
   -------------------------------------------------------
     A        130     130       0       0       0       0
   -------------------------------------------------------
    Total     130     130      32      32      32       0
   -------------------------------------------------------

 OEINTS: Overlap, kinetic, potential, dipole, and quadrupole integrals
         stored in file 35.

  ==> Integral Setup <==

  ==> DFJK: Density-Fitted J/K Matrices <==

    J tasked:                  Yes
    K tasked:                  Yes
    wK tasked:                  No
    OpenMP threads:             24
    Integrals threads:          24
    Memory (MB):              1430
    Algorithm:                Core
    Integral Cache:           NONE
    Schwarz Cutoff:          1E-12
    Fitting Condition:       1E-12

   => Auxiliary Basis Set <=

  Basis Set: 
    Number of shells: 237
    Number of basis function: 773
    Number of Cartesian functions: 773
    Spherical Harmonics?: false
    Max angular momentum: 3

  Minimum eigenvalue in the overlap matrix is 1.7021632393E-03.
  Using Symmetric Orthogonalization.
  SCF Guess: Core (One-Electron) Hamiltonian.

  ==> Iterations <==

                           Total Energy        Delta E     RMS |[F,P]|

   @DF-RHF iter   1:  -440.74673663148741   -4.40747e+02   7.42707e-02 
   @DF-RHF iter   2:  -174.89997876443834    2.65847e+02   9.75175e-02 DIIS
   @DF-RHF iter   3:  -491.17048456417598   -3.16271e+02   3.97326e-02 DIIS
   @DF-RHF iter   4:  -422.57559148048523    6.85949e+01   6.65856e-02 DIIS
   @DF-RHF iter   5:  -524.06994843112852   -1.01494e+02   1.54297e-02 DIIS
   @DF-RHF iter   6:  -527.09832284658091   -3.02837e+00   7.90075e-03 DIIS
   @DF-RHF iter   7:  -527.50140061319462   -4.03078e-01   1.65598e-03 DIIS
   @DF-RHF iter   8:  -527.52200071551079   -2.06001e-02   8.21602e-04 DIIS
   @DF-RHF iter   9:  -527.52802648690204   -6.02577e-03   3.92815e-04 DIIS
   @DF-RHF iter  10:  -527.52935409716702   -1.32761e-03   2.01620e-04 DIIS
   @DF-RHF iter  11:  -527.52982664383126   -4.72547e-04   3.75785e-05 DIIS
   @DF-RHF iter  12:  -527.52984661819096   -1.99744e-05   1.39384e-05 DIIS
   @DF-RHF iter  13:  -527.52985026842180   -3.65023e-06   5.96695e-06 DIIS
   @DF-RHF iter  14:  -527.52985081480233   -5.46381e-07   1.52985e-06 DIIS
   @DF-RHF iter  15:  -527.52985086586546   -5.10631e-08   5.92815e-07 DIIS

  ==> Post-Iterations <==

    Orbital Energies (a.u.)
    -----------------------

    Doubly Occupied:                                                      

       1A    -26.348330     2A    -26.344118     3A    -26.343725  
       4A    -20.605422     5A    -11.505347     6A    -11.318978  
       7A    -11.296966     8A    -11.214071     9A     -1.744829  
      10A     -1.642929    11A     -1.641287    12A     -1.436386  
      13A     -1.083760    14A     -1.015730    15A     -0.926797  
      16A     -0.839319    17A     -0.833457    18A     -0.827265  
      19A     -0.783723    20A     -0.729578    21A     -0.715631  
      22A     -0.697048    23A     -0.676400    24A     -0.662166  
      25A     -0.656578    26A     -0.646004    27A     -0.626438  
      28A     -0.591899    29A     -0.558812    30A     -0.524665  
      31A     -0.505957    32A     -0.350191  

    Virtual:                                                              

      33A      0.188644    34A      0.242844    35A      0.266410  
      36A      0.284108    37A      0.300613    38A      0.307696  
      39A      0.343108    40A      0.409677    41A      0.425481  
      42A      0.452397    43A      0.473934    44A      0.512364  
      45A      0.523954    46A      0.689883    47A      0.701030  
      48A      0.730640    49A      0.749402    50A      0.758794  
      51A      0.774288    52A      0.817132    53A      0.819011  
      54A      0.882243    55A      0.894812    56A      0.929419  
      57A      0.971649    58A      1.075311    59A      1.113072  
      60A      1.133483    61A      1.153438    62A      1.154635  
      63A      1.201639    64A      1.236178    65A      1.256342  
      66A      1.335108    67A      1.359747    68A      1.375677  
      69A      1.410140    70A      1.426127    71A      1.432628  
      72A      1.467368    73A      1.585935    74A      1.610914  
      75A      1.641008    76A      1.641114    77A      1.659374  
      78A      1.675885    79A      1.678665    80A      1.741403  
      81A      1.758503    82A      1.828287    83A      1.830484  
      84A      1.914806    85A      1.954186    86A      1.973991  
      87A      2.020451    88A      2.076444    89A      2.105078  
      90A      2.131424    91A      2.140749    92A      2.149248  
      93A      2.233504    94A      2.243737    95A      2.280726  
      96A      2.300395    97A      2.310040    98A      2.344658  
      99A      2.357642   100A      2.397761   101A      2.408063  
     102A      2.429134   103A      2.479357   104A      2.504202  
     105A      2.530967   106A      2.612800   107A      2.684253  
     108A      2.714257   109A      2.750075   110A      2.815514  
     111A      2.863822   112A      2.900007   113A      3.001888  
     114A      3.092656   115A      3.142076   116A      3.170618  
     117A      3.197419   118A      3.313522   119A      3.420249  
     120A      3.425145   121A      3.440133   122A      3.483979  
     123A      4.354121   124A      4.536439   125A      4.596071  
     126A      4.736912   127A      4.887329   128A      4.980671  
     129A      5.136603   130A      5.895018  

    Final Occupation by Irrep:
              A 
    DOCC [    32 ]

  Energy converged.

  @DF-RHF Final Energy:  -527.52985086586546

   => Energetics <=

    Nuclear Repulsion Energy =            415.6657719386470831
    One-Electron Energy =               -1555.0036672294816071
    Two-Electron Energy =                 611.8080444249692391
    DFT Exchange-Correlation Energy =       0.0000000000000000
    Empirical Dispersion Energy =           0.0000000000000000
    PCM Polarization Energy =               0.0000000000000000
    EFP Energy =                            0.0000000000000000
    Total Energy =                       -527.5298508658652281

    Alert: EFP and PCM quantities not currently incorporated into SCF psivars.

Properties will be evaluated at   0.000000,   0.000000,   0.000000 Bohr
  ==> Properties <==


Properties computed using the SCF density matrix

  Nuclear Dipole Moment: (a.u.)
     X:    -8.6622      Y:     7.0015      Z:     5.6257

  Electronic Dipole Moment: (a.u.)
     X:     8.7792      Y:    -6.2630      Z:    -5.6511

  Dipole Moment: (a.u.)
     X:     0.1171      Y:     0.7385      Z:    -0.0254     Total:     0.7481

  Dipole Moment: (Debye)
     X:     0.2976      Y:     1.8770      Z:    -0.0645     Total:     1.9016


  Saving occupied orbitals to File 180.

*** tstop() called on cx1b.hpc.ic.ac.uk at Tue Jul 26 13:31:34 2016
Module time:
	user time   =      67.17 seconds =       1.12 minutes
	system time =       2.85 seconds =       0.05 minutes
	total time  =          6 seconds =       0.10 minutes
Total time:
	user time   =      67.17 seconds =       1.12 minutes
	system time =       2.85 seconds =       0.05 minutes
	total time  =          6 seconds =       0.10 minutes


Properties will be evaluated at   0.000000,   0.000000,   0.000000 Bohr

Properties computed using the  density matrix

  Nuclear Dipole Moment: (a.u.)
     X:    -8.6622      Y:     7.0015      Z:     5.6257

  Electronic Dipole Moment: (a.u.)
     X:     8.7792      Y:    -6.2630      Z:    -5.6511

  Dipole Moment: (a.u.)
     X:     0.1171      Y:     0.7385      Z:    -0.0254     Total:     0.7481

  Dipole Moment: (Debye)
     X:     0.2976      Y:     1.8770      Z:    -0.0645     Total:     1.9016

  Quadrupole Moment: (Debye Ang)
    XX:   -42.4986     YY:   -45.1708     ZZ:   -46.3903
    XY:     0.6873     XZ:     2.6072     YZ:    -0.9397

  Traceless Quadrupole Moment: (Debye Ang)
    XX:     2.1879     YY:    -0.4842     ZZ:    -1.7037
    XY:     0.6873     XZ:     2.6072     YZ:    -0.9397

  Mulliken Charges: (a.u.)
   Center  Symbol    Alpha    Beta     Spin     Total
       1     H     0.40384  0.40384  0.00000  0.19231
       2     C     3.23972  3.23972  0.00000 -0.47944
       3     C     2.89105  2.89105  0.00000  0.21790
       4     H     0.40577  0.40577  0.00000  0.18845
       5     O     4.30336  4.30336  0.00000 -0.60671
       6     H     0.40449  0.40449  0.00000  0.19101
       7     C     3.07229  3.07229  0.00000 -0.14458
       8     C     2.45054  2.45054  0.00000  1.09893
       9     H     0.38676  0.38676  0.00000  0.22649
      10     H     0.40507  0.40507  0.00000  0.18985
      11     F     4.68097  4.68097  0.00000 -0.36194
      12     F     4.68091  4.68091  0.00000 -0.36183
      13     F     4.67522  4.67522  0.00000 -0.35044

   Total alpha = 32.00000, Total beta = 32.00000, Total charge = -0.00000


*** PSI4 exiting successfully. Buy a developer a beer!
