
    -----------------------------------------------------------------------
          Psi4: An Open-Source Ab Initio Electronic Structure Package
                               Psi4 1.1 release

                         Git: Rev {HEAD} add49b9 


    R. M. Parrish, L. A. Burns, D. G. A. Smith, A. C. Simmonett,
    A. E. DePrince III, E. G. Hohenstein, U. Bozkaya, A. Yu. Sokolov,
    R. Di Remigio, R. M. Richard, J. F. Gonthier, A. M. James,
    H. R. McAlexander, A. Kumar, M. Saitow, X. Wang, B. P. Pritchard,
    P. Verma, H. F. Schaefer III, K. Patkowski, R. A. King, E. F. Valeev,
    F. A. Evangelista, J. M. Turney, T. D. Crawford, and C. D. Sherrill,
    J. Chem. Theory Comput. in press (2017).
    (doi: 10.1021/acs.jctc.7b00174)

    -----------------------------------------------------------------------


    Psi4 started on: Saturday, 12 August 2017 02:10AM

    Process ID:   8871
    PSIDATADIR: /home/raimis/opt/miniconda3/envs/htmd/share/psi4
    Memory:     500.0 MiB
    Threads:    1
    
  ==> Input File <==

--------------------------------------------------------------------------
set {
	reference rks
	basis 6-31G*
}


set_num_threads( 8 )
memory 2 gb

molecule MOL {
1 1

C	 -0.013265	 0.010505	 -0.191737
C	 0.025200	 1.234607	 0.501920
C	 0.007664	 1.238350	 1.893106
C	 -0.038477	 0.030472	 2.596050
C	 -0.072055	 -1.187355	 1.909759
C	 -0.064429	 -1.203540	 0.518572
C	 -0.000000	 -0.000000	 -1.658508
H	 0.017843	 2.176184	 -0.039944
H	 0.019669	 2.181895	 2.428935
H	 -0.048295	 0.038248	 3.681626
H	 -0.093870	 -2.123130	 2.458742
H	 -0.047394	 -2.152780	 -0.009528
N	 -0.712589	 -0.905950	 -2.322235
N	 0.724594	 0.896443	 -2.322147
H	 0.695221	 0.990001	 -3.330686
H	 1.388546	 1.475588	 -1.825113
H	 -1.377189	 -1.485970	 -1.827091
H	 -0.673431	 -1.006470	 -3.329771

	symmetry c1
}
set optking { dynamic_level = 1 }
set optking {
	frozen_dihedral = ("
		1 7 13 17
	")
}

ee,wfn = optimize('b3lyp-d3', return_wfn=True)
oeprop( wfn, 'DIPOLE', 'QUADRUPOLE', 'MULLIKEN_CHARGES')
f=open( 'psi4out.xyz', 'w' )
f.write( "18  " )
f.write( str(ee) + "\n" )
f.write( MOL.save_string_xyz() )
f.close()
--------------------------------------------------------------------------
  Threads set to 8 by Python driver.

  Memory set to   1.863 GiB by Python driver.
gradient() will perform analytic gradient computation.

*** tstart() called on computer03
*** at Sat Aug 12 02:10:46 2017

   => Loading Basis Set <=

    Name: 6-31G*
    Role: ORBITAL
    Keyword: BASIS
    atoms 1-7         entry C          line   102 file /home/raimis/opt/miniconda3/envs/htmd/share/psi4/basis/6-31gs.gbs 
    atoms 8-12, 15-18 entry H          line    35 file /home/raimis/opt/miniconda3/envs/htmd/share/psi4/basis/6-31gs.gbs 
    atoms 13-14       entry N          line   119 file /home/raimis/opt/miniconda3/envs/htmd/share/psi4/basis/6-31gs.gbs 


         ---------------------------------------------------------
                                   SCF
            by Justin Turney, Rob Parrish, and Andy Simmonett
                              RKS Reference
                        8 Threads,   1907 MiB Core
         ---------------------------------------------------------

  ==> Geometry <==

    Molecular point group: c1
    Full point group: C1

    Geometry (in Angstrom), charge = 1, multiplicity = 1:

       Center              X                  Y                   Z               Mass       
    ------------   -----------------  -----------------  -----------------  -----------------
           C          0.001734330122    -0.001368799309    -0.191633430793    12.000000000000
           C          0.040199330122     1.222733200691     0.502023569207    12.000000000000
           C          0.022663330122     1.226476200691     1.893209569207    12.000000000000
           C         -0.023477669878     0.018598200691     2.596153569207    12.000000000000
           C         -0.057055669878    -1.199228799309     1.909862569207    12.000000000000
           C         -0.049429669878    -1.215413799309     0.518675569207    12.000000000000
           C          0.014999330122    -0.011873799309    -1.658404430793    12.000000000000
           H          0.032842330122     2.164310200691    -0.039840430793     1.007825032070
           H          0.034668330122     2.170021200691     2.429038569207     1.007825032070
           H         -0.033295669878     0.026374200691     3.681729569207     1.007825032070
           H         -0.078870669878    -2.135003799309     2.458845569207     1.007825032070
           H         -0.032394669878    -2.164653799309    -0.009424430793     1.007825032070
           N         -0.697589669878    -0.917823799309    -2.322131430793    14.003074004780
           N          0.739593330122     0.884569200691    -2.322043430793    14.003074004780
           H          0.710220330122     0.978127200691    -3.330582430793     1.007825032070
           H          1.403545330122     1.463714200691    -1.825009430793     1.007825032070
           H         -1.362189669878    -1.497843799309    -1.826987430793     1.007825032070
           H         -0.658431669878    -1.018343799309    -3.329667430793     1.007825032070

  Running in c1 symmetry.

  Rotational constants: A =      0.12190  B =      0.03958  C =      0.03129 [cm^-1]
  Rotational constants: A =   3654.56235  B =   1186.50294  C =    938.07300 [MHz]
  Nuclear repulsion =  416.921931887119513

  Charge       = 1
  Multiplicity = 1
  Electrons    = 64
  Nalpha       = 32
  Nbeta        = 32

  ==> Algorithm <==

  SCF Algorithm Type is DF.
  DIIS enabled.
  MOM disabled.
  Fractional occupation disabled.
  Guess Type is SAD.
  Energy threshold   = 1.00e-08
  Density threshold  = 1.00e-08
  Integral threshold = 0.00e+00

  ==> Primary Basis <==

  Basis Set: 6-31G*
    Blend: 6-31G*
    Number of shells: 72
    Number of basis function: 153
    Number of Cartesian functions: 153
    Spherical Harmonics?: false
    Max angular momentum: 2

  ==> DFT Potential <==

   => B3LYP Composite Functional <= 

    B3LYP Hybrid-GGA Exchange-Correlation Functional (VWN1-RPA)

    P.J. Stephens et. al., J. Phys. Chem., 98, 11623-11627, 1994

    Points   =           5000
    Deriv    =              1
    GGA      =           TRUE
    Meta     =          FALSE

    X_LRC        =          FALSE
    X_Hybrid     =           TRUE
    X_Alpha      =   2.000000E-01
    X_Omega      =   0.000000E+00
    C_LRC        =          FALSE
    C_Hybrid     =          FALSE
    C_Alpha      =   0.000000E+00
    C_Omega      =   0.000000E+00

   => Exchange Functionals <=

    0.8000    B3_X
    0.2000      HF 

   => Correlation Functionals <=

    0.1900 VWN3RPA_C
    0.8100   LYP_C

   => Molecular Quadrature <=

    Radial Scheme    =       TREUTLER
    Pruning Scheme   =           FLAT
    Nuclear Scheme   =       TREUTLER

    BS radius alpha  =              1
    Pruning alpha    =              1
    Radial Points    =             75
    Spherical Points =            302
    Total Points     =         396947
    Total Blocks     =            357
    Max Points       =           4873
    Max Functions    =            151

   => -D3ZERO: Empirical Dispersion <=

    Grimme's -D3 (zero-damping) Dispersion Correction
    Grimme S.; Antony J.; Ehrlich S.; Krieg H. (2010), J. Chem. Phys., 132: 154104

        S6 =   1.000000E+00
        S8 =   1.703000E+00
       SR6 =   1.261000E+00
    ALPHA6 =   1.400000E+01

   => Loading Basis Set <=

    Name: (6-31G* AUX)
    Role: JKFIT
    Keyword: DF_BASIS_SCF
    atoms 1-7         entry C          line   120 file /home/raimis/opt/miniconda3/envs/htmd/share/psi4/basis/cc-pvdz-jkfit.gbs 
    atoms 8-12, 15-18 entry H          line    50 file /home/raimis/opt/miniconda3/envs/htmd/share/psi4/basis/cc-pvdz-jkfit.gbs 
    atoms 13-14       entry N          line   170 file /home/raimis/opt/miniconda3/envs/htmd/share/psi4/basis/cc-pvdz-jkfit.gbs 

  ==> Pre-Iterations <==

   -------------------------------------------------------
    Irrep   Nso     Nmo     Nalpha   Nbeta   Ndocc  Nsocc
   -------------------------------------------------------
     A        153     153       0       0       0       0
   -------------------------------------------------------
    Total     153     153      32      32      32       0
   -------------------------------------------------------

  ==> Integral Setup <==

  ==> DFJK: Density-Fitted J/K Matrices <==

    J tasked:                  Yes
    K tasked:                  Yes
    wK tasked:                  No
    OpenMP threads:              8
    Integrals threads:           8
    Memory (MB):              1430
    Algorithm:                Core
    Integral Cache:           NONE
    Schwarz Cutoff:          1E-12
    Fitting Condition:       1E-12

   => Auxiliary Basis Set <=

  Basis Set: (6-31G* AUX)
    Blend: CC-PVDZ-JKFIT
    Number of shells: 297
    Number of basis function: 954
    Number of Cartesian functions: 954
    Spherical Harmonics?: false
    Max angular momentum: 3

  Minimum eigenvalue in the overlap matrix is 4.8702690277E-04.
  Using Symmetric Orthogonalization.

  SCF Guess: Superposition of Atomic Densities via on-the-fly atomic UHF.

  ==> Iterations <==

                           Total Energy        Delta E     RMS |[F,P]|

   @DF-RKS iter   0:  -381.46339247475049   -3.81463e+02   7.04408e-02 
   @DF-RKS iter   1:  -381.23019467721412    2.33198e-01   6.97312e-03 
   @DF-RKS iter   2:  -381.18949114106795    4.07035e-02   9.62011e-03 DIIS
   @DF-RKS iter   3:  -381.46671975987834   -2.77229e-01   1.13822e-03 DIIS
   @DF-RKS iter   4:  -381.46953450954589   -2.81475e-03   5.55707e-04 DIIS
   @DF-RKS iter   5:  -381.47039114731950   -8.56638e-04   1.76670e-04 DIIS
   @DF-RKS iter   6:  -381.47049384034972   -1.02693e-04   5.18572e-05 DIIS
   @DF-RKS iter   7:  -381.47050288524258   -9.04489e-06   1.00717e-05 DIIS
   @DF-RKS iter   8:  -381.47050313168432   -2.46442e-07   3.37639e-06 DIIS
   @DF-RKS iter   9:  -381.47050316571460   -3.40303e-08   3.10167e-07 DIIS
   @DF-RKS iter  10:  -381.47050316591049   -1.95882e-10   1.93034e-07 DIIS
   @DF-RKS iter  11:  -381.47050316603583   -1.25340e-10   3.41012e-08 DIIS
   @DF-RKS iter  12:  -381.47050316603827   -2.44427e-12   3.75130e-09 DIIS

  ==> Post-Iterations <==

    Orbital Energies (a.u.)
    -----------------------

    Doubly Occupied:                                                      

       1A    -14.568134     2A    -14.568016     3A    -10.497240  
       4A    -10.373228     5A    -10.356162     6A    -10.356130  
       7A    -10.342943     8A    -10.340422     9A    -10.340361  
      10A     -1.183876    11A     -1.092004    12A     -1.014265  
      13A     -0.926618    14A     -0.902200    15A     -0.845442  
      16A     -0.785784    17A     -0.773453    18A     -0.741657  
      19A     -0.732955    20A     -0.688715    21A     -0.669050  
      22A     -0.625558    23A     -0.617375    24A     -0.587107  
      25A     -0.578998    26A     -0.572938    27A     -0.518298  
      28A     -0.505502    29A     -0.498083    30A     -0.472868  
      31A     -0.411625    32A     -0.405699  

    Virtual:                                                              

      33A     -0.216626    34A     -0.157523    35A     -0.128700  
      36A     -0.107881    37A     -0.067234    38A     -0.061438  
      39A     -0.038538    40A     -0.034525    41A      0.007212  
      42A      0.019904    43A      0.021149    44A      0.056151  
      45A      0.062089    46A      0.083794    47A      0.126932  
      48A      0.148239    49A      0.157470    50A      0.157701  
      51A      0.201460    52A      0.243135    53A      0.298545  
      54A      0.349345    55A      0.355140    56A      0.381295  
      57A      0.387614    58A      0.397303    59A      0.422143  
      60A      0.422688    61A      0.442513    62A      0.448139  
      63A      0.453380    64A      0.471392    65A      0.471808  
      66A      0.475333    67A      0.485106    68A      0.511993  
      69A      0.529318    70A      0.531158    71A      0.539056  
      72A      0.590192    73A      0.606070    74A      0.656362  
      75A      0.656825    76A      0.682839    77A      0.687932  
      78A      0.704296    79A      0.716507    80A      0.719310  
      81A      0.741073    82A      0.773538    83A      0.774998  
      84A      0.800480    85A      0.811290    86A      0.830965  
      87A      0.849962    88A      0.941946    89A      0.961363  
      90A      0.995498    91A      1.001071    92A      1.027646  
      93A      1.064665    94A      1.074504    95A      1.142057  
      96A      1.170443    97A      1.219845    98A      1.272655  
      99A      1.282951   100A      1.307327   101A      1.321593  
     102A      1.343555   103A      1.362347   104A      1.374250  
     105A      1.443924   106A      1.454216   107A      1.471051  
     108A      1.610238   109A      1.620967   110A      1.655343  
     111A      1.666556   112A      1.736538   113A      1.754188  
     114A      1.794584   115A      1.825215   116A      1.856844  
     117A      1.903779   118A      1.906383   119A      1.958584  
     120A      1.974618   121A      1.997434   122A      2.017404  
     123A      2.044046   124A      2.065244   125A      2.124975  
     126A      2.129908   127A      2.151716   128A      2.216516  
     129A      2.228834   130A      2.263312   131A      2.350137  
     132A      2.366097   133A      2.444046   134A      2.453612  
     135A      2.489498   136A      2.514976   137A      2.549854  
     138A      2.588014   139A      2.604182   140A      2.630651  
     141A      2.738331   142A      2.883998   143A      2.984494  
     144A      3.259258   145A      3.638165   146A      3.658238  
     147A      3.911769   148A      3.947972   149A      3.963694  
     150A      4.053928   151A      4.173970   152A      4.257699  
     153A      4.546298  

    Final Occupation by Irrep:
              A 
    DOCC [    32 ]

  Energy converged.

  @DF-RKS Final Energy:  -381.47050316603827

   => Energetics <=

    Nuclear Repulsion Energy =            416.9219318871195128
    One-Electron Energy =               -1329.0515554257037820
    Two-Electron Energy =                 575.0770175884416631
    DFT Exchange-Correlation Energy =     -44.4059682358957488
    Empirical Dispersion Energy =          -0.0119289800000000
    PCM Polarization Energy =               0.0000000000000000
    EFP Energy =                            0.0000000000000000
    Total Energy =                       -381.4705031660383270



Properties will be evaluated at   0.000000,   0.000000,   0.000000 Bohr

Properties computed using the SCF density matrix

  Nuclear Dipole Moment: (a.u.)
     X:     0.0150      Y:    -0.0124      Z:    -1.6664

  Electronic Dipole Moment: (a.u.)
     X:     0.0051      Y:    -0.0038      Z:    -0.6158

  Dipole Moment: (a.u.)
     X:     0.0201      Y:    -0.0162      Z:    -2.2821     Total:     2.2823

  Dipole Moment: (Debye)
     X:     0.0511      Y:    -0.0412      Z:    -5.8006     Total:     5.8009


*** tstop() called on computer03 at Sat Aug 12 02:11:40 2017
Module time:
	user time   =      90.43 seconds =       1.51 minutes
	system time =       1.37 seconds =       0.02 minutes
	total time  =         54 seconds =       0.90 minutes
Total time:
	user time   =      90.43 seconds =       1.51 minutes
	system time =       1.37 seconds =       0.02 minutes
	total time  =         54 seconds =       0.90 minutes

*** tstart() called on computer03
*** at Sat Aug 12 02:11:40 2017


         ------------------------------------------------------------
                                   SCF GRAD                          
                          Rob Parrish, Justin Turney,                
                       Andy Simmonett, and Alex Sokolov              
         ------------------------------------------------------------

  ==> Geometry <==

    Molecular point group: c1
    Full point group: C1

    Geometry (in Angstrom), charge = 1, multiplicity = 1:

       Center              X                  Y                   Z               Mass       
    ------------   -----------------  -----------------  -----------------  -----------------
           C          0.001734330122    -0.001368799309    -0.191633430793    12.000000000000
           C          0.040199330122     1.222733200691     0.502023569207    12.000000000000
           C          0.022663330122     1.226476200691     1.893209569207    12.000000000000
           C         -0.023477669878     0.018598200691     2.596153569207    12.000000000000
           C         -0.057055669878    -1.199228799309     1.909862569207    12.000000000000
           C         -0.049429669878    -1.215413799309     0.518675569207    12.000000000000
           C          0.014999330122    -0.011873799309    -1.658404430793    12.000000000000
           H          0.032842330122     2.164310200691    -0.039840430793     1.007825032070
           H          0.034668330122     2.170021200691     2.429038569207     1.007825032070
           H         -0.033295669878     0.026374200691     3.681729569207     1.007825032070
           H         -0.078870669878    -2.135003799309     2.458845569207     1.007825032070
           H         -0.032394669878    -2.164653799309    -0.009424430793     1.007825032070
           N         -0.697589669878    -0.917823799309    -2.322131430793    14.003074004780
           N          0.739593330122     0.884569200691    -2.322043430793    14.003074004780
           H          0.710220330122     0.978127200691    -3.330582430793     1.007825032070
           H          1.403545330122     1.463714200691    -1.825009430793     1.007825032070
           H         -1.362189669878    -1.497843799309    -1.826987430793     1.007825032070
           H         -0.658431669878    -1.018343799309    -3.329667430793     1.007825032070

  Nuclear repulsion =  416.921931887119513

  ==> Basis Set <==

  Basis Set: 6-31G*
    Blend: 6-31G*
    Number of shells: 72
    Number of basis function: 153
    Number of Cartesian functions: 153
    Spherical Harmonics?: false
    Max angular momentum: 2

  ==> DFJKGrad: Density-Fitted SCF Gradients <==

    Gradient:                    1
    J tasked:                  Yes
    K tasked:                  Yes
    wK tasked:                  No
    OpenMP threads:              8
    Integrals threads:           8
    Memory (MB):              1430
    Schwarz Cutoff:          0E+00
    Fitting Condition:       1E-12

   => Auxiliary Basis Set <=

  Basis Set: (6-31G* AUX)
    Blend: CC-PVDZ-JKFIT
    Number of shells: 297
    Number of basis function: 954
    Number of Cartesian functions: 954
    Spherical Harmonics?: false
    Max angular momentum: 3

  ==> DFT Potential <==

   => B3LYP Composite Functional <= 

    B3LYP Hybrid-GGA Exchange-Correlation Functional (VWN1-RPA)

    P.J. Stephens et. al., J. Phys. Chem., 98, 11623-11627, 1994

    Points   =           5000
    Deriv    =              1
    GGA      =           TRUE
    Meta     =          FALSE

    X_LRC        =          FALSE
    X_Hybrid     =           TRUE
    X_Alpha      =   2.000000E-01
    X_Omega      =   0.000000E+00
    C_LRC        =          FALSE
    C_Hybrid     =          FALSE
    C_Alpha      =   0.000000E+00
    C_Omega      =   0.000000E+00

   => Exchange Functionals <=

    0.8000    B3_X
    0.2000      HF 

   => Correlation Functionals <=

    0.1900 VWN3RPA_C
    0.8100   LYP_C

   => Molecular Quadrature <=

    Radial Scheme    =       TREUTLER
    Pruning Scheme   =           FLAT
    Nuclear Scheme   =       TREUTLER

    BS radius alpha  =              1
    Pruning alpha    =              1
    Radial Points    =             75
    Spherical Points =            302
    Total Points     =         396947
    Total Blocks     =            357
    Max Points       =           4873
    Max Functions    =            151


  -Total Gradient:
     Atom            X                  Y                   Z
    ------   -----------------  -----------------  -----------------
       1       -0.000164530332     0.000146618127    -0.000156383757
       2       -0.000004893720     0.000019997822     0.000085553932
       3        0.000010091334     0.000048561407    -0.000026586400
       4       -0.000004579327    -0.000019303009     0.000013807261
       5        0.000018557510     0.000004957449     0.000005412379
       6       -0.000014530835    -0.000075103364    -0.000004913667
       7       -0.000004302341     0.000131724610     0.000196356693
       8       -0.000011461495     0.000001367076    -0.000000467734
       9        0.000004775981    -0.000004190098    -0.000000949799
      10       -0.000002038783     0.000001857364    -0.000003055908
      11       -0.000001982450     0.000003222532    -0.000005346934
      12       -0.000022901167     0.000035570857    -0.000029220454
      13       -0.000042392720    -0.000117538526    -0.000116234086
      14        0.000181931763    -0.000122719513    -0.000036993224
      15       -0.000060790061     0.000011980094     0.000013851287
      16        0.000057024066    -0.000048809205    -0.000006002603
      17        0.000228377434    -0.000206587511     0.000066666523
      18       -0.000166060389     0.000189078768    -0.000017654228


*** tstop() called on computer03 at Sat Aug 12 02:11:51 2017
Module time:
	user time   =      23.50 seconds =       0.39 minutes
	system time =       0.34 seconds =       0.01 minutes
	total time  =         11 seconds =       0.18 minutes
Total time:
	user time   =     114.06 seconds =       1.90 minutes
	system time =       1.72 seconds =       0.03 minutes
	total time  =         65 seconds =       1.08 minutes

			-----------------------------------------
			 OPTKING 2.0: for geometry optimizations 
			  - R.A. King,  Bethel University        
			-----------------------------------------
	At level 1: Red. Int., RFO, no backsteps, dynamic trust

	Internal coordinates to be generated automatically.
	Detected frag 1 with atoms:  1 2 3 4 5 6 7 8 9 10 11 12 13 14 15 16 17 18
	---Fragment 1 Bond Connectivity---
	 1 : 2 6 7
	 2 : 1 3 8
	 3 : 2 4 9
	 4 : 3 5 10
	 5 : 4 6 11
	 6 : 1 5 12
	 7 : 1 13 14
	 8 : 2
	 9 : 3
	 10 : 4
	 11 : 5
	 12 : 6
	 13 : 7 17 18
	 14 : 7 15 16
	 15 : 14
	 16 : 14
	 17 : 13
	 18 : 13

	Assuming in current code that numbering for constraints corresponds to unified fragment.
	Frozen dihedral atom list: 
	     1     7    13    17
	---Fragment 1 Geometry and Gradient---
	 C           0.0032774090       -0.0025866558       -0.3621347021
	 C           0.0759657247        2.3106308829        0.9486870581
	 C           0.0428274872        2.3177041278        3.5776475980
	 C          -0.0443663663        0.0351455059        4.9060192447
	 C          -0.1078195904       -2.2662140014        3.6091172073
	 C          -0.0934085389       -2.2967992188        0.9801547776
	 C           0.0283446261       -0.0224382289       -3.1339301918
	 H           0.0620630095        4.0899535459       -0.0752875032
	 H           0.0655136494        4.1007457719        4.5902176620
	 H          -0.0629196975        0.0498400163        6.9574605811
	 H          -0.1490439660       -4.0345724734        4.6465447289
	 H          -0.0612170542       -4.0906028532       -0.0178095932
	 N          -1.3182534292       -1.7344356189       -4.3881924488
	 N           1.3976288436        1.6715935349       -4.3880261529
	 H           1.3421219179        1.8483925324       -6.2938886572
	 H           2.6523162890        2.7660189761       -3.4487680141
	 H          -2.5741654171       -2.8305145705       -3.4525058924
	 H          -1.2442555333       -1.9243908898       -6.2921595578
	            -0.0001645303        0.0001466181       -0.0001563838
	            -0.0000048937        0.0000199978        0.0000855539
	             0.0000100913        0.0000485614       -0.0000265864
	            -0.0000045793       -0.0000193030        0.0000138073
	             0.0000185575        0.0000049574        0.0000054124
	            -0.0000145308       -0.0000751034       -0.0000049137
	            -0.0000043023        0.0001317246        0.0001963567
	            -0.0000114615        0.0000013671       -0.0000004677
	             0.0000047760       -0.0000041901       -0.0000009498
	            -0.0000020388        0.0000018574       -0.0000030559
	            -0.0000019825        0.0000032225       -0.0000053469
	            -0.0000229012        0.0000355709       -0.0000292205
	            -0.0000423927       -0.0001175385       -0.0001162341
	             0.0001819318       -0.0001227195       -0.0000369932
	            -0.0000607901        0.0000119801        0.0000138513
	             0.0000570241       -0.0000488092       -0.0000060026
	             0.0002283774       -0.0002065875        0.0000666665
	            -0.0001660604        0.0001890788       -0.0000176542

	Previous optimization step data not found.  Starting new optimization.

	---Fragment 1 Intrafragment Coordinates---
	 - Coordinate -           - BOHR/RAD -       - ANG/DEG -
	 R(1,2)           =         2.659796	       1.407503
	 R(1,6)           =         2.659793	       1.407502
	 R(1,7)           =         2.771980	       1.466869
	 R(2,3)           =         2.629179	       1.391302
	 R(2,8)           =         2.052975	       1.086388
	 R(3,4)           =         2.642394	       1.398295
	 R(3,9)           =         2.050622	       1.085142
	 R(4,5)           =         2.642392	       1.398294
	 R(4,10)          =         2.051578	       1.085648
	 R(5,6)           =         2.629180	       1.391302
	 R(5,11)          =         2.050621	       1.085142
	 R(6,12)          =         2.052974	       1.086387
	 R(7,13)          =         2.513451	       1.330061
	 R(7,14)          =         2.513452	       1.330061
	 R(13,17)         =         1.911600	       1.011575
	 R(13,18)         =         1.914850	       1.013295
	 R(14,15)         =         1.914850	       1.013295
	 R(14,16)         =         1.911600	       1.011575
	 B(1,2,3)         =         2.088381	     119.655400
	 B(1,2,8)         =         2.103396	     120.515730
	 B(1,6,5)         =         2.088381	     119.655427
	 B(1,6,12)        =         2.103396	     120.515728
	 B(1,7,13)        =         2.093264	     119.935176
	 B(1,7,14)        =         2.093264	     119.935199
	 B(2,1,6)         =         2.097219	     120.161779
	 B(2,1,7)         =         2.092983	     119.919082
	 B(2,3,4)         =         2.095279	     120.050649
	 B(2,3,9)         =         2.089720	     119.732124
	 B(3,2,8)         =         2.090148	     119.756665
	 B(3,4,5)         =         2.101792	     120.423811
	 B(3,4,10)        =         2.090696	     119.788049
	 B(4,3,9)         =         2.098135	     120.214269
	 B(4,5,6)         =         2.095279	     120.050653
	 B(4,5,11)        =         2.098135	     120.214268
	 B(5,4,10)        =         2.090697	     119.788140
	 B(5,6,12)        =         2.090147	     119.756629
	 B(6,1,7)         =         2.092984	     119.919138
	 B(6,5,11)        =         2.089720	     119.732120
	 B(7,13,17)       =         2.092411	     119.886337
	 B(7,13,18)       =         2.144861	     122.891462
	 B(7,14,15)       =         2.144861	     122.891460
	 B(7,14,16)       =         2.092411	     119.886307
	 B(13,7,14)       =         2.096657	     120.129625
	 B(15,14,16)      =         2.043400	     117.078174
	 B(17,13,18)      =         2.043399	     117.078143
	 D(1,2,3,4)       =         0.007799	       0.446831
	 D(1,2,3,9)       =        -3.122898	    -178.928868
	 D(1,6,5,4)       =         0.007800	       0.446929
	 D(1,6,5,11)      =        -3.122895	    -178.928731
	*D(1,7,13,17)     =         0.174533	      10.000020
	 D(1,7,13,18)     =        -3.045476	    -174.492916
	 D(1,7,14,15)     =        -3.032165	    -173.730264
	 D(1,7,14,16)     =         0.187844	      10.762685
	 D(2,1,6,5)       =        -0.003909	      -0.223949
	 D(2,1,6,12)      =        -3.091438	    -177.126350
	 D(2,1,7,13)      =        -2.505167	    -143.535470
	 D(2,1,7,14)      =         0.636427	      36.464572
	 D(2,3,4,5)       =        -0.003943	      -0.225921
	 D(2,3,4,10)      =         3.137651	     179.774144
	 D(3,2,1,6)       =        -0.003905	      -0.223715
	 D(3,2,1,7)       =         3.137686	     179.776188
	 D(3,4,5,6)       =        -0.003942	      -0.225885
	 D(3,4,5,11)      =         3.126700	     179.146738
	 D(4,3,2,8)       =         3.095747	     177.373222
	 D(4,5,6,12)      =         3.095744	     177.373087
	 D(5,4,3,9)       =         3.126700	     179.146740
	 D(5,6,1,7)       =         3.137686	     179.776148
	 D(6,1,2,8)       =        -3.091438	    -177.126353
	 D(6,1,7,13)      =         0.636424	      36.464434
	 D(6,1,7,14)      =        -2.505168	    -143.535525
	 D(6,5,4,10)      =         3.137649	     179.774050
	 D(7,1,2,8)       =         0.050153	       2.873550
	 D(7,1,6,12)      =         0.050156	       2.873747
	 D(8,2,3,9)       =        -0.034950	      -2.002477
	 D(9,3,4,10)      =        -0.014891	      -0.853195
	 D(10,4,5,11)     =        -0.014893	      -0.853328
	 D(11,5,6,12)     =        -0.034951	      -2.002573
	 D(13,7,14,15)    =         0.109428	       6.269778
	 D(13,7,14,16)    =        -2.953748	    -169.237273
	 D(14,7,13,17)    =        -2.967060	    -170.000021
	 D(14,7,13,18)    =         0.096116	       5.507043

	Current energy   :      -381.4705031660

	Generating empirical Hessian (Schlegel '84) for each fragment.
	Taking RFO optimization step.
	Going to follow RFO solution 1.
	Using RFO vector 1.
	Norm of target step-size    0.01889
	Projected energy change by RFO approximation:        -0.0000042910

	Back-transformation to cartesian coordinates...
	Could not converge backtransformation.
	Using first guess instead.

	Back-transformation to cartesian coordinates to adjust frozen coordinates...
	Successfully converged to displaced geometry.

	--- Internal Coordinate Step in ANG or DEG, aJ/ANG or AJ/DEG ---
	 ---------------------------------------------------------------------------
	   Coordinate                Previous        Force       Change         New 
	   ----------                --------       ------       ------       ------
	    1 R(1,2)          =      1.407503    -0.000512    -0.000074     1.407429
	    2 R(1,6)          =      1.407502    -0.000030    -0.000004     1.407498
	    3 R(1,7)          =      1.466869     0.000871     0.000155     1.467023
	    4 R(2,3)          =      1.391302     0.000158     0.000022     1.391323
	    5 R(2,8)          =      1.086388    -0.000007    -0.000001     1.086386
	    6 R(3,4)          =      1.398295    -0.000259    -0.000036     1.398259
	    7 R(3,9)          =      1.085142     0.000028     0.000006     1.085148
	    8 R(4,5)          =      1.398294    -0.000139    -0.000018     1.398275
	    9 R(4,10)         =      1.085648     0.000015     0.000003     1.085651
	   10 R(5,6)          =      1.391302    -0.000082    -0.000010     1.391292
	   11 R(5,11)         =      1.085142     0.000040     0.000007     1.085149
	   12 R(6,12)         =      1.086387     0.000147     0.000028     1.086415
	   13 R(7,13)         =      1.330061    -0.000933    -0.000091     1.329970
	   14 R(7,14)         =      1.330061    -0.000017    -0.000001     1.330061
	   15 R(13,17)        =      1.011575    -0.000014     0.000006     1.011581
	   16 R(13,18)        =      1.013295     0.000073     0.000026     1.013321
	   17 R(14,15)        =      1.013295     0.000100     0.000015     1.013310
	   18 R(14,16)        =      1.011575    -0.000058    -0.000007     1.011568
	   19 B(1,2,3)        =    119.655400    -0.000001    -0.002112   119.653288
	   20 B(1,2,8)        =    120.515730     0.000000     0.000376   120.516106
	   21 B(1,6,5)        =    119.655427     0.000001     0.001876   119.657302
	   22 B(1,6,12)       =    120.515728     0.000003     0.013830   120.529558
	   23 B(1,7,13)       =    119.935176     0.000002     0.007081   119.942257
	   24 B(1,7,14)       =    119.935199    -0.000007    -0.019633   119.915566
	   25 B(2,1,6)        =    120.161779     0.000000     0.000108   120.161887
	   26 B(2,1,7)        =    119.919082    -0.000008    -0.024150   119.894932
	   27 B(2,3,4)        =    120.050649     0.000001     0.003185   120.053834
	   28 B(2,3,9)        =    119.732124    -0.000001    -0.002359   119.729765
	   29 B(3,2,8)        =    119.756665     0.000000     0.001108   119.757773
	   30 B(3,4,5)        =    120.423811    -0.000001    -0.001849   120.421962
	   31 B(3,4,10)       =    119.788049     0.000000     0.001595   119.789644
	   32 B(4,3,9)        =    120.214269    -0.000000    -0.000810   120.213459
	   33 B(4,5,6)        =    120.050653    -0.000000    -0.001240   120.049413
	   34 B(4,5,11)       =    120.214268     0.000000    -0.000138   120.214130
	   35 B(5,4,10)       =    119.788140     0.000000     0.000253   119.788393
	   36 B(5,6,12)       =    119.756629    -0.000003    -0.016197   119.740432
	   37 B(6,1,7)        =    119.919138     0.000008     0.024042   119.943181
	   38 B(6,5,11)       =    119.732120     0.000000     0.001244   119.733363
	   39 B(7,13,17)      =    119.886337     0.000001     0.010079   119.896416
	   40 B(7,13,18)      =    122.891462     0.000002     0.016208   122.907669
	   41 B(7,14,15)      =    122.891460     0.000003     0.014591   122.906051
	   42 B(7,14,16)      =    119.886307    -0.000001    -0.004278   119.882029
	   43 B(13,7,14)      =    120.129625     0.000004     0.011690   120.141315
	   44 B(15,14,16)     =    117.078174    -0.000002    -0.006839   117.071335
	   45 B(17,13,18)     =    117.078143    -0.000002    -0.002607   117.075537
	   46 D(1,2,3,4)      =      0.446831     0.000000     0.020234     0.467065
	   47 D(1,2,3,9)      =   -178.928868     0.000000     0.018486  -178.910382
	   48 D(1,6,5,4)      =      0.446929    -0.000000    -0.015909     0.431020
	   49 D(1,6,5,11)     =   -178.928731    -0.000000    -0.001821  -178.930552
	   50 *D(1,7,13,17)   =     10.000020     0.000000    -0.000000    10.000020
	   51 D(1,7,13,18)    =   -174.492916     0.000003     0.385170  -174.107746
	   52 D(1,7,14,15)    =   -173.730264     0.000000     0.050477  -173.679787
	   53 D(1,7,14,16)    =     10.762685    -0.000000    -0.003612    10.759073
	   54 D(2,1,6,5)      =     -0.223949     0.000000     0.037867    -0.186081
	   55 D(2,1,6,12)     =   -177.126350     0.000000     0.048887  -177.077463
	   56 D(2,1,7,13)     =   -143.535470     0.000001     0.282280  -143.253190
	   57 D(2,1,7,14)     =     36.464572    -0.000001    -0.055134    36.409437
	   58 D(2,3,4,5)      =     -0.225921     0.000000     0.001635    -0.224286
	   59 D(2,3,4,10)     =    179.774144    -0.000000    -0.007960   179.766184
	   60 D(3,2,1,6)      =     -0.223715    -0.000000    -0.040020    -0.263735
	   61 D(3,2,1,7)      =    179.776188    -0.000000    -0.039898   179.736290
	   62 D(3,4,5,6)      =     -0.225885    -0.000000    -0.003815    -0.229700
	   63 D(3,4,5,11)     =    179.146738    -0.000000    -0.017963   179.128775
	   64 D(4,3,2,8)      =    177.373222     0.000000     0.006913   177.380135
	   65 D(4,5,6,12)     =    177.373087    -0.000000    -0.025906   177.347181
	   66 D(5,4,3,9)      =    179.146740     0.000000     0.003382   179.150122
	   67 D(5,6,1,7)      =    179.776148     0.000000     0.037745   179.813893
	   68 D(6,1,2,8)      =   -177.126353    -0.000000    -0.026618  -177.152971
	   69 D(6,1,7,13)     =     36.464434     0.000001     0.282402    36.746835
	   70 D(6,1,7,14)     =   -143.535525    -0.000001    -0.055012  -143.590537
	   71 D(6,5,4,10)     =    179.774050     0.000000     0.005780   179.779830
	   72 D(7,1,2,8)      =      2.873550    -0.000000    -0.026496     2.847054
	   73 D(7,1,6,12)     =      2.873747     0.000000     0.048765     2.922511
	   74 D(8,2,3,9)      =     -2.002477     0.000000     0.005165    -1.997312
	   75 D(9,3,4,10)     =     -0.853195    -0.000000    -0.006213    -0.859408
	   76 D(10,4,5,11)    =     -0.853328    -0.000000    -0.008368    -0.861695
	   77 D(11,5,6,12)    =     -2.002573    -0.000000    -0.011818    -2.014391
	   78 D(13,7,14,15)   =      6.269778    -0.000002    -0.287616     5.982162
	   79 D(13,7,14,16)   =   -169.237273    -0.000002    -0.341704  -169.578978
	   80 D(14,7,13,17)   =   -170.000021     0.000002     0.338183  -169.661838
	   81 D(14,7,13,18)   =      5.507043     0.000004     0.723354     6.230396
	 ---------------------------------------------------------------------------
	Successfully symmetrized geometry.

  ==> Convergence Check <==

  Measures of convergence in internal coordinates in au.
  Criteria marked as inactive (o), active & met (*), and active & unmet ( ).
  --------------------------------------------------------------------------------------------- ~
   Step     Total Energy     Delta E     MAX Force     RMS Force      MAX Disp      RMS Disp    ~
  --------------------------------------------------------------------------------------------- ~
    Convergence Criteria    1.00e-06 *    3.00e-04 *             o    1.20e-03 *             o  ~
  --------------------------------------------------------------------------------------------- ~
      1    -381.47050317   -3.81e+02      2.54e-04 *    5.03e-05 o    1.26e-02      2.10e-03 o  ~
  ---------------------------------------------------------------------------------------------

	Writing optimization data to binary file.
	Structure for next step:
	Cartesian Geometry (in Angstrom)
	    C     0.0029011885  -0.0025484316  -0.1916445233
	    C     0.0406987301   1.2218247040   0.5014195209
	    C     0.0221294396   1.2261785688   1.8926121602
	    C    -0.0239544183   0.0186617807   2.5961088103
	    C    -0.0564083644  -1.1994875497   1.9103733802
	    C    -0.0477890881  -1.2162890206   0.5192098912
	    C     0.0163931988  -0.0131031540  -1.6585679606
	    H     0.0334080016   2.1631470680  -0.0408852208
	    H     0.0333164864   2.1699939296   2.4279938808
	    H    -0.0344491630   0.0269421423   3.6816777635
	    H    -0.0778898569  -2.1350277696   2.4597840698
	    H    -0.0294550281  -2.1659222085  -0.0081965573
	    N    -0.6999998931  -0.9157398979  -2.3225314054
	    N     0.7399343532   0.8845271427  -2.3217491339
	    H     0.7104000605   0.9789563041  -3.3302168155
	    H     1.4028128974   1.4645152341  -1.8242801707
	    H    -1.3673538582  -1.4929294653  -1.8277724100
	    H    -0.6569637440  -1.0203297647  -3.3295210336
			--------------------------
			 OPTKING Finished Execution 
			--------------------------

    Structure for next step:
    Molecular point group: c1
    Full point group: C1

    Geometry (in Angstrom), charge = 1, multiplicity = 1:

    C            0.002729500341    -0.002342201367    -0.191599071663
    C            0.040527041883     1.222030934272     0.501464972536
    C            0.021957751396     1.226384799042     1.892657611885
    C           -0.024126106520     0.018868010950     2.596154261897
    C           -0.056580052623    -1.199281319443     1.910418831800
    C           -0.047960776288    -1.216082790323     0.519255342894
    C            0.016221510659    -0.012896923733    -1.658522508939
    H            0.033236313446     2.163353298281    -0.040839769172
    H            0.033144798242     2.170200159818     2.428039332489
    H           -0.034620851160     0.027148372597     3.681723215098
    H           -0.078061545096    -2.134821539361     2.459829521430
    H           -0.029626716265    -2.165715978207    -0.008151105627
    N           -0.700171581269    -0.915533667687    -2.322485953761
    N            0.739762665008     0.884733372931    -2.321703682249
    H            0.710228372314     0.979162534356    -3.330171363902
    H            1.402641209253     1.464721464306    -1.824234719048
    H           -1.367525546379    -1.492723235045    -1.827726958354
    H           -0.657135432154    -1.020123534473    -3.329475581987

gradient() will perform analytic gradient computation.

*** tstart() called on computer03
*** at Sat Aug 12 02:11:51 2017

   => Loading Basis Set <=

    Name: 6-31G*
    Role: ORBITAL
    Keyword: BASIS
    atoms 1-7         entry C          line   102 file /home/raimis/opt/miniconda3/envs/htmd/share/psi4/basis/6-31gs.gbs 
    atoms 8-12, 15-18 entry H          line    35 file /home/raimis/opt/miniconda3/envs/htmd/share/psi4/basis/6-31gs.gbs 
    atoms 13-14       entry N          line   119 file /home/raimis/opt/miniconda3/envs/htmd/share/psi4/basis/6-31gs.gbs 


         ---------------------------------------------------------
                                   SCF
            by Justin Turney, Rob Parrish, and Andy Simmonett
                              RKS Reference
                        8 Threads,   1907 MiB Core
         ---------------------------------------------------------

  ==> Geometry <==

    Molecular point group: c1
    Full point group: C1

    Geometry (in Angstrom), charge = 1, multiplicity = 1:

       Center              X                  Y                   Z               Mass       
    ------------   -----------------  -----------------  -----------------  -----------------
           C          0.002729500341    -0.002342201367    -0.191599071663    12.000000000000
           C          0.040527041883     1.222030934272     0.501464972536    12.000000000000
           C          0.021957751396     1.226384799042     1.892657611885    12.000000000000
           C         -0.024126106520     0.018868010950     2.596154261897    12.000000000000
           C         -0.056580052623    -1.199281319443     1.910418831800    12.000000000000
           C         -0.047960776288    -1.216082790323     0.519255342894    12.000000000000
           C          0.016221510659    -0.012896923733    -1.658522508939    12.000000000000
           H          0.033236313446     2.163353298281    -0.040839769172     1.007825032070
           H          0.033144798242     2.170200159818     2.428039332489     1.007825032070
           H         -0.034620851160     0.027148372597     3.681723215098     1.007825032070
           H         -0.078061545096    -2.134821539361     2.459829521430     1.007825032070
           H         -0.029626716265    -2.165715978207    -0.008151105627     1.007825032070
           N         -0.700171581269    -0.915533667687    -2.322485953761    14.003074004780
           N          0.739762665008     0.884733372931    -2.321703682249    14.003074004780
           H          0.710228372314     0.979162534356    -3.330171363902     1.007825032070
           H          1.402641209253     1.464721464306    -1.824234719048     1.007825032070
           H         -1.367525546379    -1.492723235045    -1.827726958354     1.007825032070
           H         -0.657135432154    -1.020123534473    -3.329475581987     1.007825032070

  Running in c1 symmetry.

  Rotational constants: A =      0.12190  B =      0.03957  C =      0.03129 [cm^-1]
  Rotational constants: A =   3654.50927  B =   1186.30735  C =    938.19132 [MHz]
  Nuclear repulsion =  416.917734337611193

  Charge       = 1
  Multiplicity = 1
  Electrons    = 64
  Nalpha       = 32
  Nbeta        = 32

  ==> Algorithm <==

  SCF Algorithm Type is DF.
  DIIS enabled.
  MOM disabled.
  Fractional occupation disabled.
  Guess Type is READ.
  Energy threshold   = 1.00e-08
  Density threshold  = 1.00e-08
  Integral threshold = 0.00e+00

  ==> Primary Basis <==

  Basis Set: 6-31G*
    Blend: 6-31G*
    Number of shells: 72
    Number of basis function: 153
    Number of Cartesian functions: 153
    Spherical Harmonics?: false
    Max angular momentum: 2

  ==> DFT Potential <==

   => B3LYP Composite Functional <= 

    B3LYP Hybrid-GGA Exchange-Correlation Functional (VWN1-RPA)

    P.J. Stephens et. al., J. Phys. Chem., 98, 11623-11627, 1994

    Points   =           5000
    Deriv    =              1
    GGA      =           TRUE
    Meta     =          FALSE

    X_LRC        =          FALSE
    X_Hybrid     =           TRUE
    X_Alpha      =   2.000000E-01
    X_Omega      =   0.000000E+00
    C_LRC        =          FALSE
    C_Hybrid     =          FALSE
    C_Alpha      =   0.000000E+00
    C_Omega      =   0.000000E+00

   => Exchange Functionals <=

    0.8000    B3_X
    0.2000      HF 

   => Correlation Functionals <=

    0.1900 VWN3RPA_C
    0.8100   LYP_C

   => Molecular Quadrature <=

    Radial Scheme    =       TREUTLER
    Pruning Scheme   =           FLAT
    Nuclear Scheme   =       TREUTLER

    BS radius alpha  =              1
    Pruning alpha    =              1
    Radial Points    =             75
    Spherical Points =            302
    Total Points     =         396948
    Total Blocks     =            357
    Max Points       =           4895
    Max Functions    =            152

   => -D3ZERO: Empirical Dispersion <=

    Grimme's -D3 (zero-damping) Dispersion Correction
    Grimme S.; Antony J.; Ehrlich S.; Krieg H. (2010), J. Chem. Phys., 132: 154104

        S6 =   1.000000E+00
        S8 =   1.703000E+00
       SR6 =   1.261000E+00
    ALPHA6 =   1.400000E+01

   => Loading Basis Set <=

    Name: (6-31G* AUX)
    Role: JKFIT
    Keyword: DF_BASIS_SCF
    atoms 1-7         entry C          line   120 file /home/raimis/opt/miniconda3/envs/htmd/share/psi4/basis/cc-pvdz-jkfit.gbs 
    atoms 8-12, 15-18 entry H          line    50 file /home/raimis/opt/miniconda3/envs/htmd/share/psi4/basis/cc-pvdz-jkfit.gbs 
    atoms 13-14       entry N          line   170 file /home/raimis/opt/miniconda3/envs/htmd/share/psi4/basis/cc-pvdz-jkfit.gbs 

  Reading orbitals from file 180, no projection.

  ==> Pre-Iterations <==

   -------------------------------------------------------
    Irrep   Nso     Nmo     Nalpha   Nbeta   Ndocc  Nsocc
   -------------------------------------------------------
     A        153     153       0       0       0       0
   -------------------------------------------------------
    Total     153     153      32      32      32       0
   -------------------------------------------------------

  ==> Integral Setup <==

  ==> DFJK: Density-Fitted J/K Matrices <==

    J tasked:                  Yes
    K tasked:                  Yes
    wK tasked:                  No
    OpenMP threads:              8
    Integrals threads:           8
    Memory (MB):              1430
    Algorithm:                Core
    Integral Cache:           NONE
    Schwarz Cutoff:          1E-12
    Fitting Condition:       1E-12

   => Auxiliary Basis Set <=

  Basis Set: (6-31G* AUX)
    Blend: CC-PVDZ-JKFIT
    Number of shells: 297
    Number of basis function: 954
    Number of Cartesian functions: 954
    Spherical Harmonics?: false
    Max angular momentum: 3

  Minimum eigenvalue in the overlap matrix is 4.8702461519E-04.
  Using Symmetric Orthogonalization.

  SCF Guess: Orbitals guess was supplied from a previous computation.

  ==> Iterations <==

                           Total Energy        Delta E     RMS |[F,P]|

   @DF-RKS iter   0:  -381.47045706584680   -3.81470e+02   8.60508e-05 
   @DF-RKS iter   1:  -381.47050576299989   -4.86972e-05   4.72144e-06 
   @DF-RKS iter   2:  -381.47050590631818   -1.43318e-07   3.02887e-06 DIIS
   @DF-RKS iter   3:  -381.47050591560759   -9.28941e-09   2.38959e-06 DIIS
   @DF-RKS iter   4:  -381.47050593254431   -1.69367e-08   4.81703e-07 DIIS
   @DF-RKS iter   5:  -381.47050593387667   -1.33235e-09   2.15802e-07 DIIS
   @DF-RKS iter   6:  -381.47050593401957   -1.42904e-10   4.78161e-08 DIIS
   @DF-RKS iter   7:  -381.47050593402571   -6.13909e-12   1.76895e-08 DIIS
   @DF-RKS iter   8:  -381.47050593402662   -9.09495e-13   3.75823e-09 DIIS

  ==> Post-Iterations <==

    Orbital Energies (a.u.)
    -----------------------

    Doubly Occupied:                                                      

       1A    -14.568120     2A    -14.568038     3A    -10.497235  
       4A    -10.373211     5A    -10.356124     6A    -10.356110  
       7A    -10.342918     8A    -10.340396     9A    -10.340338  
      10A     -1.183863    11A     -1.092008    12A     -1.014248  
      13A     -0.926585    14A     -0.902175    15A     -0.845441  
      16A     -0.785763    17A     -0.773403    18A     -0.741718  
      19A     -0.732919    20A     -0.688746    21A     -0.669046  
      22A     -0.625493    23A     -0.617380    24A     -0.587008  
      25A     -0.578996    26A     -0.572878    27A     -0.518313  
      28A     -0.505462    29A     -0.498058    30A     -0.472871  
      31A     -0.411630    32A     -0.405678  

    Virtual:                                                              

      33A     -0.216603    34A     -0.157502    35A     -0.128733  
      36A     -0.107820    37A     -0.067261    38A     -0.061394  
      39A     -0.038559    40A     -0.034485    41A      0.007187  
      42A      0.019860    43A      0.021138    44A      0.056127  
      45A      0.062101    46A      0.083774    47A      0.127024  
      48A      0.148319    49A      0.157327    50A      0.157738  
      51A      0.201438    52A      0.243118    53A      0.298495  
      54A      0.349302    55A      0.355184    56A      0.381342  
      57A      0.387632    58A      0.397329    59A      0.422147  
      60A      0.422631    61A      0.442559    62A      0.448113  
      63A      0.453398    64A      0.471420    65A      0.471843  
      66A      0.475347    67A      0.485146    68A      0.512097  
      69A      0.529311    70A      0.531095    71A      0.539099  
      72A      0.590050    73A      0.606069    74A      0.656489  
      75A      0.656753    76A      0.682822    77A      0.687899  
      78A      0.704293    79A      0.716478    80A      0.719259  
      81A      0.740835    82A      0.773231    83A      0.774993  
      84A      0.800329    85A      0.811259    86A      0.830641  
      87A      0.850038    88A      0.942037    89A      0.961478  
      90A      0.995383    91A      1.001049    92A      1.027665  
      93A      1.064665    94A      1.074658    95A      1.142135  
      96A      1.169843    97A      1.220241    98A      1.272556  
      99A      1.282905   100A      1.307232   101A      1.321648  
     102A      1.343592   103A      1.362450   104A      1.374939  
     105A      1.443838   106A      1.454238   107A      1.471082  
     108A      1.610053   109A      1.620996   110A      1.655450  
     111A      1.666180   112A      1.736492   113A      1.754126  
     114A      1.794620   115A      1.825286   116A      1.856485  
     117A      1.904013   118A      1.906298   119A      1.958628  
     120A      1.974577   121A      1.997493   122A      2.017355  
     123A      2.043880   124A      2.065352   125A      2.124987  
     126A      2.130030   127A      2.151751   128A      2.216480  
     129A      2.228622   130A      2.263613   131A      2.350404  
     132A      2.366184   133A      2.443855   134A      2.453607  
     135A      2.489567   136A      2.515212   137A      2.550063  
     138A      2.588019   139A      2.604231   140A      2.630641  
     141A      2.738297   142A      2.884077   143A      2.984214  
     144A      3.259283   145A      3.638195   146A      3.658143  
     147A      3.911875   148A      3.948024   149A      3.963731  
     150A      4.054050   151A      4.174043   152A      4.257699  
     153A      4.546296  

    Final Occupation by Irrep:
              A 
    DOCC [    32 ]

  Energy converged.

  @DF-RKS Final Energy:  -381.47050593402662

   => Energetics <=

    Nuclear Repulsion Energy =            416.9177343376111935
    One-Electron Energy =               -1329.0442478614395441
    Two-Electron Energy =                 575.0738913973541457
    DFT Exchange-Correlation Energy =     -44.4059527675523853
    Empirical Dispersion Energy =          -0.0119310400000000
    PCM Polarization Energy =               0.0000000000000000
    EFP Energy =                            0.0000000000000000
    Total Energy =                       -381.4705059340266189



Properties will be evaluated at   0.000000,   0.000000,   0.000000 Bohr

Properties computed using the SCF density matrix

  Nuclear Dipole Moment: (a.u.)
     X:     0.0114      Y:    -0.0082      Z:    -1.6655

  Electronic Dipole Moment: (a.u.)
     X:     0.0088      Y:    -0.0084      Z:    -0.6169

  Dipole Moment: (a.u.)
     X:     0.0202      Y:    -0.0165      Z:    -2.2824     Total:     2.2826

  Dipole Moment: (Debye)
     X:     0.0513      Y:    -0.0420      Z:    -5.8014     Total:     5.8018


*** tstop() called on computer03 at Sat Aug 12 02:12:28 2017
Module time:
	user time   =      61.46 seconds =       1.02 minutes
	system time =       0.87 seconds =       0.01 minutes
	total time  =         37 seconds =       0.62 minutes
Total time:
	user time   =     176.02 seconds =       2.93 minutes
	system time =       2.62 seconds =       0.04 minutes
	total time  =        102 seconds =       1.70 minutes

*** tstart() called on computer03
*** at Sat Aug 12 02:12:28 2017


         ------------------------------------------------------------
                                   SCF GRAD                          
                          Rob Parrish, Justin Turney,                
                       Andy Simmonett, and Alex Sokolov              
         ------------------------------------------------------------

  ==> Geometry <==

    Molecular point group: c1
    Full point group: C1

    Geometry (in Angstrom), charge = 1, multiplicity = 1:

       Center              X                  Y                   Z               Mass       
    ------------   -----------------  -----------------  -----------------  -----------------
           C          0.002729500341    -0.002342201367    -0.191599071663    12.000000000000
           C          0.040527041883     1.222030934272     0.501464972536    12.000000000000
           C          0.021957751396     1.226384799042     1.892657611885    12.000000000000
           C         -0.024126106520     0.018868010950     2.596154261897    12.000000000000
           C         -0.056580052623    -1.199281319443     1.910418831800    12.000000000000
           C         -0.047960776288    -1.216082790323     0.519255342894    12.000000000000
           C          0.016221510659    -0.012896923733    -1.658522508939    12.000000000000
           H          0.033236313446     2.163353298281    -0.040839769172     1.007825032070
           H          0.033144798242     2.170200159818     2.428039332489     1.007825032070
           H         -0.034620851160     0.027148372597     3.681723215098     1.007825032070
           H         -0.078061545096    -2.134821539361     2.459829521430     1.007825032070
           H         -0.029626716265    -2.165715978207    -0.008151105627     1.007825032070
           N         -0.700171581269    -0.915533667687    -2.322485953761    14.003074004780
           N          0.739762665008     0.884733372931    -2.321703682249    14.003074004780
           H          0.710228372314     0.979162534356    -3.330171363902     1.007825032070
           H          1.402641209253     1.464721464306    -1.824234719048     1.007825032070
           H         -1.367525546379    -1.492723235045    -1.827726958354     1.007825032070
           H         -0.657135432154    -1.020123534473    -3.329475581987     1.007825032070

  Nuclear repulsion =  416.917734337611193

  ==> Basis Set <==

  Basis Set: 6-31G*
    Blend: 6-31G*
    Number of shells: 72
    Number of basis function: 153
    Number of Cartesian functions: 153
    Spherical Harmonics?: false
    Max angular momentum: 2

  ==> DFJKGrad: Density-Fitted SCF Gradients <==

    Gradient:                    1
    J tasked:                  Yes
    K tasked:                  Yes
    wK tasked:                  No
    OpenMP threads:              8
    Integrals threads:           8
    Memory (MB):              1430
    Schwarz Cutoff:          0E+00
    Fitting Condition:       1E-12

   => Auxiliary Basis Set <=

  Basis Set: (6-31G* AUX)
    Blend: CC-PVDZ-JKFIT
    Number of shells: 297
    Number of basis function: 954
    Number of Cartesian functions: 954
    Spherical Harmonics?: false
    Max angular momentum: 3

  ==> DFT Potential <==

   => B3LYP Composite Functional <= 

    B3LYP Hybrid-GGA Exchange-Correlation Functional (VWN1-RPA)

    P.J. Stephens et. al., J. Phys. Chem., 98, 11623-11627, 1994

    Points   =           5000
    Deriv    =              1
    GGA      =           TRUE
    Meta     =          FALSE

    X_LRC        =          FALSE
    X_Hybrid     =           TRUE
    X_Alpha      =   2.000000E-01
    X_Omega      =   0.000000E+00
    C_LRC        =          FALSE
    C_Hybrid     =          FALSE
    C_Alpha      =   0.000000E+00
    C_Omega      =   0.000000E+00

   => Exchange Functionals <=

    0.8000    B3_X
    0.2000      HF 

   => Correlation Functionals <=

    0.1900 VWN3RPA_C
    0.8100   LYP_C

   => Molecular Quadrature <=

    Radial Scheme    =       TREUTLER
    Pruning Scheme   =           FLAT
    Nuclear Scheme   =       TREUTLER

    BS radius alpha  =              1
    Pruning alpha    =              1
    Radial Points    =             75
    Spherical Points =            302
    Total Points     =         396948
    Total Blocks     =            357
    Max Points       =           4895
    Max Functions    =            152


  -Total Gradient:
     Atom            X                  Y                   Z
    ------   -----------------  -----------------  -----------------
       1       -0.000224595739     0.000198082218    -0.000052032212
       2        0.000027455197    -0.000013430005    -0.000004450076
       3       -0.000005988214    -0.000003585764    -0.000007866895
       4       -0.000001248639    -0.000000970545    -0.000004331315
       5       -0.000011339488    -0.000007584523    -0.000012721105
       6       -0.000001391550    -0.000001630233     0.000056105288
       7        0.000481092963    -0.000428156460     0.000069108680
       8        0.000007682017    -0.000004288037    -0.000017195164
       9       -0.000001470093    -0.000001842362    -0.000000989907
      10        0.000005344042    -0.000001952883    -0.000001324055
      11        0.000000812185     0.000000093646     0.000000696832
      12        0.000029066266    -0.000009773408     0.000030438782
      13       -0.000260281069     0.000199968195    -0.000064757664
      14       -0.000021588378     0.000069754810    -0.000012650182
      15       -0.000000702266     0.000005790137     0.000004021379
      16       -0.000048175173     0.000039417222     0.000005240823
      17        0.000096178741    -0.000103380707     0.000006567875
      18       -0.000070301772     0.000063589542    -0.000015771993


*** tstop() called on computer03 at Sat Aug 12 02:12:39 2017
Module time:
	user time   =      23.66 seconds =       0.39 minutes
	system time =       0.45 seconds =       0.01 minutes
	total time  =         11 seconds =       0.18 minutes
Total time:
	user time   =     199.78 seconds =       3.33 minutes
	system time =       3.08 seconds =       0.05 minutes
	total time  =        113 seconds =       1.88 minutes

			-----------------------------------------
			 OPTKING 2.0: for geometry optimizations 
			  - R.A. King,  Bethel University        
			-----------------------------------------
	At level 1: Red. Int., RFO, no backsteps, dynamic trust

	Previous internal coordinate definitions found.
	---Fragment 1 Geometry and Gradient---
	 C           0.0051580081       -0.0044261191       -0.3620697728
	 C           0.0765850101        2.3093037917        0.9476314633
	 C           0.0414941366        2.3175314037        3.5766045498
	 C          -0.0455917340        0.0356553734        4.9060205537
	 C          -0.1069208040       -2.2663132500        3.6101683912
	 C          -0.0906327323       -2.2980634286        0.9812503911
	 C           0.0306542126       -0.0243716538       -3.1341533271
	 H           0.0628075301        4.0881452624       -0.0771759791
	 H           0.0626345914        4.1010839556        4.5883293783
	 H          -0.0654239272        0.0513029892        6.9574485736
	 H          -0.1475149417       -4.0342280520        4.6484041291
	 H          -0.0559863800       -4.0926100804       -0.0154033573
	 N          -1.3231325346       -1.7301078974       -4.3888624001
	 N           1.3979488402        1.6719037755       -4.3873841212
	 H           1.3421371155        1.8503490295       -6.2931118534
	 H           2.6506077482        2.7679224285       -3.4473040211
	 H          -2.5842487624       -2.8208381064       -3.4539033970
	 H          -1.2418059990       -1.9277541019       -6.2917970161
	            -0.0002245957        0.0001980822       -0.0000520322
	             0.0000274552       -0.0000134300       -0.0000044501
	            -0.0000059882       -0.0000035858       -0.0000078669
	            -0.0000012486       -0.0000009705       -0.0000043313
	            -0.0000113395       -0.0000075845       -0.0000127211
	            -0.0000013915       -0.0000016302        0.0000561053
	             0.0004810930       -0.0004281565        0.0000691087
	             0.0000076820       -0.0000042880       -0.0000171952
	            -0.0000014701       -0.0000018424       -0.0000009899
	             0.0000053440       -0.0000019529       -0.0000013241
	             0.0000008122        0.0000000936        0.0000006968
	             0.0000290663       -0.0000097734        0.0000304388
	            -0.0002602811        0.0001999682       -0.0000647577
	            -0.0000215884        0.0000697548       -0.0000126502
	            -0.0000007023        0.0000057901        0.0000040214
	            -0.0000481752        0.0000394172        0.0000052408
	             0.0000961787       -0.0001033807        0.0000065679
	            -0.0000703018        0.0000635895       -0.0000157720

	---Fragment 1 Intrafragment Coordinates---
	 - Coordinate -           - BOHR/RAD -       - ANG/DEG -
	 R(1,2)           =         2.659655	       1.407429
	 R(1,6)           =         2.659785	       1.407498
	 R(1,7)           =         2.772273	       1.467023
	 R(2,3)           =         2.629220	       1.391323
	 R(2,8)           =         2.052973	       1.086386
	 R(3,4)           =         2.642326	       1.398259
	 R(3,9)           =         2.050633	       1.085148
	 R(4,5)           =         2.642358	       1.398275
	 R(4,10)          =         2.051584	       1.085651
	 R(5,6)           =         2.629160	       1.391292
	 R(5,11)          =         2.050635	       1.085149
	 R(6,12)          =         2.053026	       1.086415
	 R(7,13)          =         2.513279	       1.329970
	 R(7,14)          =         2.513450	       1.330061
	 R(13,17)         =         1.911611	       1.011581
	 R(13,18)         =         1.914899	       1.013321
	 R(14,15)         =         1.914878	       1.013310
	 R(14,16)         =         1.911586	       1.011568
	 B(1,2,3)         =         2.088344	     119.653288
	 B(1,2,8)         =         2.103403	     120.516106
	 B(1,6,5)         =         2.088414	     119.657302
	 B(1,6,12)        =         2.103638	     120.529558
	 B(1,7,13)        =         2.093387	     119.942257
	 B(1,7,14)        =         2.092921	     119.915566
	 B(2,1,6)         =         2.097221	     120.161887
	 B(2,1,7)         =         2.092561	     119.894932
	 B(2,3,4)         =         2.095335	     120.053834
	 B(2,3,9)         =         2.089679	     119.729765
	 B(3,2,8)         =         2.090167	     119.757773
	 B(3,4,5)         =         2.101760	     120.421962
	 B(3,4,10)        =         2.090724	     119.789644
	 B(4,3,9)         =         2.098121	     120.213459
	 B(4,5,6)         =         2.095258	     120.049413
	 B(4,5,11)        =         2.098132	     120.214130
	 B(5,4,10)        =         2.090702	     119.788393
	 B(5,6,12)        =         2.089865	     119.740432
	 B(6,1,7)         =         2.093403	     119.943181
	 B(6,5,11)        =         2.089741	     119.733363
	 B(7,13,17)       =         2.092587	     119.896416
	 B(7,13,18)       =         2.145144	     122.907669
	 B(7,14,15)       =         2.145115	     122.906051
	 B(7,14,16)       =         2.092336	     119.882029
	 B(13,7,14)       =         2.096862	     120.141315
	 B(15,14,16)      =         2.043280	     117.071335
	 B(17,13,18)      =         2.043354	     117.075537
	 D(1,2,3,4)       =         0.008152	       0.467065
	 D(1,2,3,9)       =        -3.122575	    -178.910382
	 D(1,6,5,4)       =         0.007523	       0.431020
	 D(1,6,5,11)      =        -3.122927	    -178.930552
	*D(1,7,13,17)     =         0.174533	      10.000020
	 D(1,7,13,18)     =        -3.038753	    -174.107746
	 D(1,7,14,15)     =        -3.031284	    -173.679787
	 D(1,7,14,16)     =         0.187781	      10.759073
	 D(2,1,6,5)       =        -0.003248	      -0.186081
	 D(2,1,6,12)      =        -3.090585	    -177.077463
	 D(2,1,7,13)      =        -2.500240	    -143.253190
	 D(2,1,7,14)      =         0.635465	      36.409437
	 D(2,3,4,5)       =        -0.003915	      -0.224286
	 D(2,3,4,10)      =         3.137512	     179.766184
	 D(3,2,1,6)       =        -0.004603	      -0.263735
	 D(3,2,1,7)       =         3.136990	     179.736290
	 D(3,4,5,6)       =        -0.004009	      -0.229700
	 D(3,4,5,11)      =         3.126387	     179.128775
	 D(4,3,2,8)       =         3.095867	     177.380135
	 D(4,5,6,12)      =         3.095292	     177.347181
	 D(5,4,3,9)       =         3.126759	     179.150122
	 D(5,6,1,7)       =         3.138344	     179.813893
	 D(6,1,2,8)       =        -3.091903	    -177.152971
	 D(6,1,7,13)      =         0.641353	      36.746835
	 D(6,1,7,14)      =        -2.506128	    -143.590537
	 D(6,5,4,10)      =         3.137750	     179.779830
	 D(7,1,2,8)       =         0.049690	       2.847054
	 D(7,1,6,12)      =         0.051007	       2.922511
	 D(8,2,3,9)       =        -0.034860	      -1.997312
	 D(9,3,4,10)      =        -0.015000	      -0.859408
	 D(10,4,5,11)     =        -0.015039	      -0.861695
	 D(11,5,6,12)     =        -0.035158	      -2.014391
	 D(13,7,14,15)    =         0.104408	       5.982162
	 D(13,7,14,16)    =        -2.959712	    -169.578978
	 D(14,7,13,17)    =        -2.961158	    -169.661838
	 D(14,7,13,18)    =         0.108741	       6.230396

	Current energy   :      -381.4705059340

	Energy change for the previous step:
		Projected    :        -0.0000042910
		Actual       :        -0.0000027680

	Performing BFGS update.
	Previous computed or guess Hessian on step 1.
	Steps to be used in Hessian update: 1
	Taking RFO optimization step.
	Going to follow RFO solution 1.
	Using RFO vector 1.
	Norm of target step-size    0.01145
	Projected energy change by RFO approximation:        -0.0000032585

	Back-transformation to cartesian coordinates...
	Could not converge backtransformation.
	Using first guess instead.

	Back-transformation to cartesian coordinates to adjust frozen coordinates...
	Successfully converged to displaced geometry.

	--- Internal Coordinate Step in ANG or DEG, aJ/ANG or AJ/DEG ---
	 ---------------------------------------------------------------------------
	   Coordinate                Previous        Force       Change         New 
	   ----------                --------       ------       ------       ------
	    1 R(1,2)          =      1.407429     0.000213    -0.000001     1.407428
	    2 R(1,6)          =      1.407498    -0.000506    -0.000063     1.407435
	    3 R(1,7)          =      1.467023    -0.000020     0.000052     1.467075
	    4 R(2,3)          =      1.391323     0.000041     0.000014     1.391337
	    5 R(2,8)          =      1.086386    -0.000035    -0.000005     1.086381
	    6 R(3,4)          =      1.398259     0.000040    -0.000006     1.398253
	    7 R(3,9)          =      1.085148     0.000012     0.000004     1.085152
	    8 R(4,5)          =      1.398275     0.000084     0.000004     1.398279
	    9 R(4,10)         =      1.085651     0.000001     0.000001     1.085653
	   10 R(5,6)          =      1.391292     0.000117     0.000009     1.391300
	   11 R(5,11)         =      1.085149    -0.000007     0.000002     1.085151
	   12 R(6,12)         =      1.086415     0.000052     0.000018     1.086433
	   13 R(7,13)         =      1.329970    -0.000435    -0.000072     1.329898
	   14 R(7,14)         =      1.330061    -0.000321    -0.000028     1.330033
	   15 R(13,17)        =      1.011581     0.000005     0.000003     1.011583
	   16 R(13,18)        =      1.013321    -0.000040     0.000021     1.013342
	   17 R(14,15)        =      1.013310     0.000038     0.000011     1.013320
	   18 R(14,16)        =      1.011568     0.000048     0.000004     1.011572
	   19 B(1,2,3)        =    119.653288    -0.000001    -0.003847   119.649441
	   20 B(1,2,8)        =    120.516106     0.000002     0.006626   120.522732
	   21 B(1,6,5)        =    119.657302    -0.000001    -0.001164   119.656139
	   22 B(1,6,12)       =    120.529558    -0.000002    -0.003333   120.526225
	   23 B(1,7,13)       =    119.942257    -0.000009    -0.019706   119.922551
	   24 B(1,7,14)       =    119.915566     0.000008     0.012155   119.927721
	   25 B(2,1,6)        =    120.161887     0.000002     0.004798   120.166685
	   26 B(2,1,7)        =    119.894932     0.000008     0.011319   119.906251
	   27 B(2,3,4)        =    120.053834    -0.000000     0.000750   120.054584
	   28 B(2,3,9)        =    119.729765     0.000000    -0.001010   119.728755
	   29 B(3,2,8)        =    119.757773    -0.000001    -0.002746   119.755027
	   30 B(3,4,5)        =    120.421962     0.000000     0.000012   120.421974
	   31 B(3,4,10)       =    119.789644    -0.000000    -0.000300   119.789344
	   32 B(4,3,9)        =    120.213459     0.000000     0.000198   120.213657
	   33 B(4,5,6)        =    120.049413     0.000000    -0.000544   120.048869
	   34 B(4,5,11)       =    120.214130     0.000000     0.000620   120.214750
	   35 B(5,4,10)       =    119.788393     0.000000     0.000289   119.788682
	   36 B(5,6,12)       =    119.740432     0.000003     0.005358   119.745790
	   37 B(6,1,7)        =    119.943181    -0.000010    -0.016129   119.927052
	   38 B(6,5,11)       =    119.733363    -0.000000     0.000026   119.733389
	   39 B(7,13,17)      =    119.896416    -0.000001     0.003222   119.899638
	   40 B(7,13,18)      =    122.907669     0.000001     0.015466   122.923135
	   41 B(7,14,15)      =    122.906051    -0.000000     0.001034   122.907085
	   42 B(7,14,16)      =    119.882029     0.000000    -0.003330   119.878699
	   43 B(13,7,14)      =    120.141315     0.000002     0.008268   120.149583
	   44 B(15,14,16)     =    117.071335     0.000000    -0.004479   117.066856
	   45 B(17,13,18)     =    117.075537     0.000001     0.007109   117.082645
	   46 D(1,2,3,4)      =      0.467065    -0.000000    -0.009090     0.457974
	   47 D(1,2,3,9)      =   -178.910382    -0.000000    -0.002589  -178.912971
	   48 D(1,6,5,4)      =      0.431020     0.000000     0.009765     0.440785
	   49 D(1,6,5,11)     =   -178.930552    -0.000000    -0.000802  -178.931353
	   50 *D(1,7,13,17)   =     10.000020     0.000000    -0.000000    10.000020
	   51 D(1,7,13,18)    =   -174.107746     0.000002     0.466339  -173.641407
	   52 D(1,7,14,15)    =   -173.679787    -0.000001    -0.149457  -173.829243
	   53 D(1,7,14,16)    =     10.759073    -0.000000    -0.043725    10.715348
	   54 D(2,1,6,5)      =     -0.186081    -0.000000    -0.023763    -0.209845
	   55 D(2,1,6,12)     =   -177.077463    -0.000000    -0.042383  -177.119846
	   56 D(2,1,7,13)     =   -143.253190    -0.000001    -0.060565  -143.313755
	   57 D(2,1,7,14)     =     36.409437     0.000001     0.138687    36.548124
	   58 D(2,3,4,5)      =     -0.224286    -0.000000    -0.004894    -0.229180
	   59 D(2,3,4,10)     =    179.766184     0.000000     0.009342   179.775526
	   60 D(3,2,1,6)      =     -0.263735     0.000000     0.023427    -0.240308
	   61 D(3,2,1,7)      =    179.736290    -0.000000    -0.016802   179.719488
	   62 D(3,4,5,6)      =     -0.229700     0.000000     0.004542    -0.225158
	   63 D(3,4,5,11)     =    179.128775     0.000000     0.015156   179.143931
	   64 D(4,3,2,8)      =    177.380135    -0.000000    -0.008173   177.371962
	   65 D(4,5,6,12)     =    177.347181     0.000000     0.027968   177.375148
	   66 D(5,4,3,9)      =    179.150122    -0.000000    -0.011434   179.138688
	   67 D(5,6,1,7)      =    179.813893     0.000000     0.016475   179.830368
	   68 D(6,1,2,8)      =   -177.152971     0.000000     0.022800  -177.130172
	   69 D(6,1,7,13)     =     36.746835    -0.000001    -0.100697    36.646138
	   70 D(6,1,7,14)     =   -143.590537     0.000001     0.098555  -143.491982
	   71 D(6,5,4,10)     =    179.779830    -0.000000    -0.009694   179.770136
	   72 D(7,1,2,8)      =      2.847054    -0.000000    -0.017430     2.829625
	   73 D(7,1,6,12)     =      2.922511    -0.000000    -0.002145     2.920366
	   74 D(8,2,3,9)      =     -1.997312    -0.000000    -0.001672    -1.998983
	   75 D(9,3,4,10)     =     -0.859408     0.000000     0.002802    -0.856606
	   76 D(10,4,5,11)    =     -0.861695     0.000000     0.000921    -0.860775
	   77 D(11,5,6,12)    =     -2.014391     0.000000     0.017401    -1.996990
	   78 D(13,7,14,15)   =      5.982162     0.000001     0.050158     6.032320
	   79 D(13,7,14,16)   =   -169.578978     0.000002     0.155889  -169.423089
	   80 D(14,7,13,17)   =   -169.661838    -0.000002    -0.199712  -169.861550
	   81 D(14,7,13,18)   =      6.230396     0.000000     0.266627     6.497023
	 ---------------------------------------------------------------------------
	Successfully symmetrized geometry.

  ==> Convergence Check <==

  Measures of convergence in internal coordinates in au.
  Criteria marked as inactive (o), active & met (*), and active & unmet ( ).
  ---------------------------------------------------------------------------------------------
   Step     Total Energy     Delta E     MAX Force     RMS Force      MAX Disp      RMS Disp   
  ---------------------------------------------------------------------------------------------
    Convergence Criteria    1.00e-06 *    3.00e-04 *             o    1.20e-03 *             o
  ---------------------------------------------------------------------------------------------
      2    -381.47050593   -2.77e-06      1.36e-04 *    4.07e-05 o    8.14e-03      1.27e-03 o  ~
  ---------------------------------------------------------------------------------------------

	Writing optimization data to binary file.
	Structure for next step:
	Cartesian Geometry (in Angstrom)
	    C     0.0021368848  -0.0011602550  -0.1916262551
	    C     0.0400432874   1.2228660239   0.5020426040
	    C     0.0220938478   1.2264164927   1.8932593729
	    C    -0.0236673310   0.0185079748   2.5960918104
	    C    -0.0565214856  -1.1992545068   1.9096810256
	    C    -0.0485301597  -1.2152573781   0.5184956510
	    C     0.0145896276  -0.0112437872  -1.6586138563
	    H     0.0323685091   2.1645205274  -0.0396691379
	    H     0.0334061473   2.1699375608   2.4291648580
	    H    -0.0338312296   0.0261863083   3.6816697647
	    H    -0.0779990607  -2.1351064696   2.4585639487
	    H    -0.0309649552  -2.1645622190  -0.0095645956
	    N    -0.7011554797  -0.9147790381  -2.3219101891
	    N     0.7394646605   0.8849518990  -2.3222233172
	    H     0.7109595251   0.9781624975  -3.3308447496
	    H     1.4034910055   1.4638854049  -1.8250483609
	    H    -1.3672764275  -1.4929238023  -1.8265999723
	    H    -0.6539668112  -1.0240654762  -3.3282362259
			--------------------------
			 OPTKING Finished Execution 
			--------------------------

    Structure for next step:
    Molecular point group: c1
    Full point group: C1

    Geometry (in Angstrom), charge = 1, multiplicity = 1:

    C            0.002512715475    -0.001645470110    -0.191586968916
    C            0.040419118052     1.222380808816     0.502081890278
    C            0.022469678398     1.225931277553     1.893298659159
    C           -0.023291500318     0.018022759686     2.596131096614
    C           -0.056145654941    -1.199739721946     1.909720311797
    C           -0.048154329052    -1.215742593264     0.518534937213
    C            0.014965458240    -0.011729002331    -1.658574570023
    H            0.032744339707     2.164035312249    -0.039629851675
    H            0.033781977921     2.169452345704     2.429204144272
    H           -0.033455398990     0.025701093136     3.681709050964
    H           -0.077623230090    -2.135591684733     2.458603234914
    H           -0.030589124552    -2.165047434171    -0.009525309414
    N           -0.700779649039    -0.915264253265    -2.321870902874
    N            0.739840491090     0.884466683892    -2.322184030982
    H            0.711335355697     0.977677282351    -3.330805463377
    H            1.403866836102     1.463400189772    -1.825009074718
    H           -1.366900596900    -1.493409017470    -1.826560686093
    H           -0.653590980544    -1.024550691357    -3.328196939643

gradient() will perform analytic gradient computation.

*** tstart() called on computer03
*** at Sat Aug 12 02:12:39 2017

   => Loading Basis Set <=

    Name: 6-31G*
    Role: ORBITAL
    Keyword: BASIS
    atoms 1-7         entry C          line   102 file /home/raimis/opt/miniconda3/envs/htmd/share/psi4/basis/6-31gs.gbs 
    atoms 8-12, 15-18 entry H          line    35 file /home/raimis/opt/miniconda3/envs/htmd/share/psi4/basis/6-31gs.gbs 
    atoms 13-14       entry N          line   119 file /home/raimis/opt/miniconda3/envs/htmd/share/psi4/basis/6-31gs.gbs 


         ---------------------------------------------------------
                                   SCF
            by Justin Turney, Rob Parrish, and Andy Simmonett
                              RKS Reference
                        8 Threads,   1907 MiB Core
         ---------------------------------------------------------

  ==> Geometry <==

    Molecular point group: c1
    Full point group: C1

    Geometry (in Angstrom), charge = 1, multiplicity = 1:

       Center              X                  Y                   Z               Mass       
    ------------   -----------------  -----------------  -----------------  -----------------
           C          0.002512715475    -0.001645470110    -0.191586968916    12.000000000000
           C          0.040419118052     1.222380808816     0.502081890278    12.000000000000
           C          0.022469678398     1.225931277553     1.893298659159    12.000000000000
           C         -0.023291500318     0.018022759686     2.596131096614    12.000000000000
           C         -0.056145654941    -1.199739721946     1.909720311797    12.000000000000
           C         -0.048154329052    -1.215742593264     0.518534937213    12.000000000000
           C          0.014965458240    -0.011729002331    -1.658574570023    12.000000000000
           H          0.032744339707     2.164035312249    -0.039629851675     1.007825032070
           H          0.033781977921     2.169452345704     2.429204144272     1.007825032070
           H         -0.033455398990     0.025701093136     3.681709050964     1.007825032070
[...]
	 N           1.3980959102        1.6713998062       -4.3882918487
	 H           1.3442290109        1.8475423100       -6.2943101277
	 H           2.6529238473        2.7654255815       -3.4487673412
	 H          -2.5830677790       -2.8221340474       -3.4516994618
	 H          -1.2351079562       -1.9361202159       -6.2893807322
	            -0.0000517831        0.0000181724        0.0000227803
	             0.0000128652       -0.0000045218       -0.0000245999
	            -0.0000128701       -0.0000190088        0.0000024863
	             0.0000073956        0.0000060160       -0.0000038442
	            -0.0000136988       -0.0000001934       -0.0000092939
	             0.0000063220        0.0000333289        0.0000142327
	             0.0001268700       -0.0001028955       -0.0000305879
	            -0.0000046544        0.0000019029        0.0000089099
	            -0.0000030222        0.0000014105       -0.0000022767
	             0.0000000859       -0.0000000931       -0.0000004803
	            -0.0000021490       -0.0000010504        0.0000002850
	             0.0000035973       -0.0000140706       -0.0000012761
	            -0.0002212245        0.0002386218        0.0000143130
	             0.0000122885       -0.0000058704       -0.0000024073
	             0.0000308541       -0.0000037803       -0.0000032722
	            -0.0000134620        0.0000076687       -0.0000098115
	             0.0001235090       -0.0001351781        0.0000254452
	            -0.0000006909       -0.0000200867       -0.0000223546

	---Fragment 1 Intrafragment Coordinates---
	 - Coordinate -           - BOHR/RAD -       - ANG/DEG -
	 R(1,2)           =         2.659654	       1.407428
	 R(1,6)           =         2.659666	       1.407435
	 R(1,7)           =         2.772370	       1.467075
	 R(2,3)           =         2.629246	       1.391337
	 R(2,8)           =         2.052963	       1.086381
	 R(3,4)           =         2.642315	       1.398253
	 R(3,9)           =         2.050640	       1.085152
	 R(4,5)           =         2.642365	       1.398279
	 R(4,10)          =         2.051586	       1.085653
	 R(5,6)           =         2.629177	       1.391300
	 R(5,11)          =         2.050638	       1.085151
	 R(6,12)          =         2.053060	       1.086433
	 R(7,13)          =         2.513143	       1.329898
	 R(7,14)          =         2.513398	       1.330033
	 R(13,17)         =         1.911615	       1.011583
	 R(13,18)         =         1.914939	       1.013342
	 R(14,15)         =         1.914898	       1.013320
	 R(14,16)         =         1.911594	       1.011572
	 B(1,2,3)         =         2.088277	     119.649441
	 B(1,2,8)         =         2.103518	     120.522732
	 B(1,6,5)         =         2.088394	     119.656139
	 B(1,6,12)        =         2.103579	     120.526225
	 B(1,7,13)        =         2.093043	     119.922551
	 B(1,7,14)        =         2.093134	     119.927721
	 B(2,1,6)         =         2.097304	     120.166685
	 B(2,1,7)         =         2.092759	     119.906251
	 B(2,3,4)         =         2.095348	     120.054584
	 B(2,3,9)         =         2.089661	     119.728755
	 B(3,2,8)         =         2.090120	     119.755027
	 B(3,4,5)         =         2.101760	     120.421974
	 B(3,4,10)        =         2.090718	     119.789344
	 B(4,3,9)         =         2.098124	     120.213657
	 B(4,5,6)         =         2.095248	     120.048869
	 B(4,5,11)        =         2.098143	     120.214750
	 B(5,4,10)        =         2.090707	     119.788682
	 B(5,6,12)        =         2.089958	     119.745790
	 B(6,1,7)         =         2.093122	     119.927052
	 B(6,5,11)        =         2.089742	     119.733389
	 B(7,13,17)       =         2.092643	     119.899638
	 B(7,13,18)       =         2.145413	     122.923135
	 B(7,14,15)       =         2.145133	     122.907085
	 B(7,14,16)       =         2.092278	     119.878699
	 B(13,7,14)       =         2.097006	     120.149583
	 B(15,14,16)      =         2.043202	     117.066856
	 B(17,13,18)      =         2.043478	     117.082645
	 D(1,2,3,4)       =         0.007993	       0.457974
	 D(1,2,3,9)       =        -3.122620	    -178.912971
	 D(1,6,5,4)       =         0.007693	       0.440785
	 D(1,6,5,11)      =        -3.122941	    -178.931353
	*D(1,7,13,17)     =         0.174533	      10.000020
	 D(1,7,13,18)     =        -3.030614	    -173.641407
	 D(1,7,14,15)     =        -3.033893	    -173.829243
	 D(1,7,14,16)     =         0.187018	      10.715348
	 D(2,1,6,5)       =        -0.003662	      -0.209845
	 D(2,1,6,12)      =        -3.091324	    -177.119846
	 D(2,1,7,13)      =        -2.501297	    -143.313755
	 D(2,1,7,14)      =         0.637885	      36.548124
	 D(2,3,4,5)       =        -0.004000	      -0.229180
	 D(2,3,4,10)      =         3.137675	     179.775526
	 D(3,2,1,6)       =        -0.004194	      -0.240308
	 D(3,2,1,7)       =         3.136697	     179.719488
	 D(3,4,5,6)       =        -0.003930	      -0.225158
	 D(3,4,5,11)      =         3.126651	     179.143931
	 D(4,3,2,8)       =         3.095725	     177.371962
	 D(4,5,6,12)      =         3.095780	     177.375148
	 D(5,4,3,9)       =         3.126560	     179.138688
	 D(5,6,1,7)       =         3.138632	     179.830368
	 D(6,1,2,8)       =        -3.091505	    -177.130172
	 D(6,1,7,13)      =         0.639596	      36.646138
	 D(6,1,7,14)      =        -2.504408	    -143.491982
	 D(6,5,4,10)      =         3.137581	     179.770136
	 D(7,1,2,8)       =         0.049386	       2.829625
	 D(7,1,6,12)      =         0.050970	       2.920366
	 D(8,2,3,9)       =        -0.034889	      -1.998983
	 D(9,3,4,10)      =        -0.014951	      -0.856606
	 D(10,4,5,11)     =        -0.015023	      -0.860775
	 D(11,5,6,12)     =        -0.034854	      -1.996990
	 D(13,7,14,15)    =         0.105284	       6.032320
	 D(13,7,14,16)    =        -2.956991	    -169.423089
	 D(14,7,13,17)    =        -2.964643	    -169.861550
	 D(14,7,13,18)    =         0.113394	       6.497023

	Current energy   :      -381.4705070955

	Energy change for the previous step:
		Projected    :        -0.0000032585
		Actual       :        -0.0000011614

	Performing BFGS update.
	Previous computed or guess Hessian on step 1.
	Steps to be used in Hessian update: 2 1
	Taking RFO optimization step.
	Going to follow RFO solution 1.
	Using RFO vector 1.
	Norm of target step-size    0.00261
	Projected energy change by RFO approximation:        -0.0000003344

	Back-transformation to cartesian coordinates...
	Successfully converged to displaced geometry.

	Back-transformation to cartesian coordinates to adjust frozen coordinates...
	Successfully converged to displaced geometry.

	--- Internal Coordinate Step in ANG or DEG, aJ/ANG or AJ/DEG ---
	 ---------------------------------------------------------------------------
	   Coordinate                Previous        Force       Change         New 
	   ----------                --------       ------       ------       ------
	    1 R(1,2)          =      1.407428     0.000087     0.000013     1.407442
	    2 R(1,6)          =      1.407435     0.000041     0.000002     1.407437
	    3 R(1,7)          =      1.467075    -0.000172    -0.000030     1.467045
	    4 R(2,3)          =      1.391337    -0.000024    -0.000004     1.391334
	    5 R(2,8)          =      1.086381     0.000028     0.000004     1.086385
	    6 R(3,4)          =      1.398253     0.000101     0.000013     1.398266
	    7 R(3,9)          =      1.085152    -0.000005    -0.000001     1.085151
	    8 R(4,5)          =      1.398279     0.000066     0.000009     1.398288
	    9 R(4,10)         =      1.085653    -0.000006    -0.000001     1.085652
	   10 R(5,6)          =      1.391300     0.000072     0.000009     1.391310
	   11 R(5,11)         =      1.085151    -0.000014    -0.000002     1.085149
	   12 R(6,12)         =      1.086433    -0.000102    -0.000016     1.086416
	   13 R(7,13)         =      1.329898     0.000115     0.000011     1.329909
	   14 R(7,14)         =      1.330033    -0.000170    -0.000017     1.330016
	   15 R(13,17)        =      1.011583    -0.000075    -0.000009     1.011574
	   16 R(13,18)        =      1.013342    -0.000190    -0.000026     1.013316
	   17 R(14,15)        =      1.013320    -0.000007    -0.000001     1.013319
	   18 R(14,16)        =      1.011572     0.000072     0.000009     1.011581
	   19 B(1,2,3)        =    119.649441     0.000000     0.000839   119.650280
	   20 B(1,2,8)        =    120.522732    -0.000001    -0.002693   120.520039
	   21 B(1,6,5)        =    119.656139    -0.000001    -0.002267   119.653872
	   22 B(1,6,12)       =    120.526225    -0.000000    -0.001996   120.524228
	   23 B(1,7,13)       =    119.922551     0.000004     0.009173   119.931724
	   24 B(1,7,14)       =    119.927721    -0.000002    -0.002562   119.925159
	   25 B(2,1,6)        =    120.166685     0.000001     0.001529   120.168214
	   26 B(2,1,7)        =    119.906251     0.000001     0.003003   119.909254
	   27 B(2,3,4)        =    120.054584    -0.000001    -0.002101   120.052484
	   28 B(2,3,9)        =    119.728755     0.000000     0.001555   119.730310
	   29 B(3,2,8)        =    119.755027     0.000001     0.002935   119.757961
	   30 B(3,4,5)        =    120.421974     0.000000     0.001306   120.423280
	   31 B(3,4,10)       =    119.789344    -0.000000    -0.000715   119.788628
	   32 B(4,3,9)        =    120.213657     0.000000     0.000572   120.214229
	   33 B(4,5,6)        =    120.048869     0.000000     0.000697   120.049566
	   34 B(4,5,11)       =    120.214750    -0.000000    -0.000064   120.214686
	   35 B(5,4,10)       =    119.788682    -0.000000    -0.000590   119.788092
	   36 B(5,6,12)       =    119.745790     0.000001     0.003748   119.749538
	   37 B(6,1,7)        =    119.927052    -0.000001    -0.004521   119.922531
	   38 B(6,5,11)       =    119.733389    -0.000000    -0.000623   119.732766
	   39 B(7,13,17)      =    119.899638    -0.000000    -0.001761   119.897877
	   40 B(7,13,18)      =    122.923135    -0.000001    -0.004680   122.918455
	   41 B(7,14,15)      =    122.907085    -0.000001    -0.005540   122.901545
	   42 B(7,14,16)      =    119.878699     0.000000     0.000970   119.879668
	   43 B(13,7,14)      =    120.149583    -0.000003    -0.006682   120.142901
	   44 B(15,14,16)     =    117.066856     0.000001     0.005369   117.072225
	   45 B(17,13,18)     =    117.082645     0.000001     0.004209   117.086855
	   46 D(1,2,3,4)      =      0.457974    -0.000000    -0.009152     0.448822
	   47 D(1,2,3,9)      =   -178.912971    -0.000000    -0.011919  -178.924890
	   48 D(1,6,5,4)      =      0.440785     0.000000     0.008814     0.449599
	   49 D(1,6,5,11)     =   -178.931353     0.000000     0.007841  -178.923513
	   50 *D(1,7,13,17)   =     10.000020     0.000000    -0.000000    10.000020
	   51 D(1,7,13,18)    =   -173.641407    -0.000000    -0.042513  -173.683920
	   52 D(1,7,14,15)    =   -173.829243     0.000001     0.064882  -173.764361
	   53 D(1,7,14,16)    =     10.715348     0.000000     0.052327    10.767675
	   54 D(2,1,6,5)      =     -0.209845    -0.000000    -0.010587    -0.220431
	   55 D(2,1,6,12)     =   -177.119846     0.000000     0.000344  -177.119502
	   56 D(2,1,7,13)     =   -143.313755     0.000000    -0.022312  -143.336068
	   57 D(2,1,7,14)     =     36.548124    -0.000000    -0.052884    36.495241
	   58 D(2,3,4,5)      =     -0.229180     0.000000     0.007456    -0.221724
	   59 D(2,3,4,10)     =    179.775526    -0.000000     0.000155   179.775681
	   60 D(3,2,1,6)      =     -0.240308     0.000000     0.010749    -0.229559
	   61 D(3,2,1,7)      =    179.719488     0.000000     0.044187   179.763675
	   62 D(3,4,5,6)      =     -0.225158    -0.000000    -0.007290    -0.232448
	   63 D(3,4,5,11)     =    179.143931    -0.000000    -0.006316   179.137616
	   64 D(4,3,2,8)      =    177.371962     0.000000     0.013733   177.385695
	   65 D(4,5,6,12)     =    177.375148    -0.000000    -0.002209   177.372939
	   66 D(5,4,3,9)      =    179.138688     0.000000     0.010242   179.148930
	   67 D(5,6,1,7)      =    179.830368    -0.000000    -0.044032   179.786335
	   68 D(6,1,2,8)      =   -177.130172    -0.000000    -0.012491  -177.142663
	   69 D(6,1,7,13)     =     36.646138     0.000000     0.011045    36.657183
	   70 D(6,1,7,14)     =   -143.491982    -0.000000    -0.019526  -143.511508
	   71 D(6,5,4,10)     =    179.770136     0.000000     0.000010   179.770146
	   72 D(7,1,2,8)      =      2.829625     0.000000     0.020947     2.850572
	   73 D(7,1,6,12)     =      2.920366    -0.000000    -0.033101     2.887265
	   74 D(8,2,3,9)      =     -1.998983     0.000000     0.010966    -1.988017
	   75 D(9,3,4,10)     =     -0.856606     0.000000     0.002942    -0.853665
	   76 D(10,4,5,11)    =     -0.860775     0.000000     0.000985    -0.859790
	   77 D(11,5,6,12)    =     -1.996990    -0.000000    -0.003182    -2.000173
	   78 D(13,7,14,15)   =      6.032320     0.000000     0.034267     6.066587
	   79 D(13,7,14,16)   =   -169.423089     0.000000     0.021713  -169.401376
	   80 D(14,7,13,17)   =   -169.861550     0.000000     0.030633  -169.830917
	   81 D(14,7,13,18)   =      6.497023     0.000000    -0.011880     6.485143
	 ---------------------------------------------------------------------------
	Successfully symmetrized geometry.

  ==> Convergence Check <==

  Measures of convergence in internal coordinates in au.
  Criteria marked as inactive (o), active & met (*), and active & unmet ( ).
  ---------------------------------------------------------------------------------------------
   Step     Total Energy     Delta E     MAX Force     RMS Force      MAX Disp      RMS Disp   
  ---------------------------------------------------------------------------------------------
    Convergence Criteria    1.00e-06 *    3.00e-04 *             o    1.20e-03 *             o
  ---------------------------------------------------------------------------------------------
      3    -381.47050710   -1.16e-06      5.40e-05 *    1.23e-05 o    1.13e-03 *    2.90e-04 o  ~
  ---------------------------------------------------------------------------------------------


  **** Optimization is complete! (in 3 steps) ****

  ==> Optimization Summary <==

  Measures of convergence in internal coordinates in au.
  --------------------------------------------------------------------------------------------------------------- ~
   Step         Total Energy             Delta E       MAX Force       RMS Force        MAX Disp        RMS Disp  ~
  --------------------------------------------------------------------------------------------------------------- ~
      1    -381.470503166038   -381.470503166038      0.00025362      0.00005030      0.01262490      0.00209901  ~
      2    -381.470505934027     -0.000002767988      0.00013602      0.00004067      0.00813915      0.00127182  ~
      3    -381.470507095457     -0.000001161430      0.00005396      0.00001228      0.00113240      0.00029021  ~
  --------------------------------------------------------------------------------------------------------------- ~

	Writing optimization data to binary file.
	Final energy is   -381.4705070954569
	Final (previous) structure:
	Cartesian Geometry (in Angstrom)
	    C     0.0025127155  -0.0016454701  -0.1915869689
	    C     0.0404191181   1.2223808088   0.5020818903
	    C     0.0224696784   1.2259312776   1.8932986592
	    C    -0.0232915003   0.0180227597   2.5961310966
	    C    -0.0561456549  -1.1997397219   1.9097203118
	    C    -0.0481543291  -1.2157425933   0.5185349372
	    C     0.0149654582  -0.0117290023  -1.6585745700
	    H     0.0327443397   2.1640353122  -0.0396298517
	    H     0.0337819779   2.1694523457   2.4292041443
	    H    -0.0334553990   0.0257010931   3.6817090510
	    H    -0.0776232301  -2.1355916847   2.4586032349
	    H    -0.0305891246  -2.1650474342  -0.0095253094
	    N    -0.7007796490  -0.9152642533  -2.3218709029
	    N     0.7398404911   0.8844666839  -2.3221840310
	    H     0.7113353557   0.9776772824  -3.3308054634
	    H     1.4038668361   1.4634001898  -1.8250090747
	    H    -1.3669005969  -1.4934090175  -1.8265606861
	    H    -0.6535909805  -1.0245506914  -3.3281969396
	Saving final (previous) structure.
			--------------------------
			 OPTKING Finished Execution 
			--------------------------

    Final optimized geometry and variables:
    Molecular point group: c1
    Full point group: C1

    Geometry (in Angstrom), charge = 1, multiplicity = 1:

    C            0.002512715475    -0.001645470110    -0.191586968916
    C            0.040419118052     1.222380808816     0.502081890278
    C            0.022469678398     1.225931277553     1.893298659159
    C           -0.023291500318     0.018022759686     2.596131096614
    C           -0.056145654941    -1.199739721946     1.909720311797
    C           -0.048154329052    -1.215742593264     0.518534937213
    C            0.014965458240    -0.011729002331    -1.658574570023
    H            0.032744339707     2.164035312249    -0.039629851675
    H            0.033781977921     2.169452345704     2.429204144272
    H           -0.033455398990     0.025701093136     3.681709050964
    H           -0.077623230090    -2.135591684733     2.458603234914
    H           -0.030589124552    -2.165047434171    -0.009525309414
    N           -0.700779649039    -0.915264253265    -2.321870902874
    N            0.739840491090     0.884466683892    -2.322184030982
    H            0.711335355697     0.977677282351    -3.330805463377
    H            1.403866836102     1.463400189772    -1.825009074718
    H           -1.366900596900    -1.493409017470    -1.826560686093
    H           -0.653590980544    -1.024550691357    -3.328196939643

	Cleaning optimization helper files.


Properties will be evaluated at   0.000000,   0.000000,   0.000000 Bohr

Properties computed using the  density matrix

  Nuclear Dipole Moment: (a.u.)
     X:     0.0182      Y:    -0.0171      Z:    -1.6648

  Electronic Dipole Moment: (a.u.)
     X:     0.0061      Y:    -0.0035      Z:    -0.6172

  Dipole Moment: (a.u.)
     X:     0.0244      Y:    -0.0206      Z:    -2.2820     Total:     2.2822

  Dipole Moment: (Debye)
     X:     0.0619      Y:    -0.0523      Z:    -5.8003     Total:     5.8008

  Quadrupole Moment: (Debye Ang)
    XX:   -49.3453     YY:   -38.0403     ZZ:   -13.1016
    XY:     6.5367     XZ:    -0.3950     YZ:     0.2543

  Traceless Quadrupole Moment: (Debye Ang)
    XX:   -15.8496     YY:    -4.5446     ZZ:    20.3941
    XY:     6.5367     XZ:    -0.3950     YZ:     0.2543

  Mulliken Charges: (a.u.)
   Center  Symbol    Alpha    Beta     Spin     Total
       1     C     2.95710  2.95710  0.00000  0.08580
       2     C     3.08203  3.08203  0.00000 -0.16406
       3     C     3.06248  3.06248  0.00000 -0.12496
       4     C     3.05149  3.05149  0.00000 -0.10297
       5     C     3.06249  3.06249  0.00000 -0.12497
       6     C     3.08220  3.08220  0.00000 -0.16440
       7     C     2.72186  2.72186  0.00000  0.55627
       8     H     0.41418  0.41418  0.00000  0.17163
       9     H     0.40545  0.40545  0.00000  0.18911
      10     H     0.40390  0.40390  0.00000  0.19221
      11     H     0.40545  0.40545  0.00000  0.18910
      12     H     0.41430  0.41430  0.00000  0.17141
      13     N     3.86317  3.86317  0.00000 -0.72635
      14     N     3.86330  3.86330  0.00000 -0.72660
      15     H     0.30569  0.30569  0.00000  0.38863
      16     H     0.29963  0.29963  0.00000  0.40073
      17     H     0.29962  0.29962  0.00000  0.40077
      18     H     0.30567  0.30567  0.00000  0.38866

   Total alpha = 32.00000, Total beta = 32.00000, Total charge =  1.00000


*** Psi4 exiting successfully. Buy a developer a beer!
