    -----------------------------------------------------------------------
          Psi4: An Open-Source Ab Initio Electronic Structure Package
                              Psi4 (no tag) Driver

                          Git: Rev {detached?}  

    J. M. Turney, A. C. Simmonett, R. M. Parrish, E. G. Hohenstein,
    F. A. Evangelista, J. T. Fermann, B. J. Mintz, L. A. Burns, J. J. Wilke,
    M. L. Abrams, N. J. Russ, M. L. Leininger, C. L. Janssen, E. T. Seidl,
    W. D. Allen, H. F. Schaefer, R. A. King, E. F. Valeev, C. D. Sherrill,
    and T. D. Crawford, WIREs Comput. Mol. Sci. 2, 556-565 (2012)
    (doi: 10.1002/wcms.93)

                         Additional Contributions by
    A. E. DePrince, M. Saitow, U. Bozkaya, A. Yu. Sokolov
    -----------------------------------------------------------------------


    Psi4 started on: Tue Jul  5 16:50:29 2016

    Process ID:   6034
    PSI4DATADIR: /export131/home/mjharvey/miniconda3/share
    Memory level set to 256.000 MB

  ==> Input File <==

--------------------------------------------------------------------------
set {
	reference rhf
	basis 6-31G*
}


set_num_threads( 1 )
memory 2 gb

molecule MOL {
0 1

H	 -3.892951	 0.981613	 -0.358725
C	 -3.196921	 0.361773	 0.172313
C	 -2.076860	 -0.007332	 -0.404944
H	 -3.439953	 0.057760	 1.173024
O	 -1.180634	 -0.819263	 0.215062
H	 -1.811520	 0.292194	 -1.403480
C	 0.051604	 -1.018856	 -0.387932
C	 1.043764	 0.054862	 -0.001873
H	 -0.017620	 -1.041351	 -1.469781
H	 0.437898	 -1.966374	 -0.042284
F	 0.990529	 0.254188	 1.307035
F	 2.284001	 -0.290991	 -0.305236
F	 0.789209	 1.201364	 -0.597797

	symmetry c1
}
set optking {
	frozen_dihedral = ("
		3 5 7 9,
		6 3 2 1,
		6 3 5 7
	")
}

ee = energy('scf')
oeprop('DIPOLE', 'QUADRUPOLE', 'MULLIKEN_CHARGES')
f=open( 'psi4out.xyz', 'w' )
f.write( "13  " )
f.write( str(ee) + "\n" )
f.write( MOL.save_string_xyz() )
f.close()
--------------------------------------------------------------------------

  Memory set to   2.000 GiB by Python script.

*** tstart() called on cx1-3-14-4.cx1.hpc.ic.ac.uk
*** at Tue Jul  5 16:50:29 2016


         ---------------------------------------------------------
                                   SCF
            by Justin Turney, Rob Parrish, and Andy Simmonett
                              RHF Reference
                        1 Threads,   2000 MiB Core
         ---------------------------------------------------------

  ==> Geometry <==

    Molecular point group: c1
    Full point group: C1

    Geometry (in Angstrom), charge = 0, multiplicity = 1:

       Center              X                  Y                   Z               Mass       
    ------------   -----------------  -----------------  -----------------  -----------------
           H         -3.888087393871     0.981479318883    -0.370852112686     1.007825032070
           C         -3.192057393871     0.361639318883     0.160185887314    12.000000000000
           C         -2.071996393871    -0.007465681117    -0.417071112686    12.000000000000
           H         -3.435089393871     0.057626318883     1.160896887314     1.007825032070
           O         -1.175770393871    -0.819396681117     0.202934887314    15.994914619560
           H         -1.806656393871     0.292060318883    -1.415607112686     1.007825032070
           C          0.056467606129    -1.018989681117    -0.400059112686    12.000000000000
           C          1.048627606129     0.054728318883    -0.014000112686    12.000000000000
           H         -0.012756393871    -1.041484681117    -1.481908112686     1.007825032070
           H          0.442761606129    -1.966507681117    -0.054411112686     1.007825032070
           F          0.995392606129     0.254054318883     1.294907887314    18.998403224000
           F          2.288864606129    -0.291124681117    -0.317363112686    18.998403224000
           F          0.794072606129     1.201230318883    -0.609924112686    18.998403224000

  Running in c1 symmetry.

  Rotational constants: A =      0.14984  B =      0.04001  C =      0.03906 [cm^-1]
  Rotational constants: A =   4491.96535  B =   1199.43803  C =   1170.89081 [MHz]
  Nuclear repulsion =  413.786331960295342

  Charge       = 0
  Multiplicity = 1
  Electrons    = 64
  Nalpha       = 32
  Nbeta        = 32

  ==> Algorithm <==

  SCF Algorithm Type is DF.
  DIIS enabled.
  MOM disabled.
  Fractional occupation disabled.
  Guess Type is CORE.
  Energy threshold   = 1.00e-06
  Density threshold  = 1.00e-06
  Integral threshold = 0.00e+00

  ==> Primary Basis <==

  Basis Set: 6-31G*
    Number of shells: 58
    Number of basis function: 130
    Number of Cartesian functions: 130
    Spherical Harmonics?: false
    Max angular momentum: 2

  ==> Pre-Iterations <==

   -------------------------------------------------------
    Irrep   Nso     Nmo     Nalpha   Nbeta   Ndocc  Nsocc
   -------------------------------------------------------
     A        130     130       0       0       0       0
   -------------------------------------------------------
    Total     130     130      32      32      32       0
   -------------------------------------------------------

 OEINTS: Overlap, kinetic, potential, dipole, and quadrupole integrals
         stored in file 35.

  ==> Integral Setup <==

  ==> DFJK: Density-Fitted J/K Matrices <==

    J tasked:                  Yes
    K tasked:                  Yes
    wK tasked:                  No
    OpenMP threads:              1
    Integrals threads:           1
    Memory (MB):              1430
    Algorithm:                Core
    Integral Cache:           NONE
    Schwarz Cutoff:          1E-12
    Fitting Condition:       1E-12

   => Auxiliary Basis Set <=

  Basis Set: 
    Number of shells: 237
    Number of basis function: 773
    Number of Cartesian functions: 773
    Spherical Harmonics?: false
    Max angular momentum: 3

  Minimum eigenvalue in the overlap matrix is 1.8754157675E-03.
  Using Symmetric Orthogonalization.
  SCF Guess: Core (One-Electron) Hamiltonian.

  ==> Iterations <==

                           Total Energy        Delta E     RMS |[F,P]|

   @DF-RHF iter   1:  -439.30584090336049   -4.39306e+02   7.42699e-02 
   @DF-RHF iter   2:  -175.69656531888245    2.63609e+02   9.74501e-02 DIIS
   @DF-RHF iter   3:  -490.57079212441670   -3.14874e+02   3.99184e-02 DIIS
   @DF-RHF iter   4:  -401.65677425668298    8.89140e+01   8.07639e-02 DIIS
   @DF-RHF iter   5:  -518.83635658450623   -1.17180e+02   2.22421e-02 DIIS
   @DF-RHF iter   6:  -526.83996258449577   -8.00361e+00   9.91717e-03 DIIS
   @DF-RHF iter   7:  -527.48518465279619   -6.45222e-01   2.36364e-03 DIIS
   @DF-RHF iter   8:  -527.52183183971863   -3.66472e-02   1.08991e-03 DIIS
   @DF-RHF iter   9:  -527.53160632354547   -9.77448e-03   5.12271e-04 DIIS
   @DF-RHF iter  10:  -527.53382619509159   -2.21987e-03   2.49248e-04 DIIS
   @DF-RHF iter  11:  -527.53451831400105   -6.92119e-04   5.15008e-05 DIIS
   @DF-RHF iter  12:  -527.53454867732160   -3.03633e-05   1.77896e-05 DIIS
   @DF-RHF iter  13:  -527.53455464898605   -5.97166e-06   7.89293e-06 DIIS
   @DF-RHF iter  14:  -527.53455560494672   -9.55961e-07   1.98959e-06 DIIS
   @DF-RHF iter  15:  -527.53455570934682   -1.04400e-07   6.49794e-07 DIIS

  ==> Post-Iterations <==

    Orbital Energies (a.u.)
    -----------------------

    Doubly Occupied:                                                      

       1A    -26.346274     2A    -26.346014     3A    -26.334395  
       4A    -20.608462     5A    -11.502699     6A    -11.318606  
       7A    -11.299554     8A    -11.216290     9A     -1.741489  
      10A     -1.642521    11A     -1.633944    12A     -1.438138  
      13A     -1.084095    14A     -1.016684    15A     -0.924839  
      16A     -0.834987    17A     -0.831056    18A     -0.821349  
      19A     -0.792829    20A     -0.719731    21A     -0.712289  
      22A     -0.697168    23A     -0.675862    24A     -0.660416  
      25A     -0.654288    26A     -0.642143    27A     -0.630724  
      28A     -0.584224    29A     -0.563587    30A     -0.523639  
      31A     -0.514008    32A     -0.351873  

    Virtual:                                                              

      33A      0.190138    34A      0.235105    35A      0.272588  
      36A      0.278663    37A      0.294555    38A      0.315200  
      39A      0.343880    40A      0.408340    41A      0.416730  
      42A      0.453776    43A      0.476058    44A      0.507114  
      45A      0.518077    46A      0.689047    47A      0.699743  
      48A      0.709659    49A      0.740775    50A      0.756463  
      51A      0.771667    52A      0.807412    53A      0.833513  
      54A      0.879386    55A      0.907413    56A      0.925562  
      57A      0.982675    58A      1.081878    59A      1.100052  
      60A      1.131645    61A      1.152521    62A      1.161499  
      63A      1.203476    64A      1.237372    65A      1.265957  
      66A      1.328203    67A      1.354916    68A      1.368596  
      69A      1.406366    70A      1.429557    71A      1.452145  
      72A      1.473844    73A      1.593377    74A      1.611859  
      75A      1.627532    76A      1.634502    77A      1.665414  
      78A      1.677690    79A      1.684083    80A      1.709644  
      81A      1.749347    82A      1.782016    83A      1.871301  
      84A      1.906999    85A      1.934762    86A      1.979987  
      87A      2.014132    88A      2.031704    89A      2.112323  
      90A      2.126261    91A      2.138993    92A      2.150335  
      93A      2.231740    94A      2.241530    95A      2.290559  
      96A      2.292558    97A      2.318125    98A      2.318639  
      99A      2.370449   100A      2.393029   101A      2.412977  
     102A      2.418953   103A      2.494889   104A      2.521545  
     105A      2.559464   106A      2.591387   107A      2.631480  
     108A      2.672407   109A      2.760936   110A      2.815852  
     111A      2.866531   112A      2.893511   113A      2.991046  
     114A      3.094836   115A      3.156951   116A      3.176127  
     117A      3.220005   118A      3.292488   119A      3.417474  
     120A      3.422221   121A      3.455026   122A      3.472623  
     123A      4.353772   124A      4.544455   125A      4.624723  
     126A      4.699224   127A      4.887793   128A      4.937806  
     129A      5.142921   130A      5.735519  

    Final Occupation by Irrep:
              A 
    DOCC [    32 ]

  Energy converged.

  @DF-RHF Final Energy:  -527.53455570934682

   => Energetics <=

    Nuclear Repulsion Energy =            413.7863319602953425
    One-Electron Energy =               -1551.3132635917841071
    Two-Electron Energy =                 609.9923759221410364
    DFT Exchange-Correlation Energy =       0.0000000000000000
    Empirical Dispersion Energy =           0.0000000000000000
    PCM Polarization Energy =               0.0000000000000000
    EFP Energy =                            0.0000000000000000
    Total Energy =                       -527.5345557093478419

    Alert: EFP and PCM quantities not currently incorporated into SCF psivars.

Properties will be evaluated at   0.000000,   0.000000,   0.000000 Bohr
  ==> Properties <==


Properties computed using the SCF density matrix

  Nuclear Dipole Moment: (a.u.)
     X:   -12.0088      Y:    -2.6741      Z:    -2.3725

  Electronic Dipole Moment: (a.u.)
     X:    11.7688      Y:     2.2893      Z:     1.6301

  Dipole Moment: (a.u.)
     X:    -0.2400      Y:    -0.3849      Z:    -0.7424     Total:     0.8700

  Dipole Moment: (Debye)
     X:    -0.6100      Y:    -0.9782      Z:    -1.8870     Total:     2.2113


  Saving occupied orbitals to File 180.

*** tstop() called on cx1-3-14-4.cx1.hpc.ic.ac.uk at Tue Jul  5 16:50:39 2016
Module time:
	user time   =       9.49 seconds =       0.16 minutes
	system time =       0.06 seconds =       0.00 minutes
	total time  =         10 seconds =       0.17 minutes
Total time:
	user time   =       9.49 seconds =       0.16 minutes
	system time =       0.06 seconds =       0.00 minutes
	total time  =         10 seconds =       0.17 minutes


Properties will be evaluated at   0.000000,   0.000000,   0.000000 Bohr

Properties computed using the  density matrix

  Nuclear Dipole Moment: (a.u.)
     X:   -12.0088      Y:    -2.6741      Z:    -2.3725

  Electronic Dipole Moment: (a.u.)
     X:    11.7688      Y:     2.2893      Z:     1.6301

  Dipole Moment: (a.u.)
     X:    -0.2400      Y:    -0.3849      Z:    -0.7424     Total:     0.8700

  Dipole Moment: (Debye)
     X:    -0.6100      Y:    -0.9782      Z:    -1.8870     Total:     2.2113

  Quadrupole Moment: (Debye Ang)
    XX:   -45.7288     YY:   -44.3420     ZZ:   -43.3779
    XY:    -3.1682     XZ:     0.8466     YZ:     0.5412

  Traceless Quadrupole Moment: (Debye Ang)
    XX:    -1.2459     YY:     0.1409     ZZ:     1.1050
    XY:    -3.1682     XZ:     0.8466     YZ:     0.5412

  Mulliken Charges: (a.u.)
   Center  Symbol    Alpha    Beta     Spin     Total
       1     H     0.40699  0.40699  0.00000  0.18603
       2     C     3.23458  3.23458  0.00000 -0.46915
       3     C     2.89768  2.89768  0.00000  0.20464
       4     H     0.40140  0.40140  0.00000  0.19719
       5     O     4.29944  4.29944  0.00000 -0.59889
       6     H     0.40635  0.40635  0.00000  0.18730
       7     C     3.06454  3.06454  0.00000 -0.12909
       8     C     2.45627  2.45627  0.00000  1.08745
       9     H     0.40649  0.40649  0.00000  0.18703
      10     H     0.38968  0.38968  0.00000  0.22065
      11     F     4.67869  4.67869  0.00000 -0.35738
      12     F     4.68062  4.68062  0.00000 -0.36123
      13     F     4.67728  4.67728  0.00000 -0.35455

   Total alpha = 32.00000, Total beta = 32.00000, Total charge =  0.00000


*** PSI4 exiting successfully. Buy a developer a beer!
