    -----------------------------------------------------------------------
          Psi4: An Open-Source Ab Initio Electronic Structure Package
                              Psi4 (no tag) Driver

                          Git: Rev {detached?}  

    J. M. Turney, A. C. Simmonett, R. M. Parrish, E. G. Hohenstein,
    F. A. Evangelista, J. T. Fermann, B. J. Mintz, L. A. Burns, J. J. Wilke,
    M. L. Abrams, N. J. Russ, M. L. Leininger, C. L. Janssen, E. T. Seidl,
    W. D. Allen, H. F. Schaefer, R. A. King, E. F. Valeev, C. D. Sherrill,
    and T. D. Crawford, WIREs Comput. Mol. Sci. 2, 556-565 (2012)
    (doi: 10.1002/wcms.93)

                         Additional Contributions by
    A. E. DePrince, M. Saitow, U. Bozkaya, A. Yu. Sokolov
    -----------------------------------------------------------------------


    Psi4 started on: Tue Jul 26 13:33:41 2016

    Process ID:  12124
    PSI4DATADIR: /export131/home/mjharvey/miniconda3/share
    Memory level set to 256.000 MB

  ==> Input File <==

--------------------------------------------------------------------------
set {
	reference rhf
	basis 6-31G*
}


set_num_threads( 24 )
memory 2 gb

molecule MOL {
0 1

H	 -0.367445	 -1.288886	 -0.339246
C	 -1.255820	 -1.405603	 0.250622
C	 -1.224516	 -1.150904	 1.538115
H	 -2.156178	 -1.732486	 -0.236270
O	 -0.058873	 -1.105489	 2.235090
H	 -2.111065	 -0.945215	 2.110786
C	 1.122280	 -0.938099	 1.529193
C	 1.575007	 -2.228300	 0.883472
H	 1.928985	 -0.573371	 2.155427
H	 0.937284	 -0.221590	 0.743120
F	 0.516023	 -2.913006	 0.476399
F	 2.338925	 -2.006426	 -0.172989
F	 2.253173	 -2.987911	 1.717973

	symmetry c1
}
set optking {
	frozen_dihedral = ("
		11 8 7 9,
		3 5 7 9,
		6 3 2 1
	")
}

ee = energy('scf')
oeprop('DIPOLE', 'QUADRUPOLE', 'MULLIKEN_CHARGES')
f=open( 'psi4out.xyz', 'w' )
f.write( "13  " )
f.write( str(ee) + "\n" )
f.write( MOL.save_string_xyz() )
f.close()
--------------------------------------------------------------------------

  Memory set to   2.000 GiB by Python script.

*** tstart() called on cx1b.hpc.ic.ac.uk
*** at Tue Jul 26 13:33:41 2016


         ---------------------------------------------------------
                                   SCF
            by Justin Turney, Rob Parrish, and Andy Simmonett
                              RHF Reference
                       24 Threads,   2000 MiB Core
         ---------------------------------------------------------

  ==> Geometry <==

    Molecular point group: c1
    Full point group: C1

    Geometry (in Angstrom), charge = 0, multiplicity = 1:

       Center              X                  Y                   Z               Mass       
    ------------   -----------------  -----------------  -----------------  -----------------
           H         -1.136517491923     0.626405674178    -1.363123070938     1.007825032070
           C         -2.024892491923     0.509688674178    -0.773255070938    12.000000000000
           C         -1.993588491923     0.764387674178     0.514237929062    12.000000000000
           H         -2.925250491923     0.182805674178    -1.260147070938     1.007825032070
           O         -0.827945491923     0.809802674178     1.211212929062    15.994914619560
           H         -2.880137491923     0.970076674178     1.086908929062     1.007825032070
           C          0.353207508077     0.977192674178     0.505315929062    12.000000000000
           C          0.805934508077    -0.313008325822    -0.140405070938    12.000000000000
           H          1.159912508077     1.341920674178     1.131549929062     1.007825032070
           H          0.168211508077     1.693701674178    -0.280757070938     1.007825032070
           F         -0.253049491923    -0.997714325822    -0.547478070938    18.998403224000
           F          1.569852508077    -0.091134325822    -1.196866070938    18.998403224000
           F          1.484100508077    -1.072619325822     0.694095929062    18.998403224000

  Running in c1 symmetry.

  Rotational constants: A =      0.12659  B =      0.05508  C =      0.04884 [cm^-1]
  Rotational constants: A =   3794.97256  B =   1651.36572  C =   1464.24979 [MHz]
  Nuclear repulsion =  431.068427195977051

  Charge       = 0
  Multiplicity = 1
  Electrons    = 64
  Nalpha       = 32
  Nbeta        = 32

  ==> Algorithm <==

  SCF Algorithm Type is DF.
  DIIS enabled.
  MOM disabled.
  Fractional occupation disabled.
  Guess Type is CORE.
  Energy threshold   = 1.00e-06
  Density threshold  = 1.00e-06
  Integral threshold = 0.00e+00

  ==> Primary Basis <==

  Basis Set: 6-31G*
    Number of shells: 58
    Number of basis function: 130
    Number of Cartesian functions: 130
    Spherical Harmonics?: false
    Max angular momentum: 2

  ==> Pre-Iterations <==

   -------------------------------------------------------
    Irrep   Nso     Nmo     Nalpha   Nbeta   Ndocc  Nsocc
   -------------------------------------------------------
     A        130     130       0       0       0       0
   -------------------------------------------------------
    Total     130     130      32      32      32       0
   -------------------------------------------------------

 OEINTS: Overlap, kinetic, potential, dipole, and quadrupole integrals
         stored in file 35.

  ==> Integral Setup <==

  ==> DFJK: Density-Fitted J/K Matrices <==

    J tasked:                  Yes
    K tasked:                  Yes
    wK tasked:                  No
    OpenMP threads:             24
    Integrals threads:          24
    Memory (MB):              1430
    Algorithm:                Core
    Integral Cache:           NONE
    Schwarz Cutoff:          1E-12
    Fitting Condition:       1E-12

   => Auxiliary Basis Set <=

  Basis Set: 
    Number of shells: 237
    Number of basis function: 773
    Number of Cartesian functions: 773
    Spherical Harmonics?: false
    Max angular momentum: 3

  Minimum eigenvalue in the overlap matrix is 1.6387072631E-03.
  Using Symmetric Orthogonalization.
  SCF Guess: Core (One-Electron) Hamiltonian.

  ==> Iterations <==

                           Total Energy        Delta E     RMS |[F,P]|

   @DF-RHF iter   1:  -443.95822541847804   -4.43958e+02   7.49467e-02 
   @DF-RHF iter   2:  -230.68298407574196    2.13275e+02   1.03237e-01 DIIS
   @DF-RHF iter   3:  -494.10195437315895   -2.63419e+02   4.00895e-02 DIIS
   @DF-RHF iter   4:  -428.49567158538468    6.56063e+01   6.70669e-02 DIIS
   @DF-RHF iter   5:  -520.01169881765634   -9.15160e+01   2.27416e-02 DIIS
   @DF-RHF iter   6:  -526.95406249596442   -6.94236e+00   8.64870e-03 DIIS
   @DF-RHF iter   7:  -527.47165582873834   -5.17593e-01   1.77714e-03 DIIS
   @DF-RHF iter   8:  -527.49421744255949   -2.25616e-02   5.70286e-04 DIIS
   @DF-RHF iter   9:  -527.49700153459264   -2.78409e-03   2.53335e-04 DIIS
   @DF-RHF iter  10:  -527.49749715186897   -4.95617e-04   1.38999e-04 DIIS
   @DF-RHF iter  11:  -527.49771813212089   -2.20980e-04   3.98796e-05 DIIS
   @DF-RHF iter  12:  -527.49773842528452   -2.02932e-05   1.29964e-05 DIIS
   @DF-RHF iter  13:  -527.49774105278186   -2.62750e-06   3.83127e-06 DIIS
   @DF-RHF iter  14:  -527.49774140112788   -3.48346e-07   1.23064e-06 DIIS
   @DF-RHF iter  15:  -527.49774143932075   -3.81929e-08   3.90555e-07 DIIS

  ==> Post-Iterations <==

    Orbital Energies (a.u.)
    -----------------------

    Doubly Occupied:                                                      

       1A    -26.346042     2A    -26.341037     3A    -26.332023  
       4A    -20.604000     5A    -11.501524     6A    -11.314404  
       7A    -11.291450     8A    -11.213055     9A     -1.741241  
      10A     -1.640367    11A     -1.636488    12A     -1.434804  
      13A     -1.074980    14A     -1.023171    15A     -0.934226  
      16A     -0.832059    17A     -0.829523    18A     -0.822143  
      19A     -0.778010    20A     -0.728724    21A     -0.707906  
      22A     -0.702676    23A     -0.674661    24A     -0.658412  
      25A     -0.654060    26A     -0.640432    27A     -0.626303  
      28A     -0.599316    29A     -0.547789    30A     -0.521122  
      31A     -0.502712    32A     -0.341539  

    Virtual:                                                              

      33A      0.188996    34A      0.251206    35A      0.260635  
      36A      0.282868    37A      0.288616    38A      0.318504  
      39A      0.355711    40A      0.417054    41A      0.433395  
      42A      0.460042    43A      0.478071    44A      0.503353  
      45A      0.542634    46A      0.691878    47A      0.706921  
      48A      0.735164    49A      0.768980    50A      0.773816  
      51A      0.785632    52A      0.821767    53A      0.839426  
      54A      0.873052    55A      0.893264    56A      0.945720  
      57A      0.963209    58A      1.081254    59A      1.119170  
      60A      1.128250    61A      1.156385    62A      1.188247  
      63A      1.231131    64A      1.244271    65A      1.282840  
      66A      1.310137    67A      1.335635    68A      1.381678  
      69A      1.399444    70A      1.427742    71A      1.448574  
      72A      1.489019    73A      1.580188    74A      1.618786  
      75A      1.638062    76A      1.654368    77A      1.660752  
      78A      1.680832    79A      1.701116    80A      1.753821  
      81A      1.798331    82A      1.841615    83A      1.875218  
      84A      1.918479    85A      1.941535    86A      1.994514  
      87A      2.017858    88A      2.083142    89A      2.126195  
      90A      2.131840    91A      2.147574    92A      2.194833  
      93A      2.253643    94A      2.262353    95A      2.293500  
      96A      2.316895    97A      2.345960    98A      2.355196  
      99A      2.377249   100A      2.410168   101A      2.424696  
     102A      2.441938   103A      2.490231   104A      2.525717  
     105A      2.594743   106A      2.626559   107A      2.657706  
     108A      2.747839   109A      2.772732   110A      2.846367  
     111A      2.863578   112A      2.952241   113A      3.025623  
     114A      3.061103   115A      3.144776   116A      3.174491  
     117A      3.203237   118A      3.334060   119A      3.416690  
     120A      3.436951   121A      3.449333   122A      3.468008  
     123A      4.386807   124A      4.558105   125A      4.649911  
     126A      4.760159   127A      4.905174   128A      5.022590  
     129A      5.225843   130A      5.998265  

    Final Occupation by Irrep:
              A 
    DOCC [    32 ]

  Energy converged.

  @DF-RHF Final Energy:  -527.49774143932075

   => Energetics <=

    Nuclear Repulsion Energy =            431.0684271959770513
    One-Electron Energy =               -1585.9399462155986384
    Two-Electron Energy =                 627.3737775803008390
    DFT Exchange-Correlation Energy =       0.0000000000000000
    Empirical Dispersion Energy =           0.0000000000000000
    PCM Polarization Energy =               0.0000000000000000
    EFP Energy =                            0.0000000000000000
    Total Energy =                       -527.4977414393208619

    Alert: EFP and PCM quantities not currently incorporated into SCF psivars.

Properties will be evaluated at   0.000000,   0.000000,   0.000000 Bohr
  ==> Properties <==


Properties computed using the SCF density matrix

  Nuclear Dipole Moment: (a.u.)
     X:    -7.9090      Y:     6.5568      Z:     0.3539

  Electronic Dipole Moment: (a.u.)
     X:     7.7642      Y:    -5.8677      Z:    -0.4480

  Dipole Moment: (a.u.)
     X:    -0.1447      Y:     0.6890      Z:    -0.0941     Total:     0.7103

  Dipole Moment: (Debye)
     X:    -0.3679      Y:     1.7513      Z:    -0.2392     Total:     1.8054


  Saving occupied orbitals to File 180.

*** tstop() called on cx1b.hpc.ic.ac.uk at Tue Jul 26 13:33:47 2016
Module time:
	user time   =      65.80 seconds =       1.10 minutes
	system time =       2.47 seconds =       0.04 minutes
	total time  =          6 seconds =       0.10 minutes
Total time:
	user time   =      65.80 seconds =       1.10 minutes
	system time =       2.47 seconds =       0.04 minutes
	total time  =          6 seconds =       0.10 minutes


Properties will be evaluated at   0.000000,   0.000000,   0.000000 Bohr

Properties computed using the  density matrix

  Nuclear Dipole Moment: (a.u.)
     X:    -7.9090      Y:     6.5568      Z:     0.3539

  Electronic Dipole Moment: (a.u.)
     X:     7.7642      Y:    -5.8677      Z:    -0.4480

  Dipole Moment: (a.u.)
     X:    -0.1447      Y:     0.6890      Z:    -0.0941     Total:     0.7103

  Dipole Moment: (Debye)
     X:    -0.3679      Y:     1.7513      Z:    -0.2392     Total:     1.8054

  Quadrupole Moment: (Debye Ang)
    XX:   -41.6315     YY:   -44.8487     ZZ:   -46.1932
    XY:     1.6492     XZ:     1.0989     YZ:     0.5327

  Traceless Quadrupole Moment: (Debye Ang)
    XX:     2.5930     YY:    -0.6243     ZZ:    -1.9687
    XY:     1.6492     XZ:     1.0989     YZ:     0.5327

  Mulliken Charges: (a.u.)
   Center  Symbol    Alpha    Beta     Spin     Total
       1     H     0.41092  0.41092  0.00000  0.17815
       2     C     3.22927  3.22927  0.00000 -0.45853
       3     C     2.90815  2.90815  0.00000  0.18371
       4     H     0.40266  0.40266  0.00000  0.19467
       5     O     4.30406  4.30406  0.00000 -0.60813
       6     H     0.39450  0.39450  0.00000  0.21099
       7     C     3.07724  3.07724  0.00000 -0.15448
       8     C     2.44786  2.44786  0.00000  1.10427
       9     H     0.38763  0.38763  0.00000  0.22475
      10     H     0.40112  0.40112  0.00000  0.19777
      11     F     4.67720  4.67720  0.00000 -0.35441
      12     F     4.68300  4.68300  0.00000 -0.36600
      13     F     4.67638  4.67638  0.00000 -0.35276

   Total alpha = 32.00000, Total beta = 32.00000, Total charge = -0.00000


*** PSI4 exiting successfully. Buy a developer a beer!
