    -----------------------------------------------------------------------
          Psi4: An Open-Source Ab Initio Electronic Structure Package
                              Psi4 (no tag) Driver

                          Git: Rev {detached?}  

    J. M. Turney, A. C. Simmonett, R. M. Parrish, E. G. Hohenstein,
    F. A. Evangelista, J. T. Fermann, B. J. Mintz, L. A. Burns, J. J. Wilke,
    M. L. Abrams, N. J. Russ, M. L. Leininger, C. L. Janssen, E. T. Seidl,
    W. D. Allen, H. F. Schaefer, R. A. King, E. F. Valeev, C. D. Sherrill,
    and T. D. Crawford, WIREs Comput. Mol. Sci. 2, 556-565 (2012)
    (doi: 10.1002/wcms.93)

                         Additional Contributions by
    A. E. DePrince, M. Saitow, U. Bozkaya, A. Yu. Sokolov
    -----------------------------------------------------------------------


    Psi4 started on: Tue Jul  5 16:24:26 2016

    Process ID:  16660
    PSI4DATADIR: /export131/home/mjharvey/miniconda3/share
    Memory level set to 256.000 MB

  ==> Input File <==

--------------------------------------------------------------------------
set {
	reference rhf
	basis 6-31G*
}


set_num_threads( 1 )
memory 2 gb

molecule MOL {
0 1

H	 0.162796	 -1.133917	 -1.759289
N	 -0.635097	 -1.300471	 -1.176961
C	 -0.563778	 -0.502042	 0.037919
H	 -0.633042	 -2.278073	 -0.955497
C	 0.575259	 0.508231	 -0.048326
H	 -0.379745	 -1.178195	 0.867464
H	 -1.495719	 0.022884	 0.263049
C	 1.954651	 -0.143624	 0.035137
H	 0.475158	 1.060484	 -0.977307
H	 0.469181	 1.234488	 0.755973
H	 2.103292	 -0.853109	 -0.774172
H	 2.742821	 0.599562	 -0.030094
H	 2.083613	 -0.679371	 0.971560

	symmetry c1
}
set optking {
	frozen_dihedral = ("
		6 3 5 9
	")
}

ee = energy('scf')
oeprop('DIPOLE', 'QUADRUPOLE', 'MULLIKEN_CHARGES')
f=open( 'psi4out.xyz', 'w' )
f.write( "13  " )
f.write( str(ee) + "\n" )
f.write( MOL.save_string_xyz() )
f.close()
--------------------------------------------------------------------------

  Memory set to   2.000 GiB by Python script.

*** tstart() called on cx1-3-15-3.cx1.hpc.ic.ac.uk
*** at Tue Jul  5 16:24:26 2016


         ---------------------------------------------------------
                                   SCF
            by Justin Turney, Rob Parrish, and Andy Simmonett
                              RHF Reference
                        1 Threads,   2000 MiB Core
         ---------------------------------------------------------

  ==> Geometry <==

    Molecular point group: c1
    Full point group: C1

    Geometry (in Angstrom), charge = 0, multiplicity = 1:

       Center              X                  Y                   Z               Mass       
    ------------   -----------------  -----------------  -----------------  -----------------
           H         -0.180367829914    -0.743045626358    -1.457369441334     1.007825032070
           N         -0.978260829914    -0.909599626358    -0.875041441334    14.003074004780
           C         -0.906941829914    -0.111170626358     0.339838558666    12.000000000000
           H         -0.976205829914    -1.887201626358    -0.653577441334     1.007825032070
           C          0.232095170086     0.899102373642     0.253593558666    12.000000000000
           H         -0.722908829914    -0.787323626358     1.169383558666     1.007825032070
           H         -1.838882829914     0.413755373642     0.564968558666     1.007825032070
           C          1.611487170086     0.247247373642     0.337056558666    12.000000000000
           H          0.131994170086     1.451355373642    -0.675387441334     1.007825032070
           H          0.126017170086     1.625359373642     1.057892558666     1.007825032070
           H          1.760128170086    -0.462237626358    -0.472252441334     1.007825032070
           H          2.399657170086     0.990433373642     0.271825558666     1.007825032070
           H          1.740449170086    -0.288499626358     1.273479558666     1.007825032070

  Running in c1 symmetry.

  Rotational constants: A =      0.46477  B =      0.16735  C =      0.14350 [cm^-1]
  Rotational constants: A =  13933.42331  B =   5016.94086  C =   4302.01220 [MHz]
  Nuclear repulsion =  134.432584459324204

  Charge       = 0
  Multiplicity = 1
  Electrons    = 34
  Nalpha       = 17
  Nbeta        = 17

  ==> Algorithm <==

  SCF Algorithm Type is DF.
  DIIS enabled.
  MOM disabled.
  Fractional occupation disabled.
  Guess Type is CORE.
  Energy threshold   = 1.00e-06
  Density threshold  = 1.00e-06
  Integral threshold = 0.00e+00

  ==> Primary Basis <==

  Basis Set: 6-31G*
    Number of shells: 42
    Number of basis function: 78
    Number of Cartesian functions: 78
    Spherical Harmonics?: false
    Max angular momentum: 2

  ==> Pre-Iterations <==

   -------------------------------------------------------
    Irrep   Nso     Nmo     Nalpha   Nbeta   Ndocc  Nsocc
   -------------------------------------------------------
     A         78      78       0       0       0       0
   -------------------------------------------------------
    Total      78      78      17      17      17       0
   -------------------------------------------------------

 OEINTS: Overlap, kinetic, potential, dipole, and quadrupole integrals
         stored in file 35.

  ==> Integral Setup <==

  ==> DFJK: Density-Fitted J/K Matrices <==

    J tasked:                  Yes
    K tasked:                  Yes
    wK tasked:                  No
    OpenMP threads:              1
    Integrals threads:           1
    Memory (MB):              1430
    Algorithm:                Core
    Integral Cache:           NONE
    Schwarz Cutoff:          1E-12
    Fitting Condition:       1E-12

   => Auxiliary Basis Set <=

  Basis Set: 
    Number of shells: 177
    Number of basis function: 549
    Number of Cartesian functions: 549
    Spherical Harmonics?: false
    Max angular momentum: 3

  Minimum eigenvalue in the overlap matrix is 5.0406068856E-03.
  Using Symmetric Orthogonalization.
  SCF Guess: Core (One-Electron) Hamiltonian.

  ==> Iterations <==

                           Total Energy        Delta E     RMS |[F,P]|

   @DF-RHF iter   1:  -134.76193659171778   -1.34762e+02   8.60849e-02 
   @DF-RHF iter   2:  -102.96027573652609    3.18017e+01   8.00977e-02 DIIS
   @DF-RHF iter   3:  -149.27556796446609   -4.63153e+01   5.20950e-02 DIIS
   @DF-RHF iter   4:  -157.05534533684281   -7.77978e+00   5.44446e-02 DIIS
   @DF-RHF iter   5:  -173.11524049778430   -1.60599e+01   7.14132e-03 DIIS
   @DF-RHF iter   6:  -173.25112835729956   -1.35888e-01   2.94350e-03 DIIS
   @DF-RHF iter   7:  -173.27398964614937   -2.28613e-02   5.43470e-04 DIIS
   @DF-RHF iter   8:  -173.27522358550979   -1.23394e-03   1.15459e-04 DIIS
   @DF-RHF iter   9:  -173.27528928945318   -6.57039e-05   4.00221e-05 DIIS
   @DF-RHF iter  10:  -173.27529721878923   -7.92934e-06   1.44914e-05 DIIS
   @DF-RHF iter  11:  -173.27529824318830   -1.02440e-06   3.26004e-06 DIIS
   @DF-RHF iter  12:  -173.27529829225492   -4.90666e-08   1.19310e-06 DIIS
   @DF-RHF iter  13:  -173.27529830038188   -8.12696e-09   2.78424e-07 DIIS

  ==> Post-Iterations <==

    Orbital Energies (a.u.)
    -----------------------

    Doubly Occupied:                                                      

       1A    -15.529957     2A    -11.239974     3A    -11.218816  
       4A    -11.214958     5A     -1.179036     6A     -1.035308  
       7A     -0.908945     8A     -0.799880     9A     -0.667451  
      10A     -0.625173    11A     -0.602239    12A     -0.568490  
      13A     -0.545991    14A     -0.494365    15A     -0.483644  
      16A     -0.473135    17A     -0.375602  

    Virtual:                                                              

      18A      0.221190    19A      0.262122    20A      0.268826  
      21A      0.294659    22A      0.314868    23A      0.321660  
      24A      0.336329    25A      0.363732    26A      0.366986  
      27A      0.398355    28A      0.447335    29A      0.479311  
      30A      0.716639    31A      0.729420    32A      0.759838  
      33A      0.785777    34A      0.808714    35A      0.919039  
      36A      0.936286    37A      0.974420    38A      1.018079  
      39A      1.041546    40A      1.106189    41A      1.134434  
      42A      1.148872    43A      1.158404    44A      1.181197  
      45A      1.196051    46A      1.218299    47A      1.232828  
      48A      1.244026    49A      1.251765    50A      1.279915  
      51A      1.303868    52A      1.481783    53A      1.669912  
      54A      1.704416    55A      1.784085    56A      1.886312  
      57A      1.975638    58A      2.085963    59A      2.185809  
      60A      2.250735    61A      2.283515    62A      2.340696  
      63A      2.362040    64A      2.441878    65A      2.529762  
      66A      2.548847    67A      2.627964    68A      2.693660  
      69A      2.725106    70A      2.793405    71A      2.892135  
      72A      2.972371    73A      3.019594    74A      3.113123  
      75A      4.217237    76A      4.593408    77A      4.777519  
      78A      4.921766  

    Final Occupation by Irrep:
              A 
    DOCC [    17 ]

  Energy converged.

  @DF-RHF Final Energy:  -173.27529830038188

   => Energetics <=

    Nuclear Repulsion Energy =            134.4325844593242039
    One-Electron Energy =                -499.4898001877006095
    Two-Electron Energy =                 191.7819174279944718
    DFT Exchange-Correlation Energy =       0.0000000000000000
    Empirical Dispersion Energy =           0.0000000000000000
    PCM Polarization Energy =               0.0000000000000000
    EFP Energy =                            0.0000000000000000
    Total Energy =                       -173.2752983003819054

    Alert: EFP and PCM quantities not currently incorporated into SCF psivars.

Properties will be evaluated at   0.000000,   0.000000,   0.000000 Bohr
  ==> Properties <==


Properties computed using the SCF density matrix

  Nuclear Dipole Moment: (a.u.)
     X:     2.2902      Y:     0.2957      Z:     1.0140

  Electronic Dipole Moment: (a.u.)
     X:    -1.7480      Y:    -0.4255      Z:    -0.7104

  Dipole Moment: (a.u.)
     X:     0.5421      Y:    -0.1298      Z:     0.3036     Total:     0.6348

  Dipole Moment: (Debye)
     X:     1.3780      Y:    -0.3299      Z:     0.7717     Total:     1.6134


  Saving occupied orbitals to File 180.

*** tstop() called on cx1-3-15-3.cx1.hpc.ic.ac.uk at Tue Jul  5 16:24:29 2016
Module time:
	user time   =       2.95 seconds =       0.05 minutes
	system time =       0.02 seconds =       0.00 minutes
	total time  =          3 seconds =       0.05 minutes
Total time:
	user time   =       2.95 seconds =       0.05 minutes
	system time =       0.02 seconds =       0.00 minutes
	total time  =          3 seconds =       0.05 minutes


Properties will be evaluated at   0.000000,   0.000000,   0.000000 Bohr

Properties computed using the  density matrix

  Nuclear Dipole Moment: (a.u.)
     X:     2.2902      Y:     0.2957      Z:     1.0140

  Electronic Dipole Moment: (a.u.)
     X:    -1.7480      Y:    -0.4255      Z:    -0.7104

  Dipole Moment: (a.u.)
     X:     0.5421      Y:    -0.1298      Z:     0.3036     Total:     0.6348

  Dipole Moment: (Debye)
     X:     1.3780      Y:    -0.3299      Z:     0.7717     Total:     1.6134

  Quadrupole Moment: (Debye Ang)
    XX:   -30.8122     YY:   -25.2612     ZZ:   -28.1815
    XY:    -0.5054     XZ:    -3.0434     YZ:    -0.1622

  Traceless Quadrupole Moment: (Debye Ang)
    XX:    -2.7272     YY:     2.8238     ZZ:    -0.0965
    XY:    -0.5054     XZ:    -3.0434     YZ:    -0.1622

  Mulliken Charges: (a.u.)
   Center  Symbol    Alpha    Beta     Spin     Total
       1     H     0.33045  0.33045  0.00000  0.33909
       2     N     3.92760  3.92760  0.00000 -0.85520
       3     C     3.04879  3.04879  0.00000 -0.09758
       4     H     0.33240  0.33240  0.00000  0.33520
       5     C     3.17156  3.17156  0.00000 -0.34312
       6     H     0.43082  0.43082  0.00000  0.13835
       7     H     0.41927  0.41927  0.00000  0.16146
       8     C     3.24100  3.24100  0.00000 -0.48200
       9     H     0.41676  0.41676  0.00000  0.16649
      10     H     0.41894  0.41894  0.00000  0.16211
      11     H     0.42595  0.42595  0.00000  0.14810
      12     H     0.41656  0.41656  0.00000  0.16689
      13     H     0.41990  0.41990  0.00000  0.16021

   Total alpha = 17.00000, Total beta = 17.00000, Total charge = -0.00000


*** PSI4 exiting successfully. Buy a developer a beer!
