    -----------------------------------------------------------------------
          Psi4: An Open-Source Ab Initio Electronic Structure Package
                              Psi4 (no tag) Driver

                          Git: Rev {detached?}  

    J. M. Turney, A. C. Simmonett, R. M. Parrish, E. G. Hohenstein,
    F. A. Evangelista, J. T. Fermann, B. J. Mintz, L. A. Burns, J. J. Wilke,
    M. L. Abrams, N. J. Russ, M. L. Leininger, C. L. Janssen, E. T. Seidl,
    W. D. Allen, H. F. Schaefer, R. A. King, E. F. Valeev, C. D. Sherrill,
    and T. D. Crawford, WIREs Comput. Mol. Sci. 2, 556-565 (2012)
    (doi: 10.1002/wcms.93)

                         Additional Contributions by
    A. E. DePrince, M. Saitow, U. Bozkaya, A. Yu. Sokolov
    -----------------------------------------------------------------------


    Psi4 started on: Tue Jul  5 16:25:24 2016

    Process ID:  19881
    PSI4DATADIR: /export131/home/mjharvey/miniconda3/share
    Memory level set to 256.000 MB

  ==> Input File <==

--------------------------------------------------------------------------
set {
	reference rhf
	basis 6-31G*
}


set_num_threads( 1 )
memory 2 gb

molecule MOL {
0 1

H	 -2.273092	 1.173159	 0.000295
O	 -1.438904	 1.618192	 0.000114
C	 -0.409536	 0.736003	 0.000030
C	 0.760776	 1.146111	 0.619207
C	 -0.506831	 -0.523115	 -0.588271
H	 0.793031	 2.125078	 1.060314
C	 1.852745	 0.300202	 0.658597
C	 0.606586	 -1.352761	 -0.533686
C	 -1.784563	 -0.968650	 -1.263480
H	 2.757816	 0.624371	 1.140525
C	 1.781404	 -0.957202	 0.080824
H	 0.547519	 -2.328706	 -0.983560
H	 -2.052808	 -0.319992	 -2.094882
H	 -1.677744	 -1.969582	 -1.661851
H	 -2.624822	 -0.986923	 -0.572374
H	 2.626802	 -1.620360	 0.107694

	symmetry c1
}
ee = energy('scf')
oeprop('DIPOLE', 'QUADRUPOLE', 'MULLIKEN_CHARGES')
f=open( 'psi4out.xyz', 'w' )
f.write( "16  " )
f.write( str(ee) + "\n" )
f.write( MOL.save_string_xyz() )
f.close()
--------------------------------------------------------------------------

  Memory set to   2.000 GiB by Python script.

*** tstart() called on cx1-3-15-2.cx1.hpc.ic.ac.uk
*** at Tue Jul  5 16:25:25 2016


         ---------------------------------------------------------
                                   SCF
            by Justin Turney, Rob Parrish, and Andy Simmonett
                              RHF Reference
                        1 Threads,   2000 MiB Core
         ---------------------------------------------------------

  ==> Geometry <==

    Molecular point group: c1
    Full point group: C1

    Geometry (in Angstrom), charge = 0, multiplicity = 1:

       Center              X                  Y                   Z               Mass       
    ------------   -----------------  -----------------  -----------------  -----------------
           H         -2.297834693828     1.144275324924     0.142320001536     1.007825032070
           O         -1.463646693828     1.589308324924     0.142139001536    15.994914619560
           C         -0.434278693828     0.707119324924     0.142055001536    12.000000000000
           C          0.736033306172     1.117227324924     0.761232001536    12.000000000000
           C         -0.531573693828    -0.551998675076    -0.446245998464    12.000000000000
           H          0.768288306172     2.096194324924     1.202339001536     1.007825032070
           C          1.828002306172     0.271318324924     0.800622001536    12.000000000000
           C          0.581843306172    -1.381644675076    -0.391660998464    12.000000000000
           C         -1.809305693828    -0.997533675076    -1.121454998464    12.000000000000
           H          2.733073306172     0.595487324924     1.282550001536     1.007825032070
           C          1.756661306172    -0.986085675076     0.222849001536    12.000000000000
           H          0.522776306172    -2.357589675076    -0.841534998464     1.007825032070
           H         -2.077550693828    -0.348875675076    -1.952856998464     1.007825032070
           H         -1.702486693828    -1.998465675076    -1.519825998464     1.007825032070
           H         -2.649564693828    -1.015806675076    -0.430348998464     1.007825032070
           H          2.602059306172    -1.649243675076     0.249719001536     1.007825032070

  Running in c1 symmetry.

  Rotational constants: A =      0.10913  B =      0.07442  C =      0.04465 [cm^-1]
  Rotational constants: A =   3271.57036  B =   2231.00423  C =   1338.70970 [MHz]
  Nuclear repulsion =  350.057252178394037

  Charge       = 0
  Multiplicity = 1
  Electrons    = 58
  Nalpha       = 29
  Nbeta        = 29

  ==> Algorithm <==

  SCF Algorithm Type is DF.
  DIIS enabled.
  MOM disabled.
  Fractional occupation disabled.
  Guess Type is CORE.
  Energy threshold   = 1.00e-06
  Density threshold  = 1.00e-06
  Integral threshold = 0.00e+00

  ==> Primary Basis <==

  Basis Set: 6-31G*
    Number of shells: 64
    Number of basis function: 136
    Number of Cartesian functions: 136
    Spherical Harmonics?: false
    Max angular momentum: 2

  ==> Pre-Iterations <==

   -------------------------------------------------------
    Irrep   Nso     Nmo     Nalpha   Nbeta   Ndocc  Nsocc
   -------------------------------------------------------
     A        136     136       0       0       0       0
   -------------------------------------------------------
    Total     136     136      29      29      29       0
   -------------------------------------------------------

 OEINTS: Overlap, kinetic, potential, dipole, and quadrupole integrals
         stored in file 35.

  ==> Integral Setup <==

  ==> DFJK: Density-Fitted J/K Matrices <==

    J tasked:                  Yes
    K tasked:                  Yes
    wK tasked:                  No
    OpenMP threads:              1
    Integrals threads:           1
    Memory (MB):              1430
    Algorithm:                Core
    Integral Cache:           NONE
    Schwarz Cutoff:          1E-12
    Fitting Condition:       1E-12

   => Auxiliary Basis Set <=

  Basis Set: 
    Number of shells: 264
    Number of basis function: 848
    Number of Cartesian functions: 848
    Spherical Harmonics?: false
    Max angular momentum: 3

  Minimum eigenvalue in the overlap matrix is 3.9770882527E-04.
  Using Symmetric Orthogonalization.
  SCF Guess: Core (One-Electron) Hamiltonian.

  ==> Iterations <==

                           Total Energy        Delta E     RMS |[F,P]|

   @DF-RHF iter   1:  -269.31373717686688   -2.69314e+02   6.79799e-02 
   @DF-RHF iter   2:  -240.60632278160097    2.87074e+01   5.36755e-02 DIIS
   @DF-RHF iter   3:  -295.06334220985491   -5.44570e+01   5.47005e-02 DIIS
   @DF-RHF iter   4:  -331.80648684377502   -3.67431e+01   3.08996e-02 DIIS
   @DF-RHF iter   5:  -342.95332905034127   -1.11468e+01   1.18305e-02 DIIS
   @DF-RHF iter   6:  -344.36604210863720   -1.41271e+00   4.86108e-03 DIIS
   @DF-RHF iter   7:  -344.57697870928496   -2.10937e-01   1.08832e-03 DIIS
   @DF-RHF iter   8:  -344.58905934542270   -1.20806e-02   5.09023e-04 DIIS
   @DF-RHF iter   9:  -344.59245092993990   -3.39158e-03   1.30870e-04 DIIS
   @DF-RHF iter  10:  -344.59279167915577   -3.40749e-04   4.89202e-05 DIIS
   @DF-RHF iter  11:  -344.59287466224782   -8.29831e-05   2.19217e-05 DIIS
   @DF-RHF iter  12:  -344.59289528794500   -2.06257e-05   1.14292e-05 DIIS
   @DF-RHF iter  13:  -344.59290315170711   -7.86376e-06   3.60578e-06 DIIS
   @DF-RHF iter  14:  -344.59290397280085   -8.21094e-07   1.05918e-06 DIIS
   @DF-RHF iter  15:  -344.59290400999441   -3.71936e-08   3.67022e-07 DIIS

  ==> Post-Iterations <==

    Orbital Energies (a.u.)
    -----------------------

    Doubly Occupied:                                                      

       1A    -20.584889     2A    -11.290173     3A    -11.235064  
       4A    -11.231810     5A    -11.230519     6A    -11.229203  
       7A    -11.220503     8A    -11.219674     9A     -1.404230  
      10A     -1.148465    11A     -1.047476    12A     -1.003799  
      13A     -0.939636    14A     -0.824461    15A     -0.818420  
      16A     -0.729284    17A     -0.674660    18A     -0.644544  
      19A     -0.614252    20A     -0.596518    21A     -0.573888  
      22A     -0.569897    23A     -0.552258    24A     -0.542117  
      25A     -0.502333    26A     -0.482496    27A     -0.470582  
      28A     -0.328915    29A     -0.307028  

    Virtual:                                                              

      30A      0.148712    31A      0.161635    32A      0.212380  
      33A      0.246745    34A      0.284457    35A      0.294068  
      36A      0.320482    37A      0.323084    38A      0.332458  
      39A      0.352704    40A      0.399412    41A      0.408813  
      42A      0.454221    43A      0.482064    44A      0.505980  
      45A      0.555833    46A      0.569075    47A      0.707935  
      48A      0.717451    49A      0.733515    50A      0.736471  
      51A      0.752785    52A      0.773249    53A      0.820750  
      54A      0.835407    55A      0.838141    56A      0.848527  
      57A      0.855287    58A      0.880529    59A      0.888104  
      60A      0.919782    61A      0.951148    62A      0.962067  
      63A      1.009236    64A      1.044364    65A      1.054266  
      66A      1.107421    67A      1.118662    68A      1.126687  
      69A      1.141396    70A      1.156054    71A      1.187171  
      72A      1.190171    73A      1.216076    74A      1.237329  
      75A      1.249515    76A      1.272364    77A      1.308513  
      78A      1.321432    79A      1.349333    80A      1.389915  
      81A      1.440246    82A      1.492805    83A      1.505127  
      84A      1.528064    85A      1.614826    86A      1.627774  
      87A      1.655908    88A      1.694369    89A      1.731976  
      90A      1.755547    91A      1.772440    92A      1.790760  
      93A      1.957897    94A      2.040845    95A      2.101765  
      96A      2.125250    97A      2.137841    98A      2.157425  
      99A      2.190353   100A      2.231734   101A      2.252951  
     102A      2.289535   103A      2.310769   104A      2.332276  
     105A      2.429227   106A      2.443198   107A      2.474468  
     108A      2.517335   109A      2.576309   110A      2.580385  
     111A      2.635946   112A      2.641615   113A      2.660683  
     114A      2.678658   115A      2.688969   116A      2.812817  
     117A      2.901143   118A      2.915604   119A      2.954111  
     120A      3.046992   121A      3.070491   122A      3.109491  
     123A      3.139943   124A      3.164884   125A      3.246000  
     126A      3.358402   127A      3.541936   128A      3.842307  
     129A      4.382255   130A      4.534634   131A      4.551202  
     132A      4.608889   133A      4.719560   134A      4.826810  
     135A      4.855635   136A      5.192339  

    Final Occupation by Irrep:
              A 
    DOCC [    29 ]

  Energy converged.

  @DF-RHF Final Energy:  -344.59290400999441

   => Energetics <=

    Nuclear Repulsion Energy =            350.0572521783940374
    One-Electron Energy =               -1161.2662057494119381
    Two-Electron Energy =                 466.6160495610240559
    DFT Exchange-Correlation Energy =       0.0000000000000000
    Empirical Dispersion Energy =           0.0000000000000000
    PCM Polarization Energy =               0.0000000000000000
    EFP Energy =                            0.0000000000000000
    Total Energy =                       -344.5929040099938447

    Alert: EFP and PCM quantities not currently incorporated into SCF psivars.

Properties will be evaluated at   0.000000,   0.000000,   0.000000 Bohr
  ==> Properties <==


Properties computed using the SCF density matrix

  Nuclear Dipole Moment: (a.u.)
     X:    -1.9769      Y:    -3.3054      Z:    -1.7502

  Electronic Dipole Moment: (a.u.)
     X:     1.6286      Y:     2.7419      Z:     1.7066

  Dipole Moment: (a.u.)
     X:    -0.3482      Y:    -0.5635      Z:    -0.0436     Total:     0.6639

  Dipole Moment: (Debye)
     X:    -0.8851      Y:    -1.4324      Z:    -0.1108     Total:     1.6874


  Saving occupied orbitals to File 180.

*** tstop() called on cx1-3-15-2.cx1.hpc.ic.ac.uk at Tue Jul  5 16:25:38 2016
Module time:
	user time   =      12.48 seconds =       0.21 minutes
	system time =       0.08 seconds =       0.00 minutes
	total time  =         13 seconds =       0.22 minutes
Total time:
	user time   =      12.48 seconds =       0.21 minutes
	system time =       0.08 seconds =       0.00 minutes
	total time  =         13 seconds =       0.22 minutes


Properties will be evaluated at   0.000000,   0.000000,   0.000000 Bohr

Properties computed using the  density matrix

  Nuclear Dipole Moment: (a.u.)
     X:    -1.9769      Y:    -3.3054      Z:    -1.7502

  Electronic Dipole Moment: (a.u.)
     X:     1.6286      Y:     2.7419      Z:     1.7066

  Dipole Moment: (a.u.)
     X:    -0.3482      Y:    -0.5635      Z:    -0.0436     Total:     0.6639

  Dipole Moment: (Debye)
     X:    -0.8851      Y:    -1.4324      Z:    -0.1108     Total:     1.6874

  Quadrupole Moment: (Debye Ang)
    XX:   -40.2099     YY:   -48.5398     ZZ:   -48.9162
    XY:     1.0094     XZ:     2.1612     YZ:     2.6062

  Traceless Quadrupole Moment: (Debye Ang)
    XX:     5.6788     YY:    -2.6512     ZZ:    -3.0276
    XY:     1.0094     XZ:     2.1612     YZ:     2.6062

  Mulliken Charges: (a.u.)
   Center  Symbol    Alpha    Beta     Spin     Total
       1     H     0.26904  0.26904  0.00000  0.46191
       2     O     4.38229  4.38229  0.00000 -0.76458
       3     C     2.82120  2.82120  0.00000  0.35761
       4     C     3.11739  3.11739  0.00000 -0.23478
       5     C     3.00670  3.00670  0.00000 -0.01340
       6     H     0.39227  0.39227  0.00000  0.21546
       7     C     3.09694  3.09694  0.00000 -0.19388
       8     C     3.10793  3.10793  0.00000 -0.21587
       9     C     3.26542  3.26542  0.00000 -0.53084
      10     H     0.39920  0.39920  0.00000  0.20159
      11     C     3.10685  3.10685  0.00000 -0.21371
      12     H     0.40166  0.40166  0.00000  0.19668
      13     H     0.40581  0.40581  0.00000  0.18838
      14     H     0.40675  0.40675  0.00000  0.18651
      15     H     0.41975  0.41975  0.00000  0.16049
      16     H     0.40079  0.40079  0.00000  0.19842

   Total alpha = 29.00000, Total beta = 29.00000, Total charge = -0.00000


*** PSI4 exiting successfully. Buy a developer a beer!
