    -----------------------------------------------------------------------
          Psi4: An Open-Source Ab Initio Electronic Structure Package
                              Psi4 (no tag) Driver

                          Git: Rev {detached?}  

    J. M. Turney, A. C. Simmonett, R. M. Parrish, E. G. Hohenstein,
    F. A. Evangelista, J. T. Fermann, B. J. Mintz, L. A. Burns, J. J. Wilke,
    M. L. Abrams, N. J. Russ, M. L. Leininger, C. L. Janssen, E. T. Seidl,
    W. D. Allen, H. F. Schaefer, R. A. King, E. F. Valeev, C. D. Sherrill,
    and T. D. Crawford, WIREs Comput. Mol. Sci. 2, 556-565 (2012)
    (doi: 10.1002/wcms.93)

                         Additional Contributions by
    A. E. DePrince, M. Saitow, U. Bozkaya, A. Yu. Sokolov
    -----------------------------------------------------------------------


    Psi4 started on: Tue Jul  5 16:22:57 2016

    Process ID:  25899
    PSI4DATADIR: /export131/home/mjharvey/miniconda3/share
    Memory level set to 256.000 MB

  ==> Input File <==

--------------------------------------------------------------------------
set {
	reference rhf
	basis 6-31G*
}


set_num_threads( 1 )
memory 2 gb

molecule MOL {
0 1

H	 -0.216825	 0.021369	 -3.357402
C	 0.374198	 0.036393	 -2.447010
C	 -0.521757	 -0.028637	 -1.217342
H	 0.969602	 0.942322	 -2.434777
H	 1.053364	 -0.811668	 -2.481329
N	 0.263400	 0.031178	 0.000000
H	 -1.199035	 0.820290	 -1.219355
H	 -1.147901	 -0.924895	 -1.265384
C	 -0.521757	 -0.028637	 1.217342
H	 0.935769	 -0.712709	 0.000000
C	 -0.137340	 1.096227	 2.169156
H	 -1.568130	 0.071639	 0.944512
H	 -0.425451	 -0.991721	 1.728064
H	 -0.269727	 2.059856	 1.690350
H	 -0.746339	 1.067969	 3.067304
H	 0.902760	 1.012427	 2.473822

	symmetry c1
}
ee = energy('scf')
oeprop('DIPOLE', 'QUADRUPOLE', 'MULLIKEN_CHARGES')
f=open( 'psi4out.xyz', 'w' )
f.write( "16  " )
f.write( str(ee) + "\n" )
f.write( MOL.save_string_xyz() )
f.close()
--------------------------------------------------------------------------

  Memory set to   2.000 GiB by Python script.

*** tstart() called on cx1-3-1-3.cx1.hpc.ic.ac.uk
*** at Tue Jul  5 16:22:57 2016


         ---------------------------------------------------------
                                   SCF
            by Justin Turney, Rob Parrish, and Andy Simmonett
                              RHF Reference
                        1 Threads,   2000 MiB Core
         ---------------------------------------------------------

  ==> Geometry <==

    Molecular point group: c1
    Full point group: C1

    Geometry (in Angstrom), charge = 0, multiplicity = 1:

       Center              X                  Y                   Z               Mass       
    ------------   -----------------  -----------------  -----------------  -----------------
           H         -0.111244744256    -0.196387137420    -3.300004600521     1.007825032070
           C          0.479778255744    -0.181363137420    -2.389612600521    12.000000000000
           C         -0.416176744256    -0.246393137420    -1.159944600521    12.000000000000
           H          1.075182255744     0.724565862580    -2.377379600521     1.007825032070
           H          1.158944255744    -1.029424137420    -2.423931600521     1.007825032070
           N          0.368980255744    -0.186578137420     0.057397399479    14.003074004780
           H         -1.093454744256     0.602533862580    -1.161957600521     1.007825032070
           H         -1.042320744256    -1.142651137420    -1.207986600521     1.007825032070
           C         -0.416176744256    -0.246393137420     1.274739399479    12.000000000000
           H          1.041349255744    -0.930465137420     0.057397399479     1.007825032070
           C         -0.031759744256     0.878470862580     2.226553399479    12.000000000000
           H         -1.462549744256    -0.146117137420     1.001909399479     1.007825032070
           H         -0.319870744256    -1.209477137420     1.785461399479     1.007825032070
           H         -0.164146744256     1.842099862580     1.747747399479     1.007825032070
           H         -0.640758744256     0.850212862580     3.124701399479     1.007825032070
           H          1.008340255744     0.794670862580     2.531219399479     1.007825032070

  Running in c1 symmetry.

  Rotational constants: A =      0.52219  B =      0.07209  C =      0.07011 [cm^-1]
  Rotational constants: A =  15655.00471  B =   2161.16387  C =   2101.79464 [MHz]
  Nuclear repulsion =  189.722973025029660

  Charge       = 0
  Multiplicity = 1
  Electrons    = 42
  Nalpha       = 21
  Nbeta        = 21

  ==> Algorithm <==

  SCF Algorithm Type is DF.
  DIIS enabled.
  MOM disabled.
  Fractional occupation disabled.
  Guess Type is CORE.
  Energy threshold   = 1.00e-06
  Density threshold  = 1.00e-06
  Integral threshold = 0.00e+00

  ==> Primary Basis <==

  Basis Set: 6-31G*
    Number of shells: 52
    Number of basis function: 97
    Number of Cartesian functions: 97
    Spherical Harmonics?: false
    Max angular momentum: 2

  ==> Pre-Iterations <==

   -------------------------------------------------------
    Irrep   Nso     Nmo     Nalpha   Nbeta   Ndocc  Nsocc
   -------------------------------------------------------
     A         97      97       0       0       0       0
   -------------------------------------------------------
    Total      97      97      21      21      21       0
   -------------------------------------------------------

 OEINTS: Overlap, kinetic, potential, dipole, and quadrupole integrals
         stored in file 35.

  ==> Integral Setup <==

  ==> DFJK: Density-Fitted J/K Matrices <==

    J tasked:                  Yes
    K tasked:                  Yes
    wK tasked:                  No
    OpenMP threads:              1
    Integrals threads:           1
    Memory (MB):              1430
    Algorithm:                Core
    Integral Cache:           NONE
    Schwarz Cutoff:          1E-12
    Fitting Condition:       1E-12

   => Auxiliary Basis Set <=

  Basis Set: 
    Number of shells: 219
    Number of basis function: 680
    Number of Cartesian functions: 680
    Spherical Harmonics?: false
    Max angular momentum: 3

  Minimum eigenvalue in the overlap matrix is 4.5119974091E-03.
  Using Symmetric Orthogonalization.
  SCF Guess: Core (One-Electron) Hamiltonian.

  ==> Iterations <==

                           Total Energy        Delta E     RMS |[F,P]|

   @DF-RHF iter   1:  -149.04737655086819   -1.49047e+02   8.51347e-02 
   @DF-RHF iter   2:  -153.34341572344806   -4.29604e+00   5.72761e-02 DIIS
   @DF-RHF iter   3:  -178.43714720614469   -2.50937e+01   6.20696e-02 DIIS
   @DF-RHF iter   4:  -208.77365022341110   -3.03365e+01   2.15399e-02 DIIS
   @DF-RHF iter   5:  -212.07534975630631   -3.30170e+00   6.65750e-03 DIIS
   @DF-RHF iter   6:  -212.29332044325810   -2.17971e-01   1.71516e-03 DIIS
   @DF-RHF iter   7:  -212.30805690761775   -1.47365e-02   3.38532e-04 DIIS
   @DF-RHF iter   8:  -212.30878683072763   -7.29923e-04   1.33303e-04 DIIS
   @DF-RHF iter   9:  -212.30888800952999   -1.01179e-04   4.93013e-05 DIIS
   @DF-RHF iter  10:  -212.30890223154012   -1.42220e-05   1.38908e-05 DIIS
   @DF-RHF iter  11:  -212.30890359769808   -1.36616e-06   2.60134e-06 DIIS
   @DF-RHF iter  12:  -212.30890366231756   -6.46195e-08   8.72124e-07 DIIS

  ==> Post-Iterations <==

    Orbital Energies (a.u.)
    -----------------------

    Doubly Occupied:                                                      

       1A    -15.532321     2A    -11.241778     3A    -11.239983  
       4A    -11.208324     5A    -11.199958     6A     -1.205245  
       7A     -1.025344     8A     -0.962370     9A     -0.834912  
      10A     -0.814629    11A     -0.666287    12A     -0.624646  
      13A     -0.608374    14A     -0.563995    15A     -0.558835  
      16A     -0.524800    17A     -0.504753    18A     -0.490124  
      19A     -0.481900    20A     -0.469647    21A     -0.357051  

    Virtual:                                                              

      22A      0.229492    23A      0.256951    24A      0.272192  
      25A      0.290681    26A      0.316952    27A      0.320781  
      28A      0.330494    29A      0.331325    30A      0.344097  
      31A      0.350270    32A      0.355764    33A      0.414246  
      34A      0.423696    35A      0.444935    36A      0.465281  
      37A      0.720870    38A      0.742047    39A      0.744304  
      40A      0.760370    41A      0.762842    42A      0.807245  
      43A      0.852310    44A      0.906285    45A      0.918399  
      46A      0.961395    47A      0.978401    48A      1.029596  
      49A      1.083389    50A      1.133144    51A      1.144902  
      52A      1.157893    53A      1.175109    54A      1.183751  
      55A      1.184633    56A      1.201393    57A      1.226445  
      58A      1.230635    59A      1.252293    60A      1.257457  
      61A      1.267792    62A      1.277650    63A      1.376297  
      64A      1.512481    65A      1.598531    66A      1.655175  
      67A      1.731485    68A      1.796104    69A      1.846132  
      70A      1.947533    71A      2.044555    72A      2.113550  
      73A      2.207329    74A      2.263306    75A      2.285754  
      76A      2.307136    77A      2.330772    78A      2.392050  
      79A      2.454350    80A      2.511782    81A      2.557855  
      82A      2.601598    83A      2.646120    84A      2.665858  
      85A      2.693146    86A      2.747512    87A      2.782925  
      88A      2.827733    89A      2.978728    90A      3.013614  
      91A      3.147123    92A      3.218776    93A      4.363755  
      94A      4.620255    95A      4.641038    96A      4.836981  
      97A      4.886502  

    Final Occupation by Irrep:
              A 
    DOCC [    21 ]

  Energy converged.

  @DF-RHF Final Energy:  -212.30890366231756

   => Energetics <=

    Nuclear Repulsion Energy =            189.7229730250296598
    One-Electron Energy =                -661.8329517495524215
    Two-Electron Energy =                 259.8010750622049159
    DFT Exchange-Correlation Energy =       0.0000000000000000
    Empirical Dispersion Energy =           0.0000000000000000
    PCM Polarization Energy =               0.0000000000000000
    EFP Energy =                            0.0000000000000000
    Total Energy =                       -212.3089036623178458

    Alert: EFP and PCM quantities not currently incorporated into SCF psivars.

Properties will be evaluated at   0.000000,   0.000000,   0.000000 Bohr
  ==> Properties <==


Properties computed using the SCF density matrix

  Nuclear Dipole Moment: (a.u.)
     X:    -0.5172      Y:     0.1501      Z:    -0.2091

  Electronic Dipole Moment: (a.u.)
     X:     0.3453      Y:    -0.5694      Z:     0.1608

  Dipole Moment: (a.u.)
     X:    -0.1718      Y:    -0.4193      Z:    -0.0483     Total:     0.4557

  Dipole Moment: (Debye)
     X:    -0.4368      Y:    -1.0658      Z:    -0.1227     Total:     1.1584


  Saving occupied orbitals to File 180.

*** tstop() called on cx1-3-1-3.cx1.hpc.ic.ac.uk at Tue Jul  5 16:23:03 2016
Module time:
	user time   =       4.99 seconds =       0.08 minutes
	system time =       0.03 seconds =       0.00 minutes
	total time  =          6 seconds =       0.10 minutes
Total time:
	user time   =       4.99 seconds =       0.08 minutes
	system time =       0.03 seconds =       0.00 minutes
	total time  =          6 seconds =       0.10 minutes


Properties will be evaluated at   0.000000,   0.000000,   0.000000 Bohr

Properties computed using the  density matrix

  Nuclear Dipole Moment: (a.u.)
     X:    -0.5172      Y:     0.1501      Z:    -0.2091

  Electronic Dipole Moment: (a.u.)
     X:     0.3453      Y:    -0.5694      Z:     0.1608

  Dipole Moment: (a.u.)
     X:    -0.1718      Y:    -0.4193      Z:    -0.0483     Total:     0.4557

  Dipole Moment: (Debye)
     X:    -0.4368      Y:    -1.0658      Z:    -0.1227     Total:     1.1584

  Quadrupole Moment: (Debye Ang)
    XX:   -34.0840     YY:   -33.8017     ZZ:   -33.9174
    XY:    -1.6784     XZ:     0.2026     YZ:    -0.6111

  Traceless Quadrupole Moment: (Debye Ang)
    XX:    -0.1496     YY:     0.1327     ZZ:     0.0170
    XY:    -1.6784     XZ:     0.2026     YZ:    -0.6111

  Mulliken Charges: (a.u.)
   Center  Symbol    Alpha    Beta     Spin     Total
       1     H     0.42024  0.42024  0.00000  0.15952
       2     C     3.24266  3.24266  0.00000 -0.48531
       3     C     3.05614  3.05614  0.00000 -0.11228
       4     H     0.41187  0.41187  0.00000  0.17627
       5     H     0.42484  0.42484  0.00000  0.15032
       6     N     3.84816  3.84816  0.00000 -0.69633
       7     H     0.41970  0.41970  0.00000  0.16060
       8     H     0.43499  0.43499  0.00000  0.13002
       9     C     3.06338  3.06338  0.00000 -0.12677
      10     H     0.33363  0.33363  0.00000  0.33274
      11     C     3.22580  3.22580  0.00000 -0.45160
      12     H     0.42266  0.42266  0.00000  0.15469
      13     H     0.42774  0.42774  0.00000  0.14451
      14     H     0.41818  0.41818  0.00000  0.16365
      15     H     0.42821  0.42821  0.00000  0.14358
      16     H     0.42180  0.42180  0.00000  0.15640

   Total alpha = 21.00000, Total beta = 21.00000, Total charge = -0.00000


*** PSI4 exiting successfully. Buy a developer a beer!
