    -----------------------------------------------------------------------
          Psi4: An Open-Source Ab Initio Electronic Structure Package
                              Psi4 (no tag) Driver

                          Git: Rev {detached?}  

    J. M. Turney, A. C. Simmonett, R. M. Parrish, E. G. Hohenstein,
    F. A. Evangelista, J. T. Fermann, B. J. Mintz, L. A. Burns, J. J. Wilke,
    M. L. Abrams, N. J. Russ, M. L. Leininger, C. L. Janssen, E. T. Seidl,
    W. D. Allen, H. F. Schaefer, R. A. King, E. F. Valeev, C. D. Sherrill,
    and T. D. Crawford, WIREs Comput. Mol. Sci. 2, 556-565 (2012)
    (doi: 10.1002/wcms.93)

                         Additional Contributions by
    A. E. DePrince, M. Saitow, U. Bozkaya, A. Yu. Sokolov
    -----------------------------------------------------------------------


    Psi4 started on: Tue Jul  5 16:25:41 2016

    Process ID:  11586
    PSI4DATADIR: /export131/home/mjharvey/miniconda3/share
    Memory level set to 256.000 MB

  ==> Input File <==

--------------------------------------------------------------------------
set {
	reference rhf
	basis 6-31G*
}


set_num_threads( 1 )
memory 2 gb

molecule MOL {
0 1

H	 2.536630	 -1.037227	 -1.101117
N	 1.554135	 -0.848861	 -1.125253
C	 1.274210	 0.459349	 -0.562277
C	 0.820129	 -1.892564	 -0.433422
H	 1.827495	 1.207910	 -1.119323
H	 1.568275	 0.534169	 0.487279
C	 -0.216875	 0.740452	 -0.672172
H	 1.044579	 -2.847208	 -0.897154
H	 1.086692	 -1.960192	 0.623939
C	 -0.670675	 -1.610004	 -0.543397
H	 -0.488652	 0.816917	 -1.729238
H	 -0.442430	 1.692596	 -0.203031
N	 -0.975995	 -0.298722	 0.000000
H	 -1.223948	 -2.355280	 0.018741
H	 -0.972855	 -1.691011	 -1.591836
C	 -2.393863	 -0.024976	 0.000000
H	 -2.854032	 -0.467193	 -0.876721
H	 -2.854032	 -0.467193	 0.876721
H	 -2.623281	 1.044943	 0.000000

	symmetry c1
}
ee = energy('scf')
oeprop('DIPOLE', 'QUADRUPOLE', 'MULLIKEN_CHARGES')
f=open( 'psi4out.xyz', 'w' )
f.write( "19  " )
f.write( str(ee) + "\n" )
f.write( MOL.save_string_xyz() )
f.close()
--------------------------------------------------------------------------

  Memory set to   2.000 GiB by Python script.

*** tstart() called on cx1-3-2-1.cx1.hpc.ic.ac.uk
*** at Tue Jul  5 16:25:41 2016


         ---------------------------------------------------------
                                   SCF
            by Justin Turney, Rob Parrish, and Andy Simmonett
                              RHF Reference
                        1 Threads,   2000 MiB Core
         ---------------------------------------------------------

  ==> Geometry <==

    Molecular point group: c1
    Full point group: C1

    Geometry (in Angstrom), charge = 0, multiplicity = 1:

       Center              X                  Y                   Z               Mass       
    ------------   -----------------  -----------------  -----------------  -----------------
           H          2.632247138118    -0.541976115854    -0.623124358210     1.007825032070
           N          1.649752138118    -0.353610115854    -0.647260358210    14.003074004780
           C          1.369827138118     0.954599884146    -0.084284358210    12.000000000000
           C          0.915746138118    -1.397313115854     0.044570641790    12.000000000000
           H          1.923112138118     1.703160884146    -0.641330358210     1.007825032070
           H          1.663892138118     1.029419884146     0.965271641790     1.007825032070
           C         -0.121257861882     1.235702884146    -0.194179358210    12.000000000000
           H          1.140196138118    -2.351957115854    -0.419161358210     1.007825032070
           H          1.182309138118    -1.464941115854     1.101931641790     1.007825032070
           C         -0.575057861882    -1.114753115854    -0.065404358210    12.000000000000
           H         -0.393034861882     1.312167884146    -1.251245358210     1.007825032070
           H         -0.346812861882     2.187846884146     0.274961641790     1.007825032070
           N         -0.880377861882     0.196528884146     0.477992641790    14.003074004780
           H         -1.128330861882    -1.860029115854     0.496733641790     1.007825032070
           H         -0.877237861882    -1.195760115854    -1.113843358210     1.007825032070
           C         -2.298245861882     0.470274884146     0.477992641790    12.000000000000
           H         -2.758414861882     0.028057884146    -0.398728358210     1.007825032070
           H         -2.758414861882     0.028057884146     1.354713641790     1.007825032070
           H         -2.527663861882     1.540193884146     0.477992641790     1.007825032070

  Running in c1 symmetry.

  Rotational constants: A =      0.15719  B =      0.07860  C =      0.05697 [cm^-1]
  Rotational constants: A =   4712.48373  B =   2356.42993  C =   1707.82910 [MHz]
  Nuclear repulsion =  339.922418827152285

  Charge       = 0
  Multiplicity = 1
  Electrons    = 56
  Nalpha       = 28
  Nbeta        = 28

  ==> Algorithm <==

  SCF Algorithm Type is DF.
  DIIS enabled.
  MOM disabled.
  Fractional occupation disabled.
  Guess Type is CORE.
  Energy threshold   = 1.00e-06
  Density threshold  = 1.00e-06
  Integral threshold = 0.00e+00

  ==> Primary Basis <==

  Basis Set: 6-31G*
    Number of shells: 66
    Number of basis function: 129
    Number of Cartesian functions: 129
    Spherical Harmonics?: false
    Max angular momentum: 2

  ==> Pre-Iterations <==

   -------------------------------------------------------
    Irrep   Nso     Nmo     Nalpha   Nbeta   Ndocc  Nsocc
   -------------------------------------------------------
     A        129     129       0       0       0       0
   -------------------------------------------------------
    Total     129     129      28      28      28       0
   -------------------------------------------------------

 OEINTS: Overlap, kinetic, potential, dipole, and quadrupole integrals
         stored in file 35.

  ==> Integral Setup <==

  ==> DFJK: Density-Fitted J/K Matrices <==

    J tasked:                  Yes
    K tasked:                  Yes
    wK tasked:                  No
    OpenMP threads:              1
    Integrals threads:           1
    Memory (MB):              1430
    Algorithm:                Core
    Integral Cache:           NONE
    Schwarz Cutoff:          1E-12
    Fitting Condition:       1E-12

   => Auxiliary Basis Set <=

  Basis Set: 
    Number of shells: 276
    Number of basis function: 867
    Number of Cartesian functions: 867
    Spherical Harmonics?: false
    Max angular momentum: 3

  Minimum eigenvalue in the overlap matrix is 3.3655155906E-03.
  Using Symmetric Orthogonalization.
  SCF Guess: Core (One-Electron) Hamiltonian.

  ==> Iterations <==

                           Total Energy        Delta E     RMS |[F,P]|

   @DF-RHF iter   1:  -233.39355938824957   -2.33394e+02   7.07060e-02 
   @DF-RHF iter   2:  -174.42506611082382    5.89685e+01   7.18013e-02 DIIS
   @DF-RHF iter   3:  -253.06130503239655   -7.86362e+01   5.25509e-02 DIIS
   @DF-RHF iter   4:  -255.19468585517171   -2.13338e+00   6.26208e-02 DIIS
   @DF-RHF iter   5:  -304.72181982409785   -4.95271e+01   7.37041e-03 DIIS
   @DF-RHF iter   6:  -305.15973947584865   -4.37920e-01   2.06300e-03 DIIS
   @DF-RHF iter   7:  -305.19117176014760   -3.14323e-02   7.22343e-04 DIIS
   @DF-RHF iter   8:  -305.19553304047457   -4.36128e-03   2.05803e-04 DIIS
   @DF-RHF iter   9:  -305.19607584024942   -5.42800e-04   5.43435e-05 DIIS
   @DF-RHF iter  10:  -305.19610486516973   -2.90249e-05   2.36804e-05 DIIS
   @DF-RHF iter  11:  -305.19611222841644   -7.36325e-06   4.75312e-06 DIIS
   @DF-RHF iter  12:  -305.19611257555044   -3.47134e-07   1.49589e-06 DIIS
   @DF-RHF iter  13:  -305.19611259941991   -2.38695e-08   4.25264e-07 DIIS

  ==> Post-Iterations <==

    Orbital Energies (a.u.)
    -----------------------

    Doubly Occupied:                                                      

       1A    -15.539084     2A    -15.536425     3A    -11.238682  
       4A    -11.237938     5A    -11.237678     6A    -11.236634  
       7A    -11.234448     8A     -1.247085     9A     -1.185445  
      10A     -1.022736    11A     -0.964175    12A     -0.860774  
      13A     -0.856890    14A     -0.757491    15A     -0.690829  
      16A     -0.633349    17A     -0.624844    18A     -0.607590  
      19A     -0.603314    20A     -0.580159    21A     -0.543636  
      22A     -0.531264    23A     -0.511781    24A     -0.489353  
      25A     -0.466121    26A     -0.456294    27A     -0.363016  
      28A     -0.343152  

    Virtual:                                                              

      29A      0.230412    30A      0.250535    31A      0.279145  
      32A      0.289102    33A      0.293665    34A      0.315469  
      35A      0.320467    36A      0.328589    37A      0.342915  
      38A      0.344396    39A      0.355686    40A      0.356527  
      41A      0.365049    42A      0.410044    43A      0.437762  
      44A      0.440435    45A      0.462681    46A      0.473116  
      47A      0.494019    48A      0.721862    49A      0.745444  
      50A      0.755735    51A      0.788129    52A      0.791000  
      53A      0.814498    54A      0.847744    55A      0.856929  
      56A      0.893179    57A      0.909166    58A      0.957344  
      59A      0.977313    60A      0.990137    61A      1.040812  
      62A      1.064227    63A      1.085161    64A      1.110470  
      65A      1.126962    66A      1.132673    67A      1.144713  
      68A      1.152183    69A      1.160475    70A      1.175091  
      71A      1.192662    72A      1.205742    73A      1.210415  
      74A      1.240344    75A      1.251805    76A      1.270591  
      77A      1.277902    78A      1.285663    79A      1.338491  
      80A      1.412774    81A      1.527726    82A      1.544153  
      83A      1.630035    84A      1.645773    85A      1.682911  
      86A      1.716349    87A      1.777671    88A      1.854857  
      89A      1.887303    90A      2.016364    91A      2.050149  
      92A      2.077849    93A      2.134857    94A      2.183725  
      95A      2.227794    96A      2.296782    97A      2.308876  
      98A      2.310135    99A      2.334020   100A      2.345621  
     101A      2.405762   102A      2.428525   103A      2.441021  
     104A      2.478379   105A      2.538667   106A      2.586920  
     107A      2.618061   108A      2.623125   109A      2.655317  
     110A      2.670726   111A      2.738833   112A      2.755303  
     113A      2.807376   114A      2.878836   115A      2.902170  
     116A      2.923322   117A      3.058878   118A      3.122289  
     119A      3.135963   120A      3.178517   121A      3.234228  
     122A      3.266597   123A      4.356170   124A      4.520832  
     125A      4.662667   126A      4.698184   127A      4.795682  
     128A      4.952268   129A      4.976820  

    Final Occupation by Irrep:
              A 
    DOCC [    28 ]

  Energy converged.

  @DF-RHF Final Energy:  -305.19611259941991

   => Energetics <=

    Nuclear Repulsion Energy =            339.9224188271522848
    One-Electron Energy =               -1087.0366561662624463
    Two-Electron Energy =                 441.9181247396909384
    DFT Exchange-Correlation Energy =       0.0000000000000000
    Empirical Dispersion Energy =           0.0000000000000000
    PCM Polarization Energy =               0.0000000000000000
    EFP Energy =                            0.0000000000000000
    Total Energy =                       -305.1961125994191661

    Alert: EFP and PCM quantities not currently incorporated into SCF psivars.

Properties will be evaluated at   0.000000,   0.000000,   0.000000 Bohr
  ==> Properties <==


Properties computed using the SCF density matrix

  Nuclear Dipole Moment: (a.u.)
     X:    -2.1098      Y:     0.3888      Z:     0.2106

  Electronic Dipole Moment: (a.u.)
     X:     2.2058      Y:    -0.3863      Z:    -0.1173

  Dipole Moment: (a.u.)
     X:     0.0960      Y:     0.0025      Z:     0.0934     Total:     0.1339

  Dipole Moment: (Debye)
     X:     0.2440      Y:     0.0064      Z:     0.2373     Total:     0.3404


  Saving occupied orbitals to File 180.

*** tstop() called on cx1-3-2-1.cx1.hpc.ic.ac.uk at Tue Jul  5 16:25:53 2016
Module time:
	user time   =      11.78 seconds =       0.20 minutes
	system time =       0.06 seconds =       0.00 minutes
	total time  =         12 seconds =       0.20 minutes
Total time:
	user time   =      11.78 seconds =       0.20 minutes
	system time =       0.06 seconds =       0.00 minutes
	total time  =         12 seconds =       0.20 minutes


Properties will be evaluated at   0.000000,   0.000000,   0.000000 Bohr

Properties computed using the  density matrix

  Nuclear Dipole Moment: (a.u.)
     X:    -2.1098      Y:     0.3888      Z:     0.2106

  Electronic Dipole Moment: (a.u.)
     X:     2.2058      Y:    -0.3863      Z:    -0.1173

  Dipole Moment: (a.u.)
     X:     0.0960      Y:     0.0025      Z:     0.0934     Total:     0.1339

  Dipole Moment: (Debye)
     X:     0.2440      Y:     0.0064      Z:     0.2373     Total:     0.3404

  Quadrupole Moment: (Debye Ang)
    XX:   -40.7321     YY:   -42.0917     ZZ:   -49.1723
    XY:    -0.5108     XZ:     0.9704     YZ:    -0.5766

  Traceless Quadrupole Moment: (Debye Ang)
    XX:     3.2666     YY:     1.9070     ZZ:    -5.1736
    XY:    -0.5108     XZ:     0.9704     YZ:    -0.5766

  Mulliken Charges: (a.u.)
   Center  Symbol    Alpha    Beta     Spin     Total
       1     H     0.32950  0.32950  0.00000  0.34099
       2     N     3.85430  3.85430  0.00000 -0.70859
       3     C     3.06353  3.06353  0.00000 -0.12707
       4     C     3.06326  3.06326  0.00000 -0.12651
       5     H     0.41788  0.41788  0.00000  0.16425
       6     H     0.42773  0.42773  0.00000  0.14454
       7     C     3.05573  3.05573  0.00000 -0.11146
       8     H     0.41760  0.41760  0.00000  0.16481
       9     H     0.42746  0.42746  0.00000  0.14507
      10     C     3.05657  3.05657  0.00000 -0.11313
      11     H     0.42887  0.42887  0.00000  0.14226
      12     H     0.41845  0.41845  0.00000  0.16309
      13     N     3.78766  3.78766  0.00000 -0.57533
      14     H     0.41799  0.41799  0.00000  0.16402
      15     H     0.42750  0.42750  0.00000  0.14499
      16     C     3.14099  3.14099  0.00000 -0.28199
      17     H     0.43023  0.43023  0.00000  0.13954
      18     H     0.41598  0.41598  0.00000  0.16805
      19     H     0.41876  0.41876  0.00000  0.16247

   Total alpha = 28.00000, Total beta = 28.00000, Total charge =  0.00000


*** PSI4 exiting successfully. Buy a developer a beer!
