    -----------------------------------------------------------------------
          Psi4: An Open-Source Ab Initio Electronic Structure Package
                              Psi4 (no tag) Driver

                          Git: Rev {detached?}  

    J. M. Turney, A. C. Simmonett, R. M. Parrish, E. G. Hohenstein,
    F. A. Evangelista, J. T. Fermann, B. J. Mintz, L. A. Burns, J. J. Wilke,
    M. L. Abrams, N. J. Russ, M. L. Leininger, C. L. Janssen, E. T. Seidl,
    W. D. Allen, H. F. Schaefer, R. A. King, E. F. Valeev, C. D. Sherrill,
    and T. D. Crawford, WIREs Comput. Mol. Sci. 2, 556-565 (2012)
    (doi: 10.1002/wcms.93)

                         Additional Contributions by
    A. E. DePrince, M. Saitow, U. Bozkaya, A. Yu. Sokolov
    -----------------------------------------------------------------------


    Psi4 started on: Tue Jul  5 16:38:25 2016

    Process ID:  27656
    PSI4DATADIR: /export131/home/mjharvey/miniconda3/share
    Memory level set to 256.000 MB

  ==> Input File <==

--------------------------------------------------------------------------
set {
	reference rhf
	basis 6-31G*
}


set_num_threads( 1 )
memory 2 gb

molecule MOL {
0 1

H	 1.231753	 -0.755986	 1.083424
N	 0.325127	 -0.391795	 0.863493
C	 -0.478077	 -1.389299	 0.178692
H	 0.458457	 0.399132	 0.263688
C	 0.067366	 -1.624990	 -1.214175
H	 -0.523045	 -2.348059	 0.697112
H	 -1.494495	 -1.017316	 0.093230
O	 -0.088814	 -0.446451	 -1.951562
H	 1.121049	 -1.898740	 -1.164672
H	 -0.475958	 -2.440403	 -1.686547
C	 0.295968	 -0.548357	 -3.285402
H	 1.077210	 -1.293847	 -3.345427
H	 -0.534823	 -0.858547	 -3.916710
H	 0.680852	 0.397273	 -3.661511

	symmetry c1
}
set optking {
	frozen_dihedral = ("
		8 5 3 6,
		6 3 2 4,
		11 8 5 3
	")
}

ee = energy('scf')
oeprop('DIPOLE', 'QUADRUPOLE', 'MULLIKEN_CHARGES')
f=open( 'psi4out.xyz', 'w' )
f.write( "14  " )
f.write( str(ee) + "\n" )
f.write( MOL.save_string_xyz() )
f.close()
--------------------------------------------------------------------------

  Memory set to   2.000 GiB by Python script.

*** tstart() called on cx1-3-6-4.cx1.hpc.ic.ac.uk
*** at Tue Jul  5 16:38:25 2016


         ---------------------------------------------------------
                                   SCF
            by Justin Turney, Rob Parrish, and Andy Simmonett
                              RHF Reference
                        1 Threads,   2000 MiB Core
         ---------------------------------------------------------

  ==> Geometry <==

    Molecular point group: c1
    Full point group: C1

    Geometry (in Angstrom), charge = 0, multiplicity = 1:

       Center              X                  Y                   Z               Mass       
    ------------   -----------------  -----------------  -----------------  -----------------
           H          1.187681901426     0.113518708794     2.185120479281     1.007825032070
           N          0.281055901426     0.477709708794     1.965189479281    14.003074004780
           C         -0.522148098574    -0.519794291206     1.280388479281    12.000000000000
           H          0.414385901426     1.268636708794     1.365384479281     1.007825032070
           C          0.023294901426    -0.755485291206    -0.112478520719    12.000000000000
           H         -0.567116098574    -1.478554291206     1.798808479281     1.007825032070
           H         -1.538566098574    -0.147811291206     1.194926479281     1.007825032070
           O         -0.132885098574     0.423053708794    -0.849865520719    15.994914619560
           H          1.076977901426    -1.029235291206    -0.062975520719     1.007825032070
           H         -0.520029098574    -1.570898291206    -0.584850520719     1.007825032070
           C          0.251896901426     0.321147708794    -2.183705520719    12.000000000000
           H          1.033138901426    -0.424342291206    -2.243730520719     1.007825032070
           H         -0.578894098574     0.010957708794    -2.815013520719     1.007825032070
           H          0.636780901426     1.266777708794    -2.559814520719     1.007825032070

  Running in c1 symmetry.

  Rotational constants: A =      0.43717  B =      0.09100  C =      0.08282 [cm^-1]
  Rotational constants: A =  13105.98580  B =   2728.01848  C =   2482.88247 [MHz]
  Nuclear repulsion =  195.293825930985463

  Charge       = 0
  Multiplicity = 1
  Electrons    = 42
  Nalpha       = 21
  Nbeta        = 21

  ==> Algorithm <==

  SCF Algorithm Type is DF.
  DIIS enabled.
  MOM disabled.
  Fractional occupation disabled.
  Guess Type is CORE.
  Energy threshold   = 1.00e-06
  Density threshold  = 1.00e-06
  Integral threshold = 0.00e+00

  ==> Primary Basis <==

  Basis Set: 6-31G*
    Number of shells: 48
    Number of basis function: 93
    Number of Cartesian functions: 93
    Spherical Harmonics?: false
    Max angular momentum: 2

  ==> Pre-Iterations <==

   -------------------------------------------------------
    Irrep   Nso     Nmo     Nalpha   Nbeta   Ndocc  Nsocc
   -------------------------------------------------------
     A         93      93       0       0       0       0
   -------------------------------------------------------
    Total      93      93      21      21      21       0
   -------------------------------------------------------

 OEINTS: Overlap, kinetic, potential, dipole, and quadrupole integrals
         stored in file 35.

  ==> Integral Setup <==

  ==> DFJK: Density-Fitted J/K Matrices <==

    J tasked:                  Yes
    K tasked:                  Yes
    wK tasked:                  No
    OpenMP threads:              1
    Integrals threads:           1
    Memory (MB):              1430
    Algorithm:                Core
    Integral Cache:           NONE
    Schwarz Cutoff:          1E-12
    Fitting Condition:       1E-12

   => Auxiliary Basis Set <=

  Basis Set: 
    Number of shells: 201
    Number of basis function: 630
    Number of Cartesian functions: 630
    Spherical Harmonics?: false
    Max angular momentum: 3

  Minimum eigenvalue in the overlap matrix is 4.6344738254E-03.
  Using Symmetric Orthogonalization.
  SCF Guess: Core (One-Electron) Hamiltonian.

  ==> Iterations <==

                           Total Energy        Delta E     RMS |[F,P]|

   @DF-RHF iter   1:  -201.76701985902008   -2.01767e+02   7.99691e-02 
   @DF-RHF iter   2:  -155.26554909249813    4.65015e+01   6.72919e-02 DIIS
   @DF-RHF iter   3:  -211.84447204659364   -5.65789e+01   6.18575e-02 DIIS
   @DF-RHF iter   4:  -239.14526751811519   -2.73008e+01   4.10645e-02 DIIS
   @DF-RHF iter   5:  -247.85332667034379   -8.70806e+00   7.61181e-03 DIIS
   @DF-RHF iter   6:  -248.07307502332179   -2.19748e-01   3.26537e-03 DIIS
   @DF-RHF iter   7:  -248.11597630259183   -4.29013e-02   7.43102e-04 DIIS
   @DF-RHF iter   8:  -248.11858180227102   -2.60550e-03   2.30108e-04 DIIS
   @DF-RHF iter   9:  -248.11889230477317   -3.10503e-04   6.84486e-05 DIIS
   @DF-RHF iter  10:  -248.11892549065669   -3.31859e-05   2.60715e-05 DIIS
   @DF-RHF iter  11:  -248.11893046452212   -4.97387e-06   7.41651e-06 DIIS
   @DF-RHF iter  12:  -248.11893080996242   -3.45440e-07   2.32058e-06 DIIS
   @DF-RHF iter  13:  -248.11893084792786   -3.79654e-08   3.99909e-07 DIIS

  ==> Post-Iterations <==

    Orbital Energies (a.u.)
    -----------------------

    Doubly Occupied:                                                      

       1A    -20.559718     2A    -15.526614     3A    -11.270060  
       4A    -11.268337     5A    -11.242043     6A     -1.385358  
       7A     -1.175248     8A     -0.998686     9A     -0.910421  
      10A     -0.824875    11A     -0.685536    12A     -0.672184  
      13A     -0.645605    14A     -0.631083    15A     -0.588509  
      16A     -0.552643    17A     -0.524565    18A     -0.506498  
      19A     -0.480630    20A     -0.419708    21A     -0.375138  

    Virtual:                                                              

      22A      0.232675    23A      0.253623    24A      0.279964  
      25A      0.290215    26A      0.307779    27A      0.316009  
      28A      0.328759    29A      0.334382    30A      0.350012  
      31A      0.377897    32A      0.426134    33A      0.448276  
      34A      0.452209    35A      0.743558    36A      0.751040  
      37A      0.765291    38A      0.805109    39A      0.818446  
      40A      0.842503    41A      0.863896    42A      0.913674  
      43A      0.962815    44A      1.009700    45A      1.083896  
      46A      1.090938    47A      1.121737    48A      1.128203  
      49A      1.137939    50A      1.157573    51A      1.172163  
      52A      1.210215    53A      1.215204    54A      1.234787  
      55A      1.255717    56A      1.262297    57A      1.317433  
      58A      1.404299    59A      1.432478    60A      1.578555  
      61A      1.616438    62A      1.692292    63A      1.735391  
      64A      1.810581    65A      1.837454    66A      1.931064  
      67A      1.998421    68A      2.074513    69A      2.208656  
      70A      2.224969    71A      2.348106    72A      2.367923  
      73A      2.401588    74A      2.421013    75A      2.456391  
      76A      2.479684    77A      2.538980    78A      2.568623  
      79A      2.666325    80A      2.693489    81A      2.747104  
      82A      2.813039    83A      2.862785    84A      2.899459  
      85A      3.007553    86A      3.084647    87A      3.191045  
      88A      3.336495    89A      4.224625    90A      4.385446  
      91A      4.645888    92A      4.710013    93A      4.885759  

    Final Occupation by Irrep:
              A 
    DOCC [    21 ]

  Energy converged.

  @DF-RHF Final Energy:  -248.11893084792786

   => Energetics <=

    Nuclear Repulsion Energy =            195.2938259309854629
    One-Electron Energy =                -724.3385542166697633
    Two-Electron Energy =                 280.9257974377562732
    DFT Exchange-Correlation Energy =       0.0000000000000000
    Empirical Dispersion Energy =           0.0000000000000000
    PCM Polarization Energy =               0.0000000000000000
    EFP Energy =                            0.0000000000000000
    Total Energy =                       -248.1189308479280271

    Alert: EFP and PCM quantities not currently incorporated into SCF psivars.

Properties will be evaluated at   0.000000,   0.000000,   0.000000 Bohr
  ==> Properties <==


Properties computed using the SCF density matrix

  Nuclear Dipole Moment: (a.u.)
     X:     1.0713      Y:    -1.8658      Z:    -1.6242

  Electronic Dipole Moment: (a.u.)
     X:    -0.5777      Y:     1.2548      Z:     0.8635

  Dipole Moment: (a.u.)
     X:     0.4936      Y:    -0.6110      Z:    -0.7607     Total:     1.0935

  Dipole Moment: (Debye)
     X:     1.2546      Y:    -1.5531      Z:    -1.9335     Total:     2.7793


  Saving occupied orbitals to File 180.

*** tstop() called on cx1-3-6-4.cx1.hpc.ic.ac.uk at Tue Jul  5 16:38:30 2016
Module time:
	user time   =       4.98 seconds =       0.08 minutes
	system time =       0.04 seconds =       0.00 minutes
	total time  =          5 seconds =       0.08 minutes
Total time:
	user time   =       4.98 seconds =       0.08 minutes
	system time =       0.04 seconds =       0.00 minutes
	total time  =          5 seconds =       0.08 minutes


Properties will be evaluated at   0.000000,   0.000000,   0.000000 Bohr

Properties computed using the  density matrix

  Nuclear Dipole Moment: (a.u.)
     X:     1.0713      Y:    -1.8658      Z:    -1.6242

  Electronic Dipole Moment: (a.u.)
     X:    -0.5777      Y:     1.2548      Z:     0.8635

  Dipole Moment: (a.u.)
     X:     0.4936      Y:    -0.6110      Z:    -0.7607     Total:     1.0935

  Dipole Moment: (Debye)
     X:     1.2546      Y:    -1.5531      Z:    -1.9335     Total:     2.7793

  Quadrupole Moment: (Debye Ang)
    XX:   -30.7909     YY:   -31.5729     ZZ:   -34.9262
    XY:     0.9676     XZ:     1.0528     YZ:    -2.5419

  Traceless Quadrupole Moment: (Debye Ang)
    XX:     1.6391     YY:     0.8571     ZZ:    -2.4962
    XY:     0.9676     XZ:     1.0528     YZ:    -2.5419

  Mulliken Charges: (a.u.)
   Center  Symbol    Alpha    Beta     Spin     Total
       1     H     0.33718  0.33718  0.00000  0.32564
       2     N     3.92144  3.92144  0.00000 -0.84288
       3     C     3.07163  3.07163  0.00000 -0.14326
       4     H     0.32171  0.32171  0.00000  0.35657
       5     C     2.99707  2.99707  0.00000  0.00585
       6     H     0.41890  0.41890  0.00000  0.16221
       7     H     0.40934  0.40934  0.00000  0.18132
       8     O     4.30999  4.30999  0.00000 -0.61999
       9     H     0.43412  0.43412  0.00000  0.13176
      10     H     0.43213  0.43213  0.00000  0.13574
      11     C     3.07624  3.07624  0.00000 -0.15248
      12     H     0.43031  0.43031  0.00000  0.13938
      13     H     0.42483  0.42483  0.00000  0.15034
      14     H     0.41511  0.41511  0.00000  0.16978

   Total alpha = 21.00000, Total beta = 21.00000, Total charge =  0.00000


*** PSI4 exiting successfully. Buy a developer a beer!
