    -----------------------------------------------------------------------
          Psi4: An Open-Source Ab Initio Electronic Structure Package
                              Psi4 (no tag) Driver

                          Git: Rev {detached?}  

    J. M. Turney, A. C. Simmonett, R. M. Parrish, E. G. Hohenstein,
    F. A. Evangelista, J. T. Fermann, B. J. Mintz, L. A. Burns, J. J. Wilke,
    M. L. Abrams, N. J. Russ, M. L. Leininger, C. L. Janssen, E. T. Seidl,
    W. D. Allen, H. F. Schaefer, R. A. King, E. F. Valeev, C. D. Sherrill,
    and T. D. Crawford, WIREs Comput. Mol. Sci. 2, 556-565 (2012)
    (doi: 10.1002/wcms.93)

                         Additional Contributions by
    A. E. DePrince, M. Saitow, U. Bozkaya, A. Yu. Sokolov
    -----------------------------------------------------------------------


    Psi4 started on: Tue Jul  5 16:39:15 2016

    Process ID:  15370
    PSI4DATADIR: /export131/home/mjharvey/miniconda3/share
    Memory level set to 256.000 MB

  ==> Input File <==

--------------------------------------------------------------------------
set {
	reference rhf
	basis 6-31G*
}


set_num_threads( 1 )
memory 2 gb

molecule MOL {
0 1

H	 -2.657203	 0.605146	 -0.714293
C	 -1.903182	 1.129109	 -1.288977
C	 -0.611907	 0.322712	 -1.360321
H	 -1.736761	 2.087602	 -0.812659
H	 -2.293561	 1.305291	 -2.285892
C	 -0.000005	 0.033229	 -0.000001
H	 0.134111	 0.840980	 -1.959697
H	 -0.778228	 -0.628489	 -1.862266
C	 1.290528	 -0.768786	 0.000276
O	 -0.504657	 0.414537	 1.011491
C	 2.545731	 0.095645	 -0.000061
H	 1.275672	 -1.427874	 -0.865626
H	 1.275566	 -1.427086	 0.866768
H	 2.577157	 0.734767	 -0.874036
H	 3.433520	 -0.528139	 0.000137
H	 2.577172	 0.735117	 0.873581

	symmetry c1
}
ee = energy('scf')
oeprop('DIPOLE', 'QUADRUPOLE', 'MULLIKEN_CHARGES')
f=open( 'psi4out.xyz', 'w' )
f.write( "16  " )
f.write( str(ee) + "\n" )
f.write( MOL.save_string_xyz() )
f.close()
--------------------------------------------------------------------------

  Memory set to   2.000 GiB by Python script.

*** tstart() called on cx1-3-4-1.cx1.hpc.ic.ac.uk
*** at Tue Jul  5 16:39:15 2016


         ---------------------------------------------------------
                                   SCF
            by Justin Turney, Rob Parrish, and Andy Simmonett
                              RHF Reference
                        1 Threads,   2000 MiB Core
         ---------------------------------------------------------

  ==> Geometry <==

    Molecular point group: c1
    Full point group: C1

    Geometry (in Angstrom), charge = 0, multiplicity = 1:

       Center              X                  Y                   Z               Mass       
    ------------   -----------------  -----------------  -----------------  -----------------
           H         -2.792195976732     0.388020447592    -0.443546420686     1.007825032070
           C         -2.038174976732     0.911983447592    -1.018230420686    12.000000000000
           C         -0.746899976732     0.105586447592    -1.089574420686    12.000000000000
           H         -1.871753976732     1.870476447592    -0.541912420686     1.007825032070
           H         -2.428553976732     1.088165447592    -2.015145420686     1.007825032070
           C         -0.134997976732    -0.183896552408     0.270745579314    12.000000000000
           H         -0.000881976732     0.623854447592    -1.688950420686     1.007825032070
           H         -0.913220976732    -0.845614552408    -1.591519420686     1.007825032070
           C          1.155535023268    -0.985911552408     0.271022579314    12.000000000000
           O         -0.639649976732     0.197411447592     1.282237579314    15.994914619560
           C          2.410738023268    -0.121480552408     0.270685579314    12.000000000000
           H          1.140679023268    -1.644999552408    -0.594879420686     1.007825032070
           H          1.140573023268    -1.644211552408     1.137514579314     1.007825032070
           H          2.442164023268     0.517641447592    -0.603289420686     1.007825032070
           H          3.298527023268    -0.745264552408     0.270883579314     1.007825032070
           H          2.442179023268     0.517991447592     1.144327579314     1.007825032070

  Running in c1 symmetry.

  Rotational constants: A =      0.22684  B =      0.06950  C =      0.06064 [cm^-1]
  Rotational constants: A =   6800.56811  B =   2083.61290  C =   1817.86957 [MHz]
  Nuclear repulsion =  240.162133436800417

  Charge       = 0
  Multiplicity = 1
  Electrons    = 48
  Nalpha       = 24
  Nbeta        = 24

  ==> Algorithm <==

  SCF Algorithm Type is DF.
  DIIS enabled.
  MOM disabled.
  Fractional occupation disabled.
  Guess Type is CORE.
  Energy threshold   = 1.00e-06
  Density threshold  = 1.00e-06
  Integral threshold = 0.00e+00

  ==> Primary Basis <==

  Basis Set: 6-31G*
    Number of shells: 56
    Number of basis function: 110
    Number of Cartesian functions: 110
    Spherical Harmonics?: false
    Max angular momentum: 2

  ==> Pre-Iterations <==

   -------------------------------------------------------
    Irrep   Nso     Nmo     Nalpha   Nbeta   Ndocc  Nsocc
   -------------------------------------------------------
     A        110     110       0       0       0       0
   -------------------------------------------------------
    Total     110     110      24      24      24       0
   -------------------------------------------------------

 OEINTS: Overlap, kinetic, potential, dipole, and quadrupole integrals
         stored in file 35.

  ==> Integral Setup <==

  ==> DFJK: Density-Fitted J/K Matrices <==

    J tasked:                  Yes
    K tasked:                  Yes
    wK tasked:                  No
    OpenMP threads:              1
    Integrals threads:           1
    Memory (MB):              1430
    Algorithm:                Core
    Integral Cache:           NONE
    Schwarz Cutoff:          1E-12
    Fitting Condition:       1E-12

   => Auxiliary Basis Set <=

  Basis Set: 
    Number of shells: 234
    Number of basis function: 736
    Number of Cartesian functions: 736
    Spherical Harmonics?: false
    Max angular momentum: 3

  Minimum eigenvalue in the overlap matrix is 3.6804970708E-03.
  Using Symmetric Orthogonalization.
  SCF Guess: Core (One-Electron) Hamiltonian.

  ==> Iterations <==

                           Total Energy        Delta E     RMS |[F,P]|

   @DF-RHF iter   1:  -195.59324206938996   -1.95593e+02   8.05296e-02 
   @DF-RHF iter   2:  -183.09384846136109    1.24994e+01   6.06752e-02 DIIS
   @DF-RHF iter   3:  -243.48300599274867   -6.03892e+01   4.77162e-02 DIIS
   @DF-RHF iter   4:  -268.93373424760875   -2.54507e+01   1.24281e-02 DIIS
   @DF-RHF iter   5:  -269.90259402246431   -9.68860e-01   4.59095e-03 DIIS
   @DF-RHF iter   6:  -270.01736387847518   -1.14770e-01   1.31582e-03 DIIS
   @DF-RHF iter   7:  -270.02816201831229   -1.07981e-02   5.43812e-04 DIIS
   @DF-RHF iter   8:  -270.03007306661652   -1.91105e-03   1.15598e-04 DIIS
   @DF-RHF iter   9:  -270.03034161183086   -2.68545e-04   6.06841e-05 DIIS
   @DF-RHF iter  10:  -270.03041908616547   -7.74743e-05   2.42616e-05 DIIS
   @DF-RHF iter  11:  -270.03043739264024   -1.83065e-05   9.69246e-06 DIIS
   @DF-RHF iter  12:  -270.03044040011389   -3.00747e-06   4.19711e-06 DIIS
   @DF-RHF iter  13:  -270.03044095089467   -5.50781e-07   1.78251e-06 DIIS
   @DF-RHF iter  14:  -270.03044106569257   -1.14798e-07   6.26355e-07 DIIS

  ==> Post-Iterations <==

    Orbital Energies (a.u.)
    -----------------------

    Doubly Occupied:                                                      

       1A    -20.549707     2A    -11.322934     3A    -11.233568  
       4A    -11.232244     5A    -11.228072     6A    -11.212753  
       7A     -1.394865     8A     -1.072576     9A     -1.036698  
      10A     -0.913651    11A     -0.855234    12A     -0.726478  
      13A     -0.662849    14A     -0.640939    15A     -0.627456  
      16A     -0.600852    17A     -0.566947    18A     -0.541510  
      19A     -0.532319    20A     -0.510979    21A     -0.504117  
      22A     -0.495319    23A     -0.478495    24A     -0.396097  

    Virtual:                                                              

      25A      0.166526    26A      0.221346    27A      0.256611  
      28A      0.274517    29A      0.290752    30A      0.309532  
      31A      0.316608    32A      0.322331    33A      0.335084  
      34A      0.339378    35A      0.367793    36A      0.393395  
      37A      0.412291    38A      0.427600    39A      0.494276  
      40A      0.516451    41A      0.700623    42A      0.716459  
      43A      0.738756    44A      0.749720    45A      0.762327  
      46A      0.796072    47A      0.832568    48A      0.891177  
      49A      0.912787    50A      0.934689    51A      0.953326  
      52A      1.002516    53A      1.036175    54A      1.057486  
      55A      1.093043    56A      1.106223    57A      1.118871  
      58A      1.147263    59A      1.148893    60A      1.175251  
      61A      1.187904    62A      1.199071    63A      1.211338  
      64A      1.227143    65A      1.248087    66A      1.266712  
      67A      1.278081    68A      1.341901    69A      1.363222  
      70A      1.404690    71A      1.514469    72A      1.654903  
      73A      1.712455    74A      1.785867    75A      1.804490  
      76A      1.887243    77A      1.945139    78A      1.998897  
      79A      2.051044    80A      2.104829    81A      2.114040  
      82A      2.115353    83A      2.206383    84A      2.233927  
      85A      2.253056    86A      2.295560    87A      2.317092  
      88A      2.334897    89A      2.448683    90A      2.492126  
      91A      2.597493    92A      2.630065    93A      2.643615  
      94A      2.659144    95A      2.675095    96A      2.693391  
      97A      2.757101    98A      2.853981    99A      2.890812  
     100A      2.988688   101A      3.038497   102A      3.162757  
     103A      3.380467   104A      3.405767   105A      4.444814  
     106A      4.531081   107A      4.639600   108A      4.740055  
     109A      4.910314   110A      4.963429  

    Final Occupation by Irrep:
              A 
    DOCC [    24 ]

  Energy converged.

  @DF-RHF Final Energy:  -270.03044106569257

   => Energetics <=

    Nuclear Repulsion Energy =            240.1621334368004170
    One-Electron Energy =                -841.7117372322386473
    Two-Electron Energy =                 331.5191627297454602
    DFT Exchange-Correlation Energy =       0.0000000000000000
    Empirical Dispersion Energy =           0.0000000000000000
    PCM Polarization Energy =               0.0000000000000000
    EFP Energy =                            0.0000000000000000
    Total Energy =                       -270.0304410656927416

    Alert: EFP and PCM quantities not currently incorporated into SCF psivars.

Properties will be evaluated at   0.000000,   0.000000,   0.000000 Bohr
  ==> Properties <==


Properties computed using the SCF density matrix

  Nuclear Dipole Moment: (a.u.)
     X:     2.3008      Y:     0.1191      Z:    -4.6123

  Electronic Dipole Moment: (a.u.)
     X:    -1.7418      Y:    -0.4741      Z:     3.6499

  Dipole Moment: (a.u.)
     X:     0.5589      Y:    -0.3550      Z:    -0.9624     Total:     1.1682

  Dipole Moment: (Debye)
     X:     1.4207      Y:    -0.9022      Z:    -2.4462     Total:     2.9692


  Saving occupied orbitals to File 180.

*** tstop() called on cx1-3-4-1.cx1.hpc.ic.ac.uk at Tue Jul  5 16:39:25 2016
Module time:
	user time   =       9.68 seconds =       0.16 minutes
	system time =       0.06 seconds =       0.00 minutes
	total time  =         10 seconds =       0.17 minutes
Total time:
	user time   =       9.68 seconds =       0.16 minutes
	system time =       0.06 seconds =       0.00 minutes
	total time  =         10 seconds =       0.17 minutes


Properties will be evaluated at   0.000000,   0.000000,   0.000000 Bohr

Properties computed using the  density matrix

  Nuclear Dipole Moment: (a.u.)
     X:     2.3008      Y:     0.1191      Z:    -4.6123

  Electronic Dipole Moment: (a.u.)
     X:    -1.7418      Y:    -0.4741      Z:     3.6499

  Dipole Moment: (a.u.)
     X:     0.5589      Y:    -0.3550      Z:    -0.9624     Total:     1.1682

  Dipole Moment: (Debye)
     X:     1.4207      Y:    -0.9022      Z:    -2.4462     Total:     2.9692

  Quadrupole Moment: (Debye Ang)
    XX:   -37.7505     YY:   -37.3161     ZZ:   -41.4957
    XY:     0.2249     XZ:     2.4407     YZ:    -0.9556

  Traceless Quadrupole Moment: (Debye Ang)
    XX:     1.1036     YY:     1.5380     ZZ:    -2.6416
    XY:     0.2249     XZ:     2.4407     YZ:    -0.9556

  Mulliken Charges: (a.u.)
   Center  Symbol    Alpha    Beta     Spin     Total
       1     H     0.41050  0.41050  0.00000  0.17901
       2     C     3.23491  3.23491  0.00000 -0.46981
       3     C     3.20961  3.20961  0.00000 -0.41923
       4     H     0.41075  0.41075  0.00000  0.17850
       5     H     0.42041  0.42041  0.00000  0.15919
       6     C     2.73688  2.73688  0.00000  0.52623
       7     H     0.40893  0.40893  0.00000  0.18214
       8     H     0.40860  0.40860  0.00000  0.18280
       9     C     3.19745  3.19745  0.00000 -0.39490
      10     O     4.26266  4.26266  0.00000 -0.52533
      11     C     3.24554  3.24554  0.00000 -0.49108
      12     H     0.41691  0.41691  0.00000  0.16618
      13     H     0.40099  0.40099  0.00000  0.19801
      14     H     0.41815  0.41815  0.00000  0.16369
      15     H     0.41160  0.41160  0.00000  0.17680
      16     H     0.40610  0.40610  0.00000  0.18781

   Total alpha = 24.00000, Total beta = 24.00000, Total charge =  0.00000


*** PSI4 exiting successfully. Buy a developer a beer!
