    -----------------------------------------------------------------------
          Psi4: An Open-Source Ab Initio Electronic Structure Package
                              Psi4 (no tag) Driver

                          Git: Rev {detached?}  

    J. M. Turney, A. C. Simmonett, R. M. Parrish, E. G. Hohenstein,
    F. A. Evangelista, J. T. Fermann, B. J. Mintz, L. A. Burns, J. J. Wilke,
    M. L. Abrams, N. J. Russ, M. L. Leininger, C. L. Janssen, E. T. Seidl,
    W. D. Allen, H. F. Schaefer, R. A. King, E. F. Valeev, C. D. Sherrill,
    and T. D. Crawford, WIREs Comput. Mol. Sci. 2, 556-565 (2012)
    (doi: 10.1002/wcms.93)

                         Additional Contributions by
    A. E. DePrince, M. Saitow, U. Bozkaya, A. Yu. Sokolov
    -----------------------------------------------------------------------


    Psi4 started on: Tue Jul  5 16:25:14 2016

    Process ID:  16729
    PSI4DATADIR: /export131/home/mjharvey/miniconda3/share
    Memory level set to 256.000 MB

  ==> Input File <==

--------------------------------------------------------------------------
set {
	reference rhf
	basis 6-31G*
}


set_num_threads( 1 )
memory 2 gb

molecule MOL {
0 1

H	 -0.825398	 -2.260009	 -0.961201
N	 -0.635097	 -1.300471	 -1.176961
C	 -0.563778	 -0.502042	 0.037919
H	 -1.382839	 -0.981676	 -1.763483
C	 0.575259	 0.508231	 -0.048326
H	 -0.379745	 -1.178195	 0.867464
H	 -1.495719	 0.022884	 0.263049
C	 1.954651	 -0.143624	 0.035137
H	 0.475158	 1.060484	 -0.977307
H	 0.469181	 1.234488	 0.755973
H	 2.103292	 -0.853109	 -0.774172
H	 2.742821	 0.599562	 -0.030094
H	 2.083613	 -0.679371	 0.971560

	symmetry c1
}
set optking {
	frozen_dihedral = ("
		6 3 5 9
	")
}

ee = energy('scf')
oeprop('DIPOLE', 'QUADRUPOLE', 'MULLIKEN_CHARGES')
f=open( 'psi4out.xyz', 'w' )
f.write( "13  " )
f.write( str(ee) + "\n" )
f.write( MOL.save_string_xyz() )
f.close()
--------------------------------------------------------------------------

  Memory set to   2.000 GiB by Python script.

*** tstart() called on cx1-3-15-3.cx1.hpc.ic.ac.uk
*** at Tue Jul  5 16:25:14 2016


         ---------------------------------------------------------
                                   SCF
            by Justin Turney, Rob Parrish, and Andy Simmonett
                              RHF Reference
                        1 Threads,   2000 MiB Core
         ---------------------------------------------------------

  ==> Geometry <==

    Molecular point group: c1
    Full point group: C1

    Geometry (in Angstrom), charge = 0, multiplicity = 1:

       Center              X                  Y                   Z               Mass       
    ------------   -----------------  -----------------  -----------------  -----------------
           H         -1.138910787463    -1.872043119416    -0.659112576238     1.007825032070
           N         -0.948609787463    -0.912505119416    -0.874872576238    14.003074004780
           C         -0.877290787463    -0.114076119416     0.340007423762    12.000000000000
           H         -1.696351787463    -0.593710119416    -1.461394576238     1.007825032070
           C          0.261746212537     0.896196880584     0.253762423762    12.000000000000
           H         -0.693257787463    -0.790229119416     1.169552423762     1.007825032070
           H         -1.809231787463     0.410849880584     0.565137423762     1.007825032070
           C          1.641138212537     0.244341880584     0.337225423762    12.000000000000
           H          0.161645212537     1.448449880584    -0.675218576238     1.007825032070
           H          0.155668212537     1.622453880584     1.058061423762     1.007825032070
           H          1.789779212537    -0.465143119416    -0.472083576238     1.007825032070
           H          2.429308212537     0.987527880584     0.271994423762     1.007825032070
           H          1.770100212537    -0.291405119416     1.273648423762     1.007825032070

  Running in c1 symmetry.

  Rotational constants: A =      0.48302  B =      0.16006  C =      0.14000 [cm^-1]
  Rotational constants: A =  14480.47695  B =   4798.33254  C =   4196.95897 [MHz]
  Nuclear repulsion =  133.564508893137571

  Charge       = 0
  Multiplicity = 1
  Electrons    = 34
  Nalpha       = 17
  Nbeta        = 17

  ==> Algorithm <==

  SCF Algorithm Type is DF.
  DIIS enabled.
  MOM disabled.
  Fractional occupation disabled.
  Guess Type is CORE.
  Energy threshold   = 1.00e-06
  Density threshold  = 1.00e-06
  Integral threshold = 0.00e+00

  ==> Primary Basis <==

  Basis Set: 6-31G*
    Number of shells: 42
    Number of basis function: 78
    Number of Cartesian functions: 78
    Spherical Harmonics?: false
    Max angular momentum: 2

  ==> Pre-Iterations <==

   -------------------------------------------------------
    Irrep   Nso     Nmo     Nalpha   Nbeta   Ndocc  Nsocc
   -------------------------------------------------------
     A         78      78       0       0       0       0
   -------------------------------------------------------
    Total      78      78      17      17      17       0
   -------------------------------------------------------

 OEINTS: Overlap, kinetic, potential, dipole, and quadrupole integrals
         stored in file 35.

  ==> Integral Setup <==

  ==> DFJK: Density-Fitted J/K Matrices <==

    J tasked:                  Yes
    K tasked:                  Yes
    wK tasked:                  No
    OpenMP threads:              1
    Integrals threads:           1
    Memory (MB):              1430
    Algorithm:                Core
    Integral Cache:           NONE
    Schwarz Cutoff:          1E-12
    Fitting Condition:       1E-12

   => Auxiliary Basis Set <=

  Basis Set: 
    Number of shells: 177
    Number of basis function: 549
    Number of Cartesian functions: 549
    Spherical Harmonics?: false
    Max angular momentum: 3

  Minimum eigenvalue in the overlap matrix is 5.2382394128E-03.
  Using Symmetric Orthogonalization.
  SCF Guess: Core (One-Electron) Hamiltonian.

  ==> Iterations <==

                           Total Energy        Delta E     RMS |[F,P]|

   @DF-RHF iter   1:  -134.79967726631921   -1.34800e+02   8.59044e-02 
   @DF-RHF iter   2:  -103.22890791379112    3.15708e+01   8.29625e-02 DIIS
   @DF-RHF iter   3:  -148.76503068131186   -4.55361e+01   5.12852e-02 DIIS
   @DF-RHF iter   4:  -149.62785941385030   -8.62829e-01   6.05310e-02 DIIS
   @DF-RHF iter   5:  -173.18934043681602   -2.35615e+01   4.95156e-03 DIIS
   @DF-RHF iter   6:  -173.26432621852874   -7.49858e-02   2.15579e-03 DIIS
   @DF-RHF iter   7:  -173.27584838487738   -1.15222e-02   9.06748e-04 DIIS
   @DF-RHF iter   8:  -173.27889588182725   -3.04750e-03   3.25394e-04 DIIS
   @DF-RHF iter   9:  -173.27936686759838   -4.70986e-04   9.68395e-05 DIIS
   @DF-RHF iter  10:  -173.27941345831002   -4.65907e-05   2.55723e-05 DIIS
   @DF-RHF iter  11:  -173.27941647888500   -3.02057e-06   6.84202e-06 DIIS
   @DF-RHF iter  12:  -173.27941665601256   -1.77128e-07   2.20615e-06 DIIS
   @DF-RHF iter  13:  -173.27941668030471   -2.42921e-08   3.54120e-07 DIIS

  ==> Post-Iterations <==

    Orbital Energies (a.u.)
    -----------------------

    Doubly Occupied:                                                      

       1A    -15.533345     2A    -11.240241     3A    -11.205735  
       4A    -11.197721     5A     -1.177723     6A     -1.026628  
       7A     -0.899279     8A     -0.788411     9A     -0.667552  
      10A     -0.635349    11A     -0.589132    12A     -0.554973  
      13A     -0.527785    14A     -0.486455    15A     -0.470658  
      16A     -0.466808    17A     -0.380476  

    Virtual:                                                              

      18A      0.223519    19A      0.270638    20A      0.274348  
      21A      0.300925    22A      0.318148    23A      0.332471  
      24A      0.337441    25A      0.358552    26A      0.375904  
      27A      0.410029    28A      0.452904    29A      0.455134  
      30A      0.723930    31A      0.730842    32A      0.761903  
      33A      0.794218    34A      0.813188    35A      0.924689  
      36A      0.947413    37A      0.986373    38A      1.003690  
      39A      1.019376    40A      1.102013    41A      1.139489  
      42A      1.163820    43A      1.175766    44A      1.197813  
      45A      1.220223    46A      1.236432    47A      1.242072  
      48A      1.246054    49A      1.256255    50A      1.266760  
      51A      1.296254    52A      1.537072    53A      1.686977  
      54A      1.721579    55A      1.784520    56A      1.828761  
      57A      1.979751    58A      2.105256    59A      2.186320  
      60A      2.252495    61A      2.282536    62A      2.366701  
      63A      2.399019    64A      2.441135    65A      2.529431  
      66A      2.570886    67A      2.589580    68A      2.701649  
      69A      2.738739    70A      2.806263    71A      2.926527  
      72A      2.975763    73A      3.017496    74A      3.102775  
      75A      4.224273    76A      4.603256    77A      4.783854  
      78A      4.925034  

    Final Occupation by Irrep:
              A 
    DOCC [    17 ]

  Energy converged.

  @DF-RHF Final Energy:  -173.27941668030471

   => Energetics <=

    Nuclear Repulsion Energy =            133.5645088931375710
    One-Electron Energy =                -497.9912560696246828
    Two-Electron Energy =                 191.1473304961825193
    DFT Exchange-Correlation Energy =       0.0000000000000000
    Empirical Dispersion Energy =           0.0000000000000000
    PCM Polarization Energy =               0.0000000000000000
    EFP Energy =                            0.0000000000000000
    Total Energy =                       -173.2794166803045641

    Alert: EFP and PCM quantities not currently incorporated into SCF psivars.

Properties will be evaluated at   0.000000,   0.000000,   0.000000 Bohr
  ==> Properties <==


Properties computed using the SCF density matrix

  Nuclear Dipole Moment: (a.u.)
     X:     0.9109      Y:     0.4308      Z:     1.0062

  Electronic Dipole Moment: (a.u.)
     X:    -1.4812      Y:    -0.5428      Z:    -0.8025

  Dipole Moment: (a.u.)
     X:    -0.5703      Y:    -0.1120      Z:     0.2036     Total:     0.6158

  Dipole Moment: (Debye)
     X:    -1.4496      Y:    -0.2846      Z:     0.5176     Total:     1.5653


  Saving occupied orbitals to File 180.

*** tstop() called on cx1-3-15-3.cx1.hpc.ic.ac.uk at Tue Jul  5 16:25:17 2016
Module time:
	user time   =       2.94 seconds =       0.05 minutes
	system time =       0.03 seconds =       0.00 minutes
	total time  =          3 seconds =       0.05 minutes
Total time:
	user time   =       2.94 seconds =       0.05 minutes
	system time =       0.03 seconds =       0.00 minutes
	total time  =          3 seconds =       0.05 minutes


Properties will be evaluated at   0.000000,   0.000000,   0.000000 Bohr

Properties computed using the  density matrix

  Nuclear Dipole Moment: (a.u.)
     X:     0.9109      Y:     0.4308      Z:     1.0062

  Electronic Dipole Moment: (a.u.)
     X:    -1.4812      Y:    -0.5428      Z:    -0.8025

  Dipole Moment: (a.u.)
     X:    -0.5703      Y:    -0.1120      Z:     0.2036     Total:     0.6158

  Dipole Moment: (Debye)
     X:    -1.4496      Y:    -0.2846      Z:     0.5176     Total:     1.5653

  Quadrupole Moment: (Debye Ang)
    XX:   -25.4940     YY:   -25.9152     ZZ:   -28.1667
    XY:     1.3910     XZ:     1.5471     YZ:    -0.7498

  Traceless Quadrupole Moment: (Debye Ang)
    XX:     1.0313     YY:     0.6101     ZZ:    -1.6414
    XY:     1.3910     XZ:     1.5471     YZ:    -0.7498

  Mulliken Charges: (a.u.)
   Center  Symbol    Alpha    Beta     Spin     Total
       1     H     0.33126  0.33126  0.00000  0.33749
       2     N     3.92168  3.92168  0.00000 -0.84337
       3     C     3.07284  3.07284  0.00000 -0.14567
       4     H     0.33256  0.33256  0.00000  0.33487
       5     C     3.13935  3.13935  0.00000 -0.27870
       6     H     0.42414  0.42414  0.00000  0.15172
       7     H     0.42711  0.42711  0.00000  0.14578
       8     C     3.24256  3.24256  0.00000 -0.48511
       9     H     0.42183  0.42183  0.00000  0.15633
      10     H     0.42834  0.42834  0.00000  0.14333
      11     H     0.40905  0.40905  0.00000  0.18190
      12     H     0.42228  0.42228  0.00000  0.15544
      13     H     0.42701  0.42701  0.00000  0.14598

   Total alpha = 17.00000, Total beta = 17.00000, Total charge = -0.00000


*** PSI4 exiting successfully. Buy a developer a beer!
