    -----------------------------------------------------------------------
          Psi4: An Open-Source Ab Initio Electronic Structure Package
                              Psi4 (no tag) Driver

                          Git: Rev {detached?}  

    J. M. Turney, A. C. Simmonett, R. M. Parrish, E. G. Hohenstein,
    F. A. Evangelista, J. T. Fermann, B. J. Mintz, L. A. Burns, J. J. Wilke,
    M. L. Abrams, N. J. Russ, M. L. Leininger, C. L. Janssen, E. T. Seidl,
    W. D. Allen, H. F. Schaefer, R. A. King, E. F. Valeev, C. D. Sherrill,
    and T. D. Crawford, WIREs Comput. Mol. Sci. 2, 556-565 (2012)
    (doi: 10.1002/wcms.93)

                         Additional Contributions by
    A. E. DePrince, M. Saitow, U. Bozkaya, A. Yu. Sokolov
    -----------------------------------------------------------------------


    Psi4 started on: Tue Jul  5 16:50:43 2016

    Process ID:  26462
    PSI4DATADIR: /export131/home/mjharvey/miniconda3/share
    Memory level set to 256.000 MB

  ==> Input File <==

--------------------------------------------------------------------------
set {
	reference rhf
	basis 6-31G*
}


set_num_threads( 1 )
memory 2 gb

molecule MOL {
0 1

H	 1.585952	 -4.568302	 3.399427
C	 1.641209	 -3.748105	 2.707115
C	 0.668518	 -3.585831	 1.726420
C	 2.677555	 -2.840066	 2.777133
H	 -0.146648	 -4.284042	 1.656888
C	 0.736054	 -2.535355	 0.836961
H	 3.438900	 -2.949709	 3.529076
C	 2.760232	 -1.774514	 1.887064
H	 -0.008383	 -2.398316	 0.074814
C	 1.785506	 -1.622119	 0.913532
H	 3.578277	 -1.085271	 1.967154
O	 1.765256	 -0.628444	 0.000000
C	 2.717705	 -0.606963	 -1.023451
H	 2.477087	 0.138247	 -1.774516
H	 2.695724	 -1.586492	 -1.477158
H	 3.713178	 -0.416918	 -0.635831

	symmetry c1
}
set optking {
	frozen_dihedral = ("
		10 12 13 14
	")
}

ee = energy('scf')
oeprop('DIPOLE', 'QUADRUPOLE', 'MULLIKEN_CHARGES')
f=open( 'psi4out.xyz', 'w' )
f.write( "16  " )
f.write( str(ee) + "\n" )
f.write( MOL.save_string_xyz() )
f.close()
--------------------------------------------------------------------------

  Memory set to   2.000 GiB by Python script.

*** tstart() called on cx1-3-2-1.cx1.hpc.ic.ac.uk
*** at Tue Jul  5 16:50:43 2016


         ---------------------------------------------------------
                                   SCF
            by Justin Turney, Rob Parrish, and Andy Simmonett
                              RHF Reference
                        1 Threads,   2000 MiB Core
         ---------------------------------------------------------

  ==> Geometry <==

    Molecular point group: c1
    Full point group: C1

    Geometry (in Angstrom), charge = 0, multiplicity = 1:

       Center              X                  Y                   Z               Mass       
    ------------   -----------------  -----------------  -----------------  -----------------
           H         -0.279223171013    -2.459310756143     2.245505574760     1.007825032070
           C         -0.223966171013    -1.639113756143     1.553193574760    12.000000000000
           C         -1.196657171013    -1.476839756143     0.572498574760    12.000000000000
           C          0.812379828987    -0.731074756143     1.623211574760    12.000000000000
           H         -2.011823171013    -2.175050756143     0.502966574760     1.007825032070
           C         -1.129121171013    -0.426363756143    -0.316960425240    12.000000000000
           H          1.573724828987    -0.840717756143     2.375154574760     1.007825032070
           C          0.895056828987     0.334477243857     0.733142574760    12.000000000000
           H         -1.873558171013    -0.289324756143    -1.079107425240     1.007825032070
           C         -0.079669171013     0.486872243857    -0.240389425240    12.000000000000
           H          1.713101828987     1.023720243857     0.813232574760     1.007825032070
           O         -0.099919171013     1.480547243857    -1.153921425240    15.994914619560
           C          0.852529828987     1.502028243857    -2.177372425240    12.000000000000
           H          0.611911828987     2.247238243857    -2.928437425240     1.007825032070
           H          0.830548828987     0.522499243857    -2.631079425240     1.007825032070
           H          1.848002828987     1.692073243857    -1.789752425240     1.007825032070

  Running in c1 symmetry.

  Rotational constants: A =      0.16618  B =      0.05194  C =      0.04188 [cm^-1]
  Rotational constants: A =   4981.86788  B =   1557.03810  C =   1255.46000 [MHz]
  Nuclear repulsion =  347.835401492177255

  Charge       = 0
  Multiplicity = 1
  Electrons    = 58
  Nalpha       = 29
  Nbeta        = 29

  ==> Algorithm <==

  SCF Algorithm Type is DF.
  DIIS enabled.
  MOM disabled.
  Fractional occupation disabled.
  Guess Type is CORE.
  Energy threshold   = 1.00e-06
  Density threshold  = 1.00e-06
  Integral threshold = 0.00e+00

  ==> Primary Basis <==

  Basis Set: 6-31G*
    Number of shells: 64
    Number of basis function: 136
    Number of Cartesian functions: 136
    Spherical Harmonics?: false
    Max angular momentum: 2

  ==> Pre-Iterations <==

   -------------------------------------------------------
    Irrep   Nso     Nmo     Nalpha   Nbeta   Ndocc  Nsocc
   -------------------------------------------------------
     A        136     136       0       0       0       0
   -------------------------------------------------------
    Total     136     136      29      29      29       0
   -------------------------------------------------------

 OEINTS: Overlap, kinetic, potential, dipole, and quadrupole integrals
         stored in file 35.

  ==> Integral Setup <==

  ==> DFJK: Density-Fitted J/K Matrices <==

    J tasked:                  Yes
    K tasked:                  Yes
    wK tasked:                  No
    OpenMP threads:              1
    Integrals threads:           1
    Memory (MB):              1430
    Algorithm:                Core
    Integral Cache:           NONE
    Schwarz Cutoff:          1E-12
    Fitting Condition:       1E-12

   => Auxiliary Basis Set <=

  Basis Set: 
    Number of shells: 264
    Number of basis function: 848
    Number of Cartesian functions: 848
    Spherical Harmonics?: false
    Max angular momentum: 3

  Minimum eigenvalue in the overlap matrix is 4.4061808794E-04.
  Using Symmetric Orthogonalization.
  SCF Guess: Core (One-Electron) Hamiltonian.

  ==> Iterations <==

                           Total Energy        Delta E     RMS |[F,P]|

   @DF-RHF iter   1:  -266.72044373257216   -2.66720e+02   6.87795e-02 
   @DF-RHF iter   2:  -244.36939244006948    2.23511e+01   5.34370e-02 DIIS
   @DF-RHF iter   3:  -323.50789521572682   -7.91385e+01   3.31475e-02 DIIS
   @DF-RHF iter   4:  -342.41397477626418   -1.89061e+01   1.41643e-02 DIIS
   @DF-RHF iter   5:  -344.01451084377965   -1.60054e+00   7.82103e-03 DIIS
   @DF-RHF iter   6:  -344.55072936617324   -5.36219e-01   1.43688e-03 DIIS
   @DF-RHF iter   7:  -344.57250620980409   -2.17768e-02   5.23011e-04 DIIS
   @DF-RHF iter   8:  -344.57630891832974   -3.80271e-03   1.59471e-04 DIIS
   @DF-RHF iter   9:  -344.57677158125972   -4.62663e-04   8.19368e-05 DIIS
   @DF-RHF iter  10:  -344.57690923069248   -1.37649e-04   2.99700e-05 DIIS
   @DF-RHF iter  11:  -344.57694479893729   -3.55682e-05   1.10469e-05 DIIS
   @DF-RHF iter  12:  -344.57695009183141   -5.29289e-06   4.38134e-06 DIIS
   @DF-RHF iter  13:  -344.57695101716575   -9.25334e-07   1.69127e-06 DIIS
   @DF-RHF iter  14:  -344.57695112369578   -1.06530e-07   6.58893e-07 DIIS

  ==> Post-Iterations <==

    Orbital Energies (a.u.)
    -----------------------

    Doubly Occupied:                                                      

       1A    -20.569855     2A    -11.288312     3A    -11.276992  
       4A    -11.232940     5A    -11.231342     6A    -11.226656  
       7A    -11.224751     8A    -11.221686     9A     -1.404944  
      10A     -1.146599    11A     -1.018018    12A     -1.014937  
      13A     -0.935234    14A     -0.832345    15A     -0.806174  
      16A     -0.714298    17A     -0.666945    18A     -0.664138  
      19A     -0.645005    20A     -0.611958    21A     -0.595703  
      22A     -0.583889    23A     -0.528037    24A     -0.507598  
      25A     -0.504315    26A     -0.479235    27A     -0.435534  
      28A     -0.334477    29A     -0.317197  

    Virtual:                                                              

      30A      0.146202    31A      0.155437    32A      0.237222  
      33A      0.256852    34A      0.292787    35A      0.305745  
      36A      0.310728    37A      0.321646    38A      0.333439  
      39A      0.339760    40A      0.359696    41A      0.384487  
      42A      0.452695    43A      0.481754    44A      0.487839  
      45A      0.545090    46A      0.561020    47A      0.670021  
      48A      0.703535    49A      0.740668    50A      0.751843  
      51A      0.753145    52A      0.779867    53A      0.803113  
      54A      0.819711    55A      0.822182    56A      0.838028  
      57A      0.842634    58A      0.848470    59A      0.866803  
      60A      0.900019    61A      0.912682    62A      0.928927  
      63A      0.994109    64A      1.017381    65A      1.074315  
      66A      1.109380    67A      1.118419    68A      1.123016  
      69A      1.135858    70A      1.139760    71A      1.165605  
      72A      1.188990    73A      1.199261    74A      1.216656  
      75A      1.225605    76A      1.250169    77A      1.314466  
      78A      1.326188    79A      1.332268    80A      1.376072  
      81A      1.447565    82A      1.455666    83A      1.500026  
      84A      1.502020    85A      1.616686    86A      1.652815  
      87A      1.703223    88A      1.716908    89A      1.737130  
      90A      1.774306    91A      1.789093    92A      1.797495  
      93A      1.868675    94A      1.920348    95A      2.054973  
      96A      2.097959    97A      2.140102    98A      2.180548  
      99A      2.209419   100A      2.264515   101A      2.321601  
     102A      2.325539   103A      2.349341   104A      2.412905  
     105A      2.434935   106A      2.446739   107A      2.461159  
     108A      2.479546   109A      2.518282   110A      2.553295  
     111A      2.568068   112A      2.626785   113A      2.652390  
     114A      2.669698   115A      2.748080   116A      2.868334  
     117A      2.870602   118A      2.920157   119A      3.025327  
     120A      3.057779   121A      3.090539   122A      3.105947  
     123A      3.110211   124A      3.203321   125A      3.265108  
     126A      3.395849   127A      3.535452   128A      3.840380  
     129A      4.474112   130A      4.531518   131A      4.549925  
     132A      4.636210   133A      4.709264   134A      4.764414  
     135A      4.868140   136A      5.181432  

    Final Occupation by Irrep:
              A 
    DOCC [    29 ]

  Energy converged.

  @DF-RHF Final Energy:  -344.57695112369578

   => Energetics <=

    Nuclear Repulsion Energy =            347.8354014921772546
    One-Electron Energy =               -1156.7863376920247447
    Two-Electron Energy =                 464.3739850761513139
    DFT Exchange-Correlation Energy =       0.0000000000000000
    Empirical Dispersion Energy =           0.0000000000000000
    PCM Polarization Energy =               0.0000000000000000
    EFP Energy =                            0.0000000000000000
    Total Energy =                       -344.5769511236962330

    Alert: EFP and PCM quantities not currently incorporated into SCF psivars.

Properties will be evaluated at   0.000000,   0.000000,   0.000000 Bohr
  ==> Properties <==


Properties computed using the SCF density matrix

  Nuclear Dipole Moment: (a.u.)
     X:     2.2613      Y:    -0.2543      Z:    -2.3413

  Electronic Dipole Moment: (a.u.)
     X:    -1.8200      Y:    -0.0221      Z:     2.0974

  Dipole Moment: (a.u.)
     X:     0.4414      Y:    -0.2764      Z:    -0.2438     Total:     0.5750

  Dipole Moment: (Debye)
     X:     1.1218      Y:    -0.7026      Z:    -0.6197     Total:     1.4616


  Saving occupied orbitals to File 180.

*** tstop() called on cx1-3-2-1.cx1.hpc.ic.ac.uk at Tue Jul  5 16:50:55 2016
Module time:
	user time   =      11.24 seconds =       0.19 minutes
	system time =       0.07 seconds =       0.00 minutes
	total time  =         12 seconds =       0.20 minutes
Total time:
	user time   =      11.24 seconds =       0.19 minutes
	system time =       0.07 seconds =       0.00 minutes
	total time  =         12 seconds =       0.20 minutes


Properties will be evaluated at   0.000000,   0.000000,   0.000000 Bohr

Properties computed using the  density matrix

  Nuclear Dipole Moment: (a.u.)
     X:     2.2613      Y:    -0.2543      Z:    -2.3413

  Electronic Dipole Moment: (a.u.)
     X:    -1.8200      Y:    -0.0221      Z:     2.0974

  Dipole Moment: (a.u.)
     X:     0.4414      Y:    -0.2764      Z:    -0.2438     Total:     0.5750

  Dipole Moment: (Debye)
     X:     1.1218      Y:    -0.7026      Z:    -0.6197     Total:     1.4616

  Quadrupole Moment: (Debye Ang)
    XX:   -44.5770     YY:   -47.6368     ZZ:   -43.0275
    XY:     4.5116     XZ:     0.4738     YZ:    -3.3943

  Traceless Quadrupole Moment: (Debye Ang)
    XX:     0.5035     YY:    -2.5564     ZZ:     2.0529
    XY:     4.5116     XZ:     0.4738     YZ:    -3.3943

  Mulliken Charges: (a.u.)
   Center  Symbol    Alpha    Beta     Spin     Total
       1     H     0.39965  0.39965  0.00000  0.20070
       2     C     3.10618  3.10618  0.00000 -0.21237
       3     C     3.09625  3.09625  0.00000 -0.19250
       4     C     3.09623  3.09623  0.00000 -0.19247
       5     H     0.39924  0.39924  0.00000  0.20153
       6     C     3.12061  3.12061  0.00000 -0.24122
       7     H     0.39924  0.39924  0.00000  0.20152
       8     C     3.12549  3.12549  0.00000 -0.25098
       9     H     0.39411  0.39411  0.00000  0.21178
      10     C     2.79711  2.79711  0.00000  0.40578
      11     H     0.39645  0.39645  0.00000  0.20709
      12     O     4.33270  4.33270  0.00000 -0.66541
      13     C     3.08023  3.08023  0.00000 -0.16047
      14     H     0.40941  0.40941  0.00000  0.18119
      15     H     0.42284  0.42284  0.00000  0.15432
      16     H     0.42425  0.42425  0.00000  0.15151

   Total alpha = 29.00000, Total beta = 29.00000, Total charge =  0.00000


*** PSI4 exiting successfully. Buy a developer a beer!
