    -----------------------------------------------------------------------
          Psi4: An Open-Source Ab Initio Electronic Structure Package
                              Psi4 (no tag) Driver

                          Git: Rev {detached?}  

    J. M. Turney, A. C. Simmonett, R. M. Parrish, E. G. Hohenstein,
    F. A. Evangelista, J. T. Fermann, B. J. Mintz, L. A. Burns, J. J. Wilke,
    M. L. Abrams, N. J. Russ, M. L. Leininger, C. L. Janssen, E. T. Seidl,
    W. D. Allen, H. F. Schaefer, R. A. King, E. F. Valeev, C. D. Sherrill,
    and T. D. Crawford, WIREs Comput. Mol. Sci. 2, 556-565 (2012)
    (doi: 10.1002/wcms.93)

                         Additional Contributions by
    A. E. DePrince, M. Saitow, U. Bozkaya, A. Yu. Sokolov
    -----------------------------------------------------------------------


    Psi4 started on: Tue Jul  5 17:53:30 2016

    Process ID:   3207
    PSI4DATADIR: /export131/home/mjharvey/miniconda3/share
    Memory level set to 256.000 MB

  ==> Input File <==

--------------------------------------------------------------------------
set {
	reference rhf
	basis 6-31G*
}


set_num_threads( 1 )
memory 2 gb

molecule MOL {
0 1

O	 -0.644859	 -1.653163	 1.664803
C	 -1.514987	 -1.440192	 0.882411
C	 -2.775654	 -2.260220	 0.784716
O	 -1.481751	 -0.454642	 0.000584
H	 -3.283534	 -2.232827	 1.741360
H	 -3.433563	 -1.896956	 0.009065
H	 -2.505923	 -3.290634	 0.586291
C	 -0.334255	 0.388708	 0.000906
C	 0.891947	 -0.504646	 0.000751
H	 -0.365390	 1.025305	 -0.873475
H	 -0.365484	 1.024911	 0.875569
C	 0.838286	 -1.556101	 -1.109219
H	 0.972990	 -0.989855	 0.969484
H	 1.777328	 0.114301	 -0.115286
C	 -0.165550	 -2.674382	 -0.822711
H	 0.580561	 -1.076907	 -2.052106
H	 1.827151	 -1.989778	 -1.247612
C	 -1.569591	 -2.151369	 -0.522723
H	 0.186978	 -3.266682	 0.018705
H	 -0.205447	 -3.348458	 -1.675412
H	 -1.568128	 -1.500106	 0.346683
H	 -2.257858	 -2.966803	 -0.323744
H	 -1.963632	 -1.582803	 -1.360264

	symmetry c1
}
set optking {
	frozen_dihedral = ("
		13 9 8 10,
		2 4 8 10,
		16 12 9 13,
		19 15 12 16
	")
}

ee = energy('scf')
oeprop('DIPOLE', 'QUADRUPOLE', 'MULLIKEN_CHARGES')
f=open( 'psi4out.xyz', 'w' )
f.write( "23  " )
f.write( str(ee) + "\n" )
f.write( MOL.save_string_xyz() )
f.close()
--------------------------------------------------------------------------

  Memory set to   2.000 GiB by Python script.

*** tstart() called on cx1-3-4-2.cx1.hpc.ic.ac.uk
*** at Tue Jul  5 17:53:30 2016


         ---------------------------------------------------------
                                   SCF
            by Justin Turney, Rob Parrish, and Andy Simmonett
                              RHF Reference
                        1 Threads,   2000 MiB Core
         ---------------------------------------------------------

  ==> Geometry <==

    Molecular point group: c1
    Full point group: C1

    Geometry (in Angstrom), charge = 0, multiplicity = 1:

       Center              X                  Y                   Z               Mass       
    ------------   -----------------  -----------------  -----------------  -----------------
           O          0.125778960581    -0.283119188479     1.556560443412    15.994914619560
           C         -0.744349039419    -0.070148188479     0.774168443412    12.000000000000
           C         -2.005016039419    -0.890176188479     0.676473443412    12.000000000000
           O         -0.711113039419     0.915401811521    -0.107658556588    15.994914619560
           H         -2.512896039419    -0.862783188479     1.633117443412     1.007825032070
           H         -2.662925039419    -0.526912188479    -0.099177556588     1.007825032070
           H         -1.735285039419    -1.920590188479     0.478048443412     1.007825032070
           C          0.436382960581     1.758751811521    -0.107336556588    12.000000000000
           C          1.662584960581     0.865397811521    -0.107491556588    12.000000000000
           H          0.405247960581     2.395348811521    -0.981717556588     1.007825032070
           H          0.405153960581     2.394954811521     0.767326443412     1.007825032070
           C          1.608923960581    -0.186057188479    -1.217461556588    12.000000000000
           H          1.743627960581     0.380188811521     0.861241443412     1.007825032070
           H          2.547965960581     1.484344811521    -0.223528556588     1.007825032070
           C          0.605087960581    -1.304338188479    -0.930953556588    12.000000000000
           H          1.351198960581     0.293136811521    -2.160348556588     1.007825032070
           H          2.597788960581    -0.619734188479    -1.355854556588     1.007825032070
           C         -0.798953039419    -0.781325188479    -0.630965556588    12.000000000000
           H          0.957615960581    -1.896638188479    -0.089537556588     1.007825032070
           H          0.565190960581    -1.978414188479    -1.783654556588     1.007825032070
           H         -0.797490039419    -0.130062188479     0.238440443412     1.007825032070
           H         -1.487220039419    -1.596759188479    -0.431986556588     1.007825032070
           H         -1.192994039419    -0.212759188479    -1.468506556588     1.007825032070

  Running in c1 symmetry.

  Rotational constants: A =      0.08978  B =      0.05848  C =      0.04825 [cm^-1]
  Rotational constants: A =   2691.61101  B =   1753.26722  C =   1446.53598 [MHz]
  Nuclear repulsion =  562.963094553434416

  Charge       = 0
  Multiplicity = 1
  Electrons    = 72
  Nalpha       = 36
  Nbeta        = 36

  ==> Algorithm <==

  SCF Algorithm Type is DF.
  DIIS enabled.
  MOM disabled.
  Fractional occupation disabled.
  Guess Type is CORE.
  Energy threshold   = 1.00e-06
  Density threshold  = 1.00e-06
  Integral threshold = 0.00e+00

  ==> Primary Basis <==

  Basis Set: 6-31G*
    Number of shells: 82
    Number of basis function: 163
    Number of Cartesian functions: 163
    Spherical Harmonics?: false
    Max angular momentum: 2

  ==> Pre-Iterations <==

   -------------------------------------------------------
    Irrep   Nso     Nmo     Nalpha   Nbeta   Ndocc  Nsocc
   -------------------------------------------------------
     A        163     163       0       0       0       0
   -------------------------------------------------------
    Total     163     163      36      36      36       0
   -------------------------------------------------------

 OEINTS: Overlap, kinetic, potential, dipole, and quadrupole integrals
         stored in file 35.

  ==> Integral Setup <==

  ==> DFJK: Density-Fitted J/K Matrices <==

    J tasked:                  Yes
    K tasked:                  Yes
    wK tasked:                  No
    OpenMP threads:              1
    Integrals threads:           1
    Memory (MB):              1430
    Algorithm:                Core
    Integral Cache:           NONE
    Schwarz Cutoff:          1E-12
    Fitting Condition:       1E-12

   => Auxiliary Basis Set <=

  Basis Set: 
    Number of shells: 342
    Number of basis function: 1079
    Number of Cartesian functions: 1079
    Spherical Harmonics?: false
    Max angular momentum: 3

  Minimum eigenvalue in the overlap matrix is 1.0834066915E-04.
  Using Symmetric Orthogonalization.
  SCF Guess: Core (One-Electron) Hamiltonian.

  ==> Iterations <==

                           Total Energy        Delta E     RMS |[F,P]|

   @DF-RHF iter   1:  -273.65119208716703   -2.73651e+02   8.37822e-02 
   @DF-RHF iter   2:  -178.15300636054371    9.54982e+01   6.70960e-02 DIIS
   @DF-RHF iter   3:  -301.04879361319502   -1.22896e+02   6.69573e-02 DIIS
   @DF-RHF iter   4:  -394.78404629268789   -9.37353e+01   3.63496e-02 DIIS
   @DF-RHF iter   5:  -399.60596910957497   -4.82192e+00   3.25838e-02 DIIS
   @DF-RHF iter   6:  -420.78642817587365   -2.11805e+01   7.36510e-03 DIIS
   @DF-RHF iter   7:  -421.37078223065635   -5.84354e-01   2.82624e-03 DIIS
   @DF-RHF iter   8:  -421.46486149446810   -9.40793e-02   6.12965e-04 DIIS
   @DF-RHF iter   9:  -421.47105842580629   -6.19693e-03   2.28888e-04 DIIS
   @DF-RHF iter  10:  -421.47207105467010   -1.01263e-03   5.74691e-05 DIIS
   @DF-RHF iter  11:  -421.47215714391439   -8.60892e-05   1.89644e-05 DIIS
   @DF-RHF iter  12:  -421.47216709387567   -9.94996e-06   8.18137e-06 DIIS
   @DF-RHF iter  13:  -421.47216846388710   -1.37001e-06   2.28530e-06 DIIS
   @DF-RHF iter  14:  -421.47216862080882   -1.56922e-07   8.53014e-07 DIIS

  ==> Post-Iterations <==

    Orbital Energies (a.u.)
    -----------------------

    Doubly Occupied:                                                      

       1A    -20.580274     2A    -20.451317     3A    -11.396622  
       4A    -11.285871     5A    -11.282670     6A    -11.236273  
       7A    -11.231927     8A    -11.221201     9A    -11.197848  
      10A     -1.648272    11A     -1.330013    12A     -1.265932  
      13A     -1.096236    14A     -1.040684    15A     -0.978621  
      16A     -0.913326    17A     -0.836706    18A     -0.785239  
      19A     -0.751921    20A     -0.721527    21A     -0.698750  
      22A     -0.664962    23A     -0.629482    24A     -0.602365  
      25A     -0.592458    26A     -0.586715    27A     -0.567737  
      28A     -0.540066    29A     -0.523516    30A     -0.487070  
      31A     -0.469155    32A     -0.462554    33A     -0.441508  
      34A     -0.387277    35A     -0.371948    36A     -0.320860  

    Virtual:                                                              

      37A      0.187403    38A      0.228584    39A      0.238545  
      40A      0.267107    41A      0.283245    42A      0.290581  
      43A      0.302997    44A      0.310358    45A      0.313073  
      46A      0.325629    47A      0.340515    48A      0.346032  
      49A      0.356210    50A      0.370532    51A      0.395050  
      52A      0.407436    53A      0.413551    54A      0.438660  
      55A      0.455544    56A      0.462384    57A      0.511546  
      58A      0.556876    59A      0.636405    60A      0.689259  
      61A      0.715896    62A      0.727899    63A      0.740760  
      64A      0.756079    65A      0.763346    66A      0.783721  
      67A      0.867258    68A      0.882974    69A      0.895151  
      70A      0.900290    71A      0.921281    72A      0.935582  
      73A      0.984576    74A      0.994971    75A      1.020495  
      76A      1.040545    77A      1.061036    78A      1.080413  
      79A      1.088493    80A      1.117644    81A      1.130087  
      82A      1.136096    83A      1.149593    84A      1.176326  
      85A      1.180724    86A      1.191532    87A      1.196718  
      88A      1.215013    89A      1.226135    90A      1.246892  
      91A      1.253917    92A      1.275118    93A      1.305738  
      94A      1.315535    95A      1.371218    96A      1.377471  
      97A      1.434712    98A      1.463478    99A      1.513096  
     100A      1.534156   101A      1.589850   102A      1.648466  
     103A      1.695854   104A      1.733052   105A      1.768430  
     106A      1.844398   107A      1.849136   108A      1.886286  
     109A      1.927253   110A      1.964104   111A      2.021072  
     112A      2.039508   113A      2.063510   114A      2.081858  
     115A      2.134707   116A      2.160477   117A      2.195847  
     118A      2.213383   119A      2.235913   120A      2.249369  
     121A      2.254548   122A      2.289081   123A      2.321607  
     124A      2.330896   125A      2.370504   126A      2.389003  
     127A      2.397056   128A      2.439554   129A      2.504227  
     130A      2.522525   131A      2.587827   132A      2.605891  
     133A      2.659852   134A      2.662556   135A      2.702591  
     136A      2.709022   137A      2.731541   138A      2.744052  
     139A      2.768321   140A      2.814671   141A      2.834392  
     142A      2.919531   143A      2.952460   144A      2.970542  
     145A      3.009452   146A      3.049257   147A      3.076374  
     148A      3.124393   149A      3.154609   150A      3.311654  
     151A      3.400758   152A      3.455001   153A      3.565250  
     154A      4.533006   155A      4.640958   156A      4.701073  
     157A      4.823253   158A      4.883837   159A      4.923375  
     160A      4.995838   161A      5.049029   162A      5.128757  
     163A      6.278891  

    Final Occupation by Irrep:
              A 
    DOCC [    36 ]

  Energy converged.

  @DF-RHF Final Energy:  -421.47216862080882

   => Energetics <=

    Nuclear Repulsion Energy =            562.9630945534344164
    One-Electron Energy =               -1689.6728632262847896
    Two-Electron Energy =                 705.2376000520398520
    DFT Exchange-Correlation Energy =       0.0000000000000000
    Empirical Dispersion Energy =           0.0000000000000000
    PCM Polarization Energy =               0.0000000000000000
    EFP Energy =                            0.0000000000000000
    Total Energy =                       -421.4721686208104074

    Alert: EFP and PCM quantities not currently incorporated into SCF psivars.

Properties will be evaluated at   0.000000,   0.000000,   0.000000 Bohr
  ==> Properties <==


Properties computed using the SCF density matrix

  Nuclear Dipole Moment: (a.u.)
     X:     0.1706      Y:    -2.6188      Z:    -4.3205

  Electronic Dipole Moment: (a.u.)
     X:    -0.5658      Y:     2.5147      Z:     2.6844

  Dipole Moment: (a.u.)
     X:    -0.3952      Y:    -0.1041      Z:    -1.6361     Total:     1.6864

  Dipole Moment: (Debye)
     X:    -1.0044      Y:    -0.2646      Z:    -4.1586     Total:     4.2864


  Saving occupied orbitals to File 180.

*** tstop() called on cx1-3-4-2.cx1.hpc.ic.ac.uk at Tue Jul  5 17:53:57 2016
Module time:
	user time   =      26.29 seconds =       0.44 minutes
	system time =       0.26 seconds =       0.00 minutes
	total time  =         27 seconds =       0.45 minutes
Total time:
	user time   =      26.29 seconds =       0.44 minutes
	system time =       0.26 seconds =       0.00 minutes
	total time  =         27 seconds =       0.45 minutes


Properties will be evaluated at   0.000000,   0.000000,   0.000000 Bohr

Properties computed using the  density matrix

  Nuclear Dipole Moment: (a.u.)
     X:     0.1706      Y:    -2.6188      Z:    -4.3205

  Electronic Dipole Moment: (a.u.)
     X:    -0.5658      Y:     2.5147      Z:     2.6844

  Dipole Moment: (a.u.)
     X:    -0.3952      Y:    -0.1041      Z:    -1.6361     Total:     1.6864

  Dipole Moment: (Debye)
     X:    -1.0044      Y:    -0.2646      Z:    -4.1586     Total:     4.2864

  Quadrupole Moment: (Debye Ang)
    XX:   -54.9706     YY:   -51.7604     ZZ:   -63.0088
    XY:     3.0293     XZ:     0.6917     YZ:     2.3980

  Traceless Quadrupole Moment: (Debye Ang)
    XX:     1.6093     YY:     4.8195     ZZ:    -6.4289
    XY:     3.0293     XZ:     0.6917     YZ:     2.3980

  Mulliken Charges: (a.u.)
   Center  Symbol    Alpha    Beta     Spin     Total
       1     O     4.37749  4.37749  0.00000 -0.75497
       2     C     2.90692  2.90692  0.00000  0.18617
       3     C     3.32791  3.32791  0.00000 -0.65582
       4     O     4.31985  4.31985  0.00000 -0.63970
       5     H     0.42313  0.42313  0.00000  0.15373
       6     H     0.38989  0.38989  0.00000  0.22023
       7     H     0.40001  0.40001  0.00000  0.19998
       8     C     3.00598  3.00598  0.00000 -0.01197
       9     C     3.20033  3.20033  0.00000 -0.40066
      10     H     0.40851  0.40851  0.00000  0.18298
      11     H     0.40590  0.40590  0.00000  0.18820
      12     C     3.15500  3.15500  0.00000 -0.31000
      13     H     0.36023  0.36023  0.00000  0.27953
      14     H     0.42439  0.42439  0.00000  0.15121
      15     C     3.17306  3.17306  0.00000 -0.34611
      16     H     0.42790  0.42790  0.00000  0.14420
      17     H     0.41408  0.41408  0.00000  0.17184
      18     C     3.20530  3.20530  0.00000 -0.41059
      19     H     0.39498  0.39498  0.00000  0.21004
      20     H     0.41094  0.41094  0.00000  0.17812
      21     H     0.12674  0.12674  0.00000  0.74651
      22     H     0.37118  0.37118  0.00000  0.25763
      23     H     0.37028  0.37028  0.00000  0.25945

   Total alpha = 36.00000, Total beta = 36.00000, Total charge =  0.00000


*** PSI4 exiting successfully. Buy a developer a beer!
