    -----------------------------------------------------------------------
          Psi4: An Open-Source Ab Initio Electronic Structure Package
                              Psi4 (no tag) Driver

                          Git: Rev {detached?}  

    J. M. Turney, A. C. Simmonett, R. M. Parrish, E. G. Hohenstein,
    F. A. Evangelista, J. T. Fermann, B. J. Mintz, L. A. Burns, J. J. Wilke,
    M. L. Abrams, N. J. Russ, M. L. Leininger, C. L. Janssen, E. T. Seidl,
    W. D. Allen, H. F. Schaefer, R. A. King, E. F. Valeev, C. D. Sherrill,
    and T. D. Crawford, WIREs Comput. Mol. Sci. 2, 556-565 (2012)
    (doi: 10.1002/wcms.93)

                         Additional Contributions by
    A. E. DePrince, M. Saitow, U. Bozkaya, A. Yu. Sokolov
    -----------------------------------------------------------------------


    Psi4 started on: Tue Jul  5 16:36:32 2016

    Process ID:  18027
    PSI4DATADIR: /export131/home/mjharvey/miniconda3/share
    Memory level set to 256.000 MB

  ==> Input File <==

--------------------------------------------------------------------------
set {
	reference rhf
	basis 6-31G*
}


set_num_threads( 1 )
memory 2 gb

molecule MOL {
0 1

O	 -0.682937	 1.318834	 -0.186099
C	 -0.860635	 0.152188	 -0.042321
C	 -2.173363	 -0.477127	 0.338347
O	 0.083258	 -0.765189	 -0.202595
H	 -2.477673	 -1.180929	 -0.427595
H	 -2.923125	 0.290956	 0.455536
H	 -2.058825	 -1.029004	 1.264191
C	 1.434266	 -0.403823	 0.074876
C	 1.948054	 0.628310	 -0.911719
H	 2.047628	 -1.292016	 0.068575
H	 1.406699	 -0.001332	 1.077244
H	 2.949583	 0.938751	 -0.630123
H	 1.988129	 0.218446	 -1.913105
H	 1.308258	 1.504132	 -0.915343

	symmetry c1
}
set optking {
	frozen_dihedral = ("
		10 8 4 2
	")
}

ee = energy('scf')
oeprop('DIPOLE', 'QUADRUPOLE', 'MULLIKEN_CHARGES')
f=open( 'psi4out.xyz', 'w' )
f.write( "14  " )
f.write( str(ee) + "\n" )
f.write( MOL.save_string_xyz() )
f.close()
--------------------------------------------------------------------------

  Memory set to   2.000 GiB by Python script.

*** tstart() called on cx1-1-2-4.cx1.hpc.ic.ac.uk
*** at Tue Jul  5 16:36:33 2016


         ---------------------------------------------------------
                                   SCF
            by Justin Turney, Rob Parrish, and Andy Simmonett
                              RHF Reference
                        1 Threads,   2000 MiB Core
         ---------------------------------------------------------

  ==> Geometry <==

    Molecular point group: c1
    Full point group: C1

    Geometry (in Angstrom), charge = 0, multiplicity = 1:

       Center              X                  Y                   Z               Mass       
    ------------   -----------------  -----------------  -----------------  -----------------
           O         -0.647120349894     1.238259585599    -0.030106282865    15.994914619560
           C         -0.824818349894     0.071613585599     0.113671717135    12.000000000000
           C         -2.137546349894    -0.557701414401     0.494339717135    12.000000000000
           O          0.119074650106    -0.845763414401    -0.046602282865    15.994914619560
           H         -2.441856349894    -1.261503414401    -0.271602282865     1.007825032070
           H         -2.887308349894     0.210381585599     0.611528717135     1.007825032070
           H         -2.023008349894    -1.109578414401     1.420183717135     1.007825032070
           C          1.470082650106    -0.484397414401     0.230868717135    12.000000000000
           C          1.983870650106     0.547735585599    -0.755726282865    12.000000000000
           H          2.083444650106    -1.372590414401     0.224567717135     1.007825032070
           H          1.442515650106    -0.081906414401     1.233236717135     1.007825032070
           H          2.985399650106     0.858176585599    -0.474130282865     1.007825032070
           H          2.023945650106     0.137871585599    -1.757112282865     1.007825032070
           H          1.344074650106     1.423557585599    -0.759350282865     1.007825032070

  Running in c1 symmetry.

  Rotational constants: A =      0.26346  B =      0.08416  C =      0.06838 [cm^-1]
  Rotational constants: A =   7898.18341  B =   2522.94493  C =   2050.03845 [MHz]
  Nuclear repulsion =  250.881937582906488

  Charge       = 0
  Multiplicity = 1
  Electrons    = 48
  Nalpha       = 24
  Nbeta        = 24

  ==> Algorithm <==

  SCF Algorithm Type is DF.
  DIIS enabled.
  MOM disabled.
  Fractional occupation disabled.
  Guess Type is CORE.
  Energy threshold   = 1.00e-06
  Density threshold  = 1.00e-06
  Integral threshold = 0.00e+00

  ==> Primary Basis <==

  Basis Set: 6-31G*
    Number of shells: 52
    Number of basis function: 106
    Number of Cartesian functions: 106
    Spherical Harmonics?: false
    Max angular momentum: 2

  ==> Pre-Iterations <==

   -------------------------------------------------------
    Irrep   Nso     Nmo     Nalpha   Nbeta   Ndocc  Nsocc
   -------------------------------------------------------
     A        106     106       0       0       0       0
   -------------------------------------------------------
    Total     106     106      24      24      24       0
   -------------------------------------------------------

 OEINTS: Overlap, kinetic, potential, dipole, and quadrupole integrals
         stored in file 35.

  ==> Integral Setup <==

  ==> DFJK: Density-Fitted J/K Matrices <==

    J tasked:                  Yes
    K tasked:                  Yes
    wK tasked:                  No
    OpenMP threads:              1
    Integrals threads:           1
    Memory (MB):              1430
    Algorithm:                Core
    Integral Cache:           NONE
    Schwarz Cutoff:          1E-12
    Fitting Condition:       1E-12

   => Auxiliary Basis Set <=

  Basis Set: 
    Number of shells: 216
    Number of basis function: 686
    Number of Cartesian functions: 686
    Spherical Harmonics?: false
    Max angular momentum: 3

  Minimum eigenvalue in the overlap matrix is 3.8950528235E-03.
  Using Symmetric Orthogonalization.
  SCF Guess: Core (One-Electron) Hamiltonian.

  ==> Iterations <==

                           Total Energy        Delta E     RMS |[F,P]|

   @DF-RHF iter   1:  -236.28530083311571   -2.36285e+02   8.49108e-02 
   @DF-RHF iter   2:  -221.09540268833760    1.51899e+01   6.30130e-02 DIIS
   @DF-RHF iter   3:  -275.67703930399705   -5.45816e+01   5.66879e-02 DIIS
   @DF-RHF iter   4:  -298.44316293779957   -2.27661e+01   2.62208e-02 DIIS
   @DF-RHF iter   5:  -305.20930465293657   -6.76614e+00   9.81963e-03 DIIS
   @DF-RHF iter   6:  -305.81040971437278   -6.01105e-01   3.02357e-03 DIIS
   @DF-RHF iter   7:  -305.85818577909083   -4.77761e-02   9.48167e-04 DIIS
   @DF-RHF iter   8:  -305.86222048061211   -4.03470e-03   5.02220e-04 DIIS
   @DF-RHF iter   9:  -305.86331216080725   -1.09168e-03   2.39260e-04 DIIS
   @DF-RHF iter  10:  -305.86364723218230   -3.35071e-04   7.25287e-05 DIIS
   @DF-RHF iter  11:  -305.86368598938679   -3.87572e-05   1.96018e-05 DIIS
   @DF-RHF iter  12:  -305.86368852090015   -2.53151e-06   5.30491e-06 DIIS
   @DF-RHF iter  13:  -305.86368882552586   -3.04626e-07   1.44369e-06 DIIS
   @DF-RHF iter  14:  -305.86368885109766   -2.55718e-08   5.60231e-07 DIIS

  ==> Post-Iterations <==

    Orbital Energies (a.u.)
    -----------------------

    Doubly Occupied:                                                      

       1A    -20.596882     2A    -20.547386     3A    -11.378399  
       4A    -11.289144     5A    -11.234136     6A    -11.205482  
       7A     -1.467928     8A     -1.365092     9A     -1.053135  
      10A     -0.995875    11A     -0.881922    12A     -0.764350  
      13A     -0.701120    14A     -0.683179    15A     -0.660886  
      16A     -0.606692    17A     -0.587146    18A     -0.570685  
      19A     -0.555750    20A     -0.533652    21A     -0.508316  
      22A     -0.494647    23A     -0.448918    24A     -0.430180  

    Virtual:                                                              

      25A      0.188385    26A      0.246320    27A      0.264489  
      28A      0.293214    29A      0.301493    30A      0.307603  
      31A      0.323388    32A      0.335704    33A      0.348891  
      34A      0.375623    35A      0.413369    36A      0.421785  
      37A      0.508767    38A      0.560902    39A      0.713274  
      40A      0.730198    41A      0.748055    42A      0.754961  
      43A      0.777879    44A      0.807821    45A      0.816324  
      46A      0.857775    47A      0.898295    48A      0.915630  
      49A      0.975771    50A      1.011889    51A      1.066456  
      52A      1.100754    53A      1.129616    54A      1.140338  
      55A      1.170625    56A      1.178891    57A      1.193455  
      58A      1.208984    59A      1.217818    60A      1.266100  
      61A      1.278808    62A      1.310464    63A      1.342558  
      64A      1.400466    65A      1.440718    66A      1.498073  
      67A      1.595185    68A      1.636439    69A      1.721678  
      70A      1.747350    71A      1.812764    72A      1.843471  
      73A      1.911687    74A      1.987547    75A      2.039200  
      76A      2.093610    77A      2.098168    78A      2.155840  
      79A      2.192091    80A      2.236949    81A      2.284621  
      82A      2.307184    83A      2.348486    84A      2.421075  
      85A      2.452664    86A      2.541771    87A      2.559549  
      88A      2.591279    89A      2.669157    90A      2.699485  
      91A      2.714998    92A      2.793705    93A      2.822920  
      94A      2.881864    95A      3.010314    96A      3.126401  
      97A      3.153123    98A      3.351326    99A      3.395514  
     100A      3.536514   101A      4.402755   102A      4.522413  
     103A      4.625506   104A      4.654254   105A      4.821819  
     106A      4.903308  

    Final Occupation by Irrep:
              A 
    DOCC [    24 ]

  Energy converged.

  @DF-RHF Final Energy:  -305.86368885109766

   => Energetics <=

    Nuclear Repulsion Energy =            250.8819375829064882
    One-Electron Energy =                -914.3694698079093541
    Two-Electron Energy =                 357.6238433739048901
    DFT Exchange-Correlation Energy =       0.0000000000000000
    Empirical Dispersion Energy =           0.0000000000000000
    PCM Polarization Energy =               0.0000000000000000
    EFP Energy =                            0.0000000000000000
    Total Energy =                       -305.8636888510979475

    Alert: EFP and PCM quantities not currently incorporated into SCF psivars.

Properties will be evaluated at   0.000000,   0.000000,   0.000000 Bohr
  ==> Properties <==


Properties computed using the SCF density matrix

  Nuclear Dipole Moment: (a.u.)
     X:     2.3666      Y:    -1.1189      Z:     0.2127

  Electronic Dipole Moment: (a.u.)
     X:    -2.2454      Y:     0.3865      Z:     0.1293

  Dipole Moment: (a.u.)
     X:     0.1212      Y:    -0.7324      Z:     0.3420     Total:     0.8174

  Dipole Moment: (Debye)
     X:     0.3082      Y:    -1.8616      Z:     0.8693     Total:     2.0775


  Saving occupied orbitals to File 180.

*** tstop() called on cx1-1-2-4.cx1.hpc.ic.ac.uk at Tue Jul  5 16:36:38 2016
Module time:
	user time   =       5.43 seconds =       0.09 minutes
	system time =       0.04 seconds =       0.00 minutes
	total time  =          5 seconds =       0.08 minutes
Total time:
	user time   =       5.43 seconds =       0.09 minutes
	system time =       0.04 seconds =       0.00 minutes
	total time  =          5 seconds =       0.08 minutes


Properties will be evaluated at   0.000000,   0.000000,   0.000000 Bohr

Properties computed using the  density matrix

  Nuclear Dipole Moment: (a.u.)
     X:     2.3666      Y:    -1.1189      Z:     0.2127

  Electronic Dipole Moment: (a.u.)
     X:    -2.2454      Y:     0.3865      Z:     0.1293

  Dipole Moment: (a.u.)
     X:     0.1212      Y:    -0.7324      Z:     0.3420     Total:     0.8174

  Dipole Moment: (Debye)
     X:     0.3082      Y:    -1.8616      Z:     0.8693     Total:     2.0775

  Quadrupole Moment: (Debye Ang)
    XX:   -31.3154     YY:   -41.1257     ZZ:   -35.6049
    XY:     1.5404     XZ:    -0.0938     YZ:    -0.2685

  Traceless Quadrupole Moment: (Debye Ang)
    XX:     4.7000     YY:    -5.1104     ZZ:     0.4104
    XY:     1.5404     XZ:    -0.0938     YZ:    -0.2685

  Mulliken Charges: (a.u.)
   Center  Symbol    Alpha    Beta     Spin     Total
       1     O     4.27946  4.27946  0.00000 -0.55891
       2     C     2.61917  2.61917  0.00000  0.76166
       3     C     3.28150  3.28150  0.00000 -0.56300
       4     O     4.30930  4.30930  0.00000 -0.61860
       5     H     0.39894  0.39894  0.00000  0.20212
       6     H     0.39780  0.39780  0.00000  0.20440
       7     H     0.40200  0.40200  0.00000  0.19600
       8     C     3.00618  3.00618  0.00000 -0.01237
       9     C     3.26166  3.26166  0.00000 -0.52331
      10     H     0.40608  0.40608  0.00000  0.18785
      11     H     0.41660  0.41660  0.00000  0.16679
      12     H     0.42329  0.42329  0.00000  0.15342
      13     H     0.41735  0.41735  0.00000  0.16530
      14     H     0.38068  0.38068  0.00000  0.23864

   Total alpha = 24.00000, Total beta = 24.00000, Total charge = -0.00000


*** PSI4 exiting successfully. Buy a developer a beer!
