    -----------------------------------------------------------------------
          Psi4: An Open-Source Ab Initio Electronic Structure Package
                              Psi4 (no tag) Driver

                          Git: Rev {detached?}  

    J. M. Turney, A. C. Simmonett, R. M. Parrish, E. G. Hohenstein,
    F. A. Evangelista, J. T. Fermann, B. J. Mintz, L. A. Burns, J. J. Wilke,
    M. L. Abrams, N. J. Russ, M. L. Leininger, C. L. Janssen, E. T. Seidl,
    W. D. Allen, H. F. Schaefer, R. A. King, E. F. Valeev, C. D. Sherrill,
    and T. D. Crawford, WIREs Comput. Mol. Sci. 2, 556-565 (2012)
    (doi: 10.1002/wcms.93)

                         Additional Contributions by
    A. E. DePrince, M. Saitow, U. Bozkaya, A. Yu. Sokolov
    -----------------------------------------------------------------------


    Psi4 started on: Tue Jul  5 16:36:36 2016

    Process ID:  28947
    PSI4DATADIR: /export131/home/mjharvey/miniconda3/share
    Memory level set to 256.000 MB

  ==> Input File <==

--------------------------------------------------------------------------
set {
	reference rhf
	basis 6-31G*
}


set_num_threads( 1 )
memory 2 gb

molecule MOL {
0 1

H	 0.625057	 -5.287399	 0.778736
C	 0.825644	 -4.463699	 0.101215
C	 -0.368382	 -3.513462	 0.021752
H	 1.712839	 -3.949999	 0.460692
H	 1.060254	 -4.886474	 -0.871650
C	 -0.127859	 -2.340084	 -0.922563
H	 -0.602189	 -3.122079	 1.006913
H	 -1.246515	 -4.065771	 -0.308744
N	 -1.268658	 -1.446027	 -0.948991
H	 0.733030	 -1.773380	 -0.578062
H	 0.128795	 -2.717702	 -1.918008
C	 -1.217365	 -0.386708	 0.039277
H	 -1.355622	 -1.044301	 -1.863373
C	 -2.452633	 0.504241	 -0.042481
H	 -1.172857	 -0.848333	 1.022069
H	 -0.315698	 0.227728	 -0.054795
C	 -3.758029	 -0.289423	 -0.010781
H	 -2.394220	 1.093569	 -0.952170
H	 -2.440793	 1.210787	 0.785871
H	 -3.816659	 -0.981993	 -0.845726
H	 -4.617837	 0.370165	 -0.069296
H	 -3.847478	 -0.867502	 0.904682

	symmetry c1
}
set optking {
	frozen_dihedral = ("
		15 12 14 18
	")
}

ee = energy('scf')
oeprop('DIPOLE', 'QUADRUPOLE', 'MULLIKEN_CHARGES')
f=open( 'psi4out.xyz', 'w' )
f.write( "22  " )
f.write( str(ee) + "\n" )
f.write( MOL.save_string_xyz() )
f.close()
--------------------------------------------------------------------------

  Memory set to   2.000 GiB by Python script.

*** tstart() called on cx1-3-1-3.cx1.hpc.ic.ac.uk
*** at Tue Jul  5 16:36:36 2016


         ---------------------------------------------------------
                                   SCF
            by Justin Turney, Rob Parrish, and Andy Simmonett
                              RHF Reference
                        1 Threads,   2000 MiB Core
         ---------------------------------------------------------

  ==> Geometry <==

    Molecular point group: c1
    Full point group: C1

    Geometry (in Angstrom), charge = 0, multiplicity = 1:

       Center              X                  Y                   Z               Mass       
    ------------   -----------------  -----------------  -----------------  -----------------
           H          1.818048347939    -3.576868560013     1.031644381050     1.007825032070
           C          2.018635347939    -2.753168560013     0.354123381050    12.000000000000
           C          0.824609347939    -1.802931560013     0.274660381050    12.000000000000
           H          2.905830347939    -2.239468560013     0.713600381050     1.007825032070
           H          2.253245347939    -3.175943560013    -0.618741618950     1.007825032070
           C          1.065132347939    -0.629553560013    -0.669654618950    12.000000000000
           H          0.590802347939    -1.411548560013     1.259821381050     1.007825032070
           H         -0.053523652061    -2.355240560013    -0.055835618950     1.007825032070
           N         -0.075666652061     0.264503439987    -0.696082618950    14.003074004780
           H          1.926021347939    -0.062849560013    -0.325153618950     1.007825032070
           H          1.321786347939    -1.007171560013    -1.665099618950     1.007825032070
           C         -0.024373652061     1.323822439987     0.292185381050    12.000000000000
           H         -0.162630652061     0.666229439987    -1.610464618950     1.007825032070
           C         -1.259641652061     2.214771439987     0.210427381050    12.000000000000
           H          0.020134347939     0.862197439987     1.274977381050     1.007825032070
           H          0.877293347939     1.938258439987     0.198113381050     1.007825032070
           C         -2.565037652061     1.421107439987     0.242127381050    12.000000000000
           H         -1.201228652061     2.804099439987    -0.699261618950     1.007825032070
           H         -1.247801652061     2.921317439987     1.038779381050     1.007825032070
           H         -2.623667652061     0.728537439987    -0.592817618950     1.007825032070
           H         -3.424845652061     2.080695439987     0.183612381050     1.007825032070
           H         -2.654486652061     0.843028439987     1.157590381050     1.007825032070

  Running in c1 symmetry.

  Rotational constants: A =      0.21189  B =      0.03344  C =      0.03193 [cm^-1]
  Rotational constants: A =   6352.17202  B =   1002.44049  C =    957.12375 [MHz]
  Nuclear repulsion =  322.481996052319744

  Charge       = 0
  Multiplicity = 1
  Electrons    = 58
  Nalpha       = 29
  Nbeta        = 29

  ==> Algorithm <==

  SCF Algorithm Type is DF.
  DIIS enabled.
  MOM disabled.
  Fractional occupation disabled.
  Guess Type is CORE.
  Energy threshold   = 1.00e-06
  Density threshold  = 1.00e-06
  Integral threshold = 0.00e+00

  ==> Primary Basis <==

  Basis Set: 6-31G*
    Number of shells: 72
    Number of basis function: 135
    Number of Cartesian functions: 135
    Spherical Harmonics?: false
    Max angular momentum: 2

  ==> Pre-Iterations <==

   -------------------------------------------------------
    Irrep   Nso     Nmo     Nalpha   Nbeta   Ndocc  Nsocc
   -------------------------------------------------------
     A        135     135       0       0       0       0
   -------------------------------------------------------
    Total     135     135      29      29      29       0
   -------------------------------------------------------

 OEINTS: Overlap, kinetic, potential, dipole, and quadrupole integrals
         stored in file 35.

  ==> Integral Setup <==

  ==> DFJK: Density-Fitted J/K Matrices <==

    J tasked:                  Yes
    K tasked:                  Yes
    wK tasked:                  No
    OpenMP threads:              1
    Integrals threads:           1
    Memory (MB):              1430
    Algorithm:                Core
    Integral Cache:           NONE
    Schwarz Cutoff:          1E-12
    Fitting Condition:       1E-12

   => Auxiliary Basis Set <=

  Basis Set: 
    Number of shells: 303
    Number of basis function: 942
    Number of Cartesian functions: 942
    Spherical Harmonics?: false
    Max angular momentum: 3

  Minimum eigenvalue in the overlap matrix is 3.7017319460E-03.
  Using Symmetric Orthogonalization.
  SCF Guess: Core (One-Electron) Hamiltonian.

  ==> Iterations <==

                           Total Energy        Delta E     RMS |[F,P]|

   @DF-RHF iter   1:  -206.51351699551179   -2.06514e+02   6.97317e-02 
   @DF-RHF iter   2:  -148.30719069683028    5.82063e+01   6.78161e-02 DIIS
   @DF-RHF iter   3:  -247.92949160965026   -9.96223e+01   3.84218e-02 DIIS
   @DF-RHF iter   4:  -174.02730858232638    7.39022e+01   7.09784e-02 DIIS
   @DF-RHF iter   5:  -282.72670029197326   -1.08699e+02   2.15404e-02 DIIS
   @DF-RHF iter   6:  -289.96857838327145   -7.24188e+00   6.49134e-03 DIIS
   @DF-RHF iter   7:  -290.34931031779109   -3.80732e-01   1.67738e-03 DIIS
   @DF-RHF iter   8:  -290.37508336892353   -2.57731e-02   4.49113e-04 DIIS
   @DF-RHF iter   9:  -290.37785530556556   -2.77194e-03   1.30157e-04 DIIS
   @DF-RHF iter  10:  -290.37806156110406   -2.06256e-04   3.92140e-05 DIIS
   @DF-RHF iter  11:  -290.37808661196237   -2.50509e-05   1.16033e-05 DIIS
   @DF-RHF iter  12:  -290.37808915784871   -2.54589e-06   3.27528e-06 DIIS
   @DF-RHF iter  13:  -290.37808930598902   -1.48140e-07   1.17780e-06 DIIS
   @DF-RHF iter  14:  -290.37808932849379   -2.25048e-08   2.62088e-07 DIIS

  ==> Post-Iterations <==

    Orbital Energies (a.u.)
    -----------------------

    Doubly Occupied:                                                      

       1A    -15.533536     2A    -11.239170     3A    -11.238728  
       4A    -11.214097     5A    -11.207847     6A    -11.206685  
       7A    -11.199364     8A     -1.207307     9A     -1.055227  
      10A     -1.021031    11A     -0.924408    12A     -0.879068  
      13A     -0.804311    14A     -0.785211    15A     -0.656730  
      16A     -0.637775    17A     -0.623914    18A     -0.602802  
      19A     -0.571743    20A     -0.564804    21A     -0.538923  
      22A     -0.518447    23A     -0.494528    24A     -0.491778  
      25A     -0.475097    26A     -0.474949    27A     -0.458056  
      28A     -0.454793    29A     -0.356920  

    Virtual:                                                              

      30A      0.229037    31A      0.241558    32A      0.254746  
      33A      0.279301    34A      0.289478    35A      0.305135  
      36A      0.309450    37A      0.316940    38A      0.329933  
      39A      0.333108    40A      0.343601    41A      0.349385  
      42A      0.356596    43A      0.367655    44A      0.395400  
      45A      0.414942    46A      0.418187    47A      0.430895  
      48A      0.455539    49A      0.461319    50A      0.483424  
      51A      0.720468    52A      0.729035    53A      0.736167  
      54A      0.738533    55A      0.755801    56A      0.769290  
      57A      0.783526    58A      0.804540    59A      0.838894  
      60A      0.883822    61A      0.931370    62A      0.948364  
      63A      0.958242    64A      0.969794    65A      0.979178  
      66A      1.017081    67A      1.079066    68A      1.100218  
      69A      1.117959    70A      1.132949    71A      1.151319  
      72A      1.160703    73A      1.170224    74A      1.184515  
      75A      1.188388    76A      1.199392    77A      1.206972  
      78A      1.212983    79A      1.222187    80A      1.230596  
      81A      1.249544    82A      1.257300    83A      1.262761  
      84A      1.285408    85A      1.304903    86A      1.354260  
      87A      1.445447    88A      1.494304    89A      1.605975  
      90A      1.672665    91A      1.697976    92A      1.724332  
      93A      1.739605    94A      1.849166    95A      1.851828  
      96A      1.936180    97A      1.978661    98A      1.993877  
      99A      2.123363   100A      2.133673   101A      2.188545  
     102A      2.210155   103A      2.274193   104A      2.282950  
     105A      2.293938   106A      2.316602   107A      2.340828  
     108A      2.360586   109A      2.399520   110A      2.443580  
     111A      2.498645   112A      2.526640   113A      2.573356  
     114A      2.618760   115A      2.659067   116A      2.675120  
     117A      2.701741   118A      2.704708   119A      2.749079  
     120A      2.777138   121A      2.823986   122A      2.846202  
     123A      2.906329   124A      3.000306   125A      3.054214  
     126A      3.100095   127A      3.145308   128A      3.271804  
     129A      4.394704   130A      4.609932   131A      4.619171  
     132A      4.759404   133A      4.774617   134A      4.916919  
     135A      4.960542  

    Final Occupation by Irrep:
              A 
    DOCC [    29 ]

  Energy converged.

  @DF-RHF Final Energy:  -290.37808932849379

   => Energetics <=

    Nuclear Repulsion Energy =            322.4819960523197437
    One-Electron Energy =               -1030.8456079710815629
    Two-Electron Energy =                 417.9855225902701932
    DFT Exchange-Correlation Energy =       0.0000000000000000
    Empirical Dispersion Energy =           0.0000000000000000
    PCM Polarization Energy =               0.0000000000000000
    EFP Energy =                            0.0000000000000000
    Total Energy =                       -290.3780893284915692

    Alert: EFP and PCM quantities not currently incorporated into SCF psivars.

Properties will be evaluated at   0.000000,   0.000000,   0.000000 Bohr
  ==> Properties <==


Properties computed using the SCF density matrix

  Nuclear Dipole Moment: (a.u.)
     X:     0.3236      Y:    -0.9239      Z:     1.2121

  Electronic Dipole Moment: (a.u.)
     X:    -0.0247      Y:     1.1625      Z:    -1.3718

  Dipole Moment: (a.u.)
     X:     0.2989      Y:     0.2386      Z:    -0.1598     Total:     0.4145

  Dipole Moment: (Debye)
     X:     0.7599      Y:     0.6064      Z:    -0.4061     Total:     1.0536


  Saving occupied orbitals to File 180.

*** tstop() called on cx1-3-1-3.cx1.hpc.ic.ac.uk at Tue Jul  5 16:36:49 2016
Module time:
	user time   =      12.55 seconds =       0.21 minutes
	system time =       0.06 seconds =       0.00 minutes
	total time  =         13 seconds =       0.22 minutes
Total time:
	user time   =      12.55 seconds =       0.21 minutes
	system time =       0.06 seconds =       0.00 minutes
	total time  =         13 seconds =       0.22 minutes


Properties will be evaluated at   0.000000,   0.000000,   0.000000 Bohr

Properties computed using the  density matrix

  Nuclear Dipole Moment: (a.u.)
     X:     0.3236      Y:    -0.9239      Z:     1.2121

  Electronic Dipole Moment: (a.u.)
     X:    -0.0247      Y:     1.1625      Z:    -1.3718

  Dipole Moment: (a.u.)
     X:     0.2989      Y:     0.2386      Z:    -0.1598     Total:     0.4145

  Dipole Moment: (Debye)
     X:     0.7599      Y:     0.6064      Z:    -0.4061     Total:     1.0536

  Quadrupole Moment: (Debye Ang)
    XX:   -49.5538     YY:   -47.3082     ZZ:   -45.2001
    XY:    -0.1333     XZ:    -0.5219     YZ:    -0.3792

  Traceless Quadrupole Moment: (Debye Ang)
    XX:    -2.1998     YY:     0.0458     ZZ:     2.1539
    XY:    -0.1333     XZ:    -0.5219     YZ:    -0.3792

  Mulliken Charges: (a.u.)
   Center  Symbol    Alpha    Beta     Spin     Total
       1     H     0.41818  0.41818  0.00000  0.16364
       2     C     3.24506  3.24506  0.00000 -0.49011
       3     C     3.14467  3.14467  0.00000 -0.28933
       4     H     0.42257  0.42257  0.00000  0.15487
       5     H     0.42267  0.42267  0.00000  0.15465
       6     C     3.05830  3.05830  0.00000 -0.11661
       7     H     0.42236  0.42236  0.00000  0.15529
       8     H     0.41719  0.41719  0.00000  0.16561
       9     N     3.85328  3.85328  0.00000 -0.70655
      10     H     0.43263  0.43263  0.00000  0.13475
      11     H     0.42170  0.42170  0.00000  0.15660
      12     C     3.05636  3.05636  0.00000 -0.11273
      13     H     0.33288  0.33288  0.00000  0.33424
      14     C     3.16108  3.16108  0.00000 -0.32215
      15     H     0.42081  0.42081  0.00000  0.15837
      16     H     0.43260  0.43260  0.00000  0.13481
      17     C     3.23392  3.23392  0.00000 -0.46785
      18     H     0.42546  0.42546  0.00000  0.14909
      19     H     0.42045  0.42045  0.00000  0.15910
      20     H     0.41037  0.41037  0.00000  0.17925
      21     H     0.42446  0.42446  0.00000  0.15108
      22     H     0.42300  0.42300  0.00000  0.15400

   Total alpha = 29.00000, Total beta = 29.00000, Total charge = -0.00000


*** PSI4 exiting successfully. Buy a developer a beer!
