    -----------------------------------------------------------------------
          Psi4: An Open-Source Ab Initio Electronic Structure Package
                              Psi4 (no tag) Driver

                          Git: Rev {detached?}  

    J. M. Turney, A. C. Simmonett, R. M. Parrish, E. G. Hohenstein,
    F. A. Evangelista, J. T. Fermann, B. J. Mintz, L. A. Burns, J. J. Wilke,
    M. L. Abrams, N. J. Russ, M. L. Leininger, C. L. Janssen, E. T. Seidl,
    W. D. Allen, H. F. Schaefer, R. A. King, E. F. Valeev, C. D. Sherrill,
    and T. D. Crawford, WIREs Comput. Mol. Sci. 2, 556-565 (2012)
    (doi: 10.1002/wcms.93)

                         Additional Contributions by
    A. E. DePrince, M. Saitow, U. Bozkaya, A. Yu. Sokolov
    -----------------------------------------------------------------------


    Psi4 started on: Tue Jul  5 16:44:56 2016

    Process ID:  24828
    PSI4DATADIR: /export131/home/mjharvey/miniconda3/share
    Memory level set to 256.000 MB

  ==> Input File <==

--------------------------------------------------------------------------
set {
	reference rhf
	basis 6-31G*
}


set_num_threads( 1 )
memory 2 gb

molecule MOL {
0 1

O	 1.274373	 1.116555	 -0.750932
C	 0.861134	 0.272526	 -0.014869
C	 -0.623889	 -0.118271	 -0.003699
C	 1.814964	 -0.429219	 0.935797
C	 -0.895332	 -1.256461	 -1.002431
C	 -1.473649	 1.103340	 -0.370799
C	 -0.983900	 -0.581483	 1.422328
H	 -0.615301	 -0.972064	 -2.012700
H	 -1.954261	 -1.493213	 -1.010207
H	 -0.360539	 -2.164946	 -0.747760
H	 -1.227476	 1.468527	 -1.361691
H	 -2.526716	 0.838935	 -0.358521
H	 -1.314819	 1.915855	 0.325860
H	 -2.039679	 -0.828001	 1.472951
H	 -0.427637	 -1.464071	 1.720694
H	 -0.789023	 0.202493	 2.147048
H	 2.076041	 -1.403197	 0.532478
H	 2.716996	 0.160999	 1.020045
H	 1.386943	 -0.587480	 1.918127

	symmetry c1
}
ee = energy('scf')
oeprop('DIPOLE', 'QUADRUPOLE', 'MULLIKEN_CHARGES')
f=open( 'psi4out.xyz', 'w' )
f.write( "19  " )
f.write( str(ee) + "\n" )
f.write( MOL.save_string_xyz() )
f.close()
--------------------------------------------------------------------------

  Memory set to   2.000 GiB by Python script.

*** tstart() called on cx1-3-15-2.cx1.hpc.ic.ac.uk
*** at Tue Jul  5 16:44:57 2016


         ---------------------------------------------------------
                                   SCF
            by Justin Turney, Rob Parrish, and Andy Simmonett
                              RHF Reference
                        1 Threads,   2000 MiB Core
         ---------------------------------------------------------

  ==> Geometry <==

    Molecular point group: c1
    Full point group: C1

    Geometry (in Angstrom), charge = 0, multiplicity = 1:

       Center              X                  Y                   Z               Mass       
    ------------   -----------------  -----------------  -----------------  -----------------
           O          1.277767619018     1.102723579089    -0.783499948546    15.994914619560
           C          0.864528619018     0.258694579089    -0.047436948546    12.000000000000
           C         -0.620494380982    -0.132102420911    -0.036266948546    12.000000000000
           C          1.818358619018    -0.443050420911     0.903229051454    12.000000000000
           C         -0.891937380982    -1.270292420911    -1.034998948546    12.000000000000
           C         -1.470254380982     1.089508579089    -0.403366948546    12.000000000000
           C         -0.980505380982    -0.595314420911     1.389760051454    12.000000000000
           H         -0.611906380982    -0.985895420911    -2.045267948546     1.007825032070
           H         -1.950866380982    -1.507044420911    -1.042774948546     1.007825032070
           H         -0.357144380982    -2.178777420911    -0.780327948546     1.007825032070
           H         -1.224081380982     1.454695579089    -1.394258948546     1.007825032070
           H         -2.523321380982     0.825103579089    -0.391088948546     1.007825032070
           H         -1.311424380982     1.902023579089     0.293292051454     1.007825032070
           H         -2.036284380982    -0.841832420911     1.440383051454     1.007825032070
           H         -0.424242380982    -1.477902420911     1.688126051454     1.007825032070
           H         -0.785628380982     0.188661579089     2.114480051454     1.007825032070
           H          2.079435619018    -1.417028420911     0.499910051454     1.007825032070
           H          2.720390619018     0.147167579089     0.987477051454     1.007825032070
           H          1.390337619018    -0.601311420911     1.885559051454     1.007825032070

  Running in c1 symmetry.

  Rotational constants: A =      0.10737  B =      0.07668  C =      0.06418 [cm^-1]
  Rotational constants: A =   3218.92726  B =   2298.81168  C =   1924.00085 [MHz]
  Nuclear repulsion =  326.422286244000759

  Charge       = 0
  Multiplicity = 1
  Electrons    = 56
  Nalpha       = 28
  Nbeta        = 28

  ==> Algorithm <==

  SCF Algorithm Type is DF.
  DIIS enabled.
  MOM disabled.
  Fractional occupation disabled.
  Guess Type is CORE.
  Energy threshold   = 1.00e-06
  Density threshold  = 1.00e-06
  Integral threshold = 0.00e+00

  ==> Primary Basis <==

  Basis Set: 6-31G*
    Number of shells: 66
    Number of basis function: 129
    Number of Cartesian functions: 129
    Spherical Harmonics?: false
    Max angular momentum: 2

  ==> Pre-Iterations <==

   -------------------------------------------------------
    Irrep   Nso     Nmo     Nalpha   Nbeta   Ndocc  Nsocc
   -------------------------------------------------------
     A        129     129       0       0       0       0
   -------------------------------------------------------
    Total     129     129      28      28      28       0
   -------------------------------------------------------

 OEINTS: Overlap, kinetic, potential, dipole, and quadrupole integrals
         stored in file 35.

  ==> Integral Setup <==

  ==> DFJK: Density-Fitted J/K Matrices <==

    J tasked:                  Yes
    K tasked:                  Yes
    wK tasked:                  No
    OpenMP threads:              1
    Integrals threads:           1
    Memory (MB):              1430
    Algorithm:                Core
    Integral Cache:           NONE
    Schwarz Cutoff:          1E-12
    Fitting Condition:       1E-12

   => Auxiliary Basis Set <=

  Basis Set: 
    Number of shells: 276
    Number of basis function: 867
    Number of Cartesian functions: 867
    Spherical Harmonics?: false
    Max angular momentum: 3

  Minimum eigenvalue in the overlap matrix is 3.1685204102E-03.
  Using Symmetric Orthogonalization.
  SCF Guess: Core (One-Electron) Hamiltonian.

  ==> Iterations <==

                           Total Energy        Delta E     RMS |[F,P]|

   @DF-RHF iter   1:  -208.60942934980682   -2.08609e+02   9.12670e-02 
   @DF-RHF iter   2:  -249.23242365208620   -4.06230e+01   4.22954e-02 DIIS
   @DF-RHF iter   3:  -236.42619963711257    1.28062e+01   6.79874e-02 DIIS
   @DF-RHF iter   4:  -291.01094981163209   -5.45848e+01   4.01274e-02 DIIS
   @DF-RHF iter   5:  -301.56007079949615   -1.05491e+01   2.70387e-02 DIIS
   @DF-RHF iter   6:  -306.15256272454059   -4.59249e+00   1.64382e-02 DIIS
   @DF-RHF iter   7:  -308.56010848760110   -2.40755e+00   6.60043e-03 DIIS
   @DF-RHF iter   8:  -308.99437863245424   -4.34270e-01   2.39396e-03 DIIS
   @DF-RHF iter   9:  -309.05132557836652   -5.69469e-02   8.79520e-04 DIIS
   @DF-RHF iter  10:  -309.05745651179012   -6.13093e-03   1.83623e-04 DIIS
   @DF-RHF iter  11:  -309.05817989815017   -7.23386e-04   1.05482e-04 DIIS
   @DF-RHF iter  12:  -309.05833590339415   -1.56005e-04   3.35053e-05 DIIS
   @DF-RHF iter  13:  -309.05836314826382   -2.72449e-05   1.08359e-05 DIIS
   @DF-RHF iter  14:  -309.05836570237017   -2.55411e-06   2.49299e-06 DIIS
   @DF-RHF iter  15:  -309.05836581097964   -1.08609e-07   7.35543e-07 DIIS

  ==> Post-Iterations <==

    Orbital Energies (a.u.)
    -----------------------

    Doubly Occupied:                                                      

       1A    -20.548048     2A    -11.322622     3A    -11.246647  
       4A    -11.224838     5A    -11.224195     6A    -11.222524  
       7A    -11.210961     8A     -1.394240     9A     -1.110515  
      10A     -1.002669    11A     -0.945327    12A     -0.936045  
      13A     -0.835781    14A     -0.703141    15A     -0.667060  
      16A     -0.631089    17A     -0.621347    18A     -0.592576  
      19A     -0.592216    20A     -0.570342    21A     -0.548437  
      22A     -0.538098    23A     -0.526087    24A     -0.512910  
      25A     -0.499666    26A     -0.470201    27A     -0.465314  
      28A     -0.392020  

    Virtual:                                                              

      29A      0.166169    30A      0.210530    31A      0.264181  
      32A      0.278044    33A      0.282567    34A      0.296322  
      35A      0.305924    36A      0.307860    37A      0.326862  
      38A      0.346337    39A      0.351938    40A      0.364678  
      41A      0.379171    42A      0.386560    43A      0.391454  
      44A      0.425500    45A      0.435032    46A      0.496558  
      47A      0.525756    48A      0.690757    49A      0.699091  
      50A      0.716018    51A      0.762179    52A      0.770461  
      53A      0.791510    54A      0.838776    55A      0.865493  
      56A      0.892897    57A      0.922239    58A      0.955294  
      59A      0.967508    60A      0.989432    61A      1.010681  
      62A      1.052735    63A      1.062334    64A      1.078777  
      65A      1.109634    66A      1.123308    67A      1.142607  
      68A      1.158116    69A      1.160713    70A      1.173020  
      71A      1.185388    72A      1.200553    73A      1.206548  
      74A      1.215396    75A      1.230638    76A      1.255043  
      77A      1.270115    78A      1.286914    79A      1.311264  
      80A      1.366708    81A      1.409123    82A      1.420118  
      83A      1.536072    84A      1.625769    85A      1.646034  
      86A      1.736246    87A      1.825475    88A      1.853020  
      89A      1.913651    90A      1.945450    91A      1.986433  
      92A      2.027379    93A      2.083813    94A      2.096920  
      95A      2.135647    96A      2.177437    97A      2.207703  
      98A      2.223492    99A      2.270395   100A      2.293208  
     101A      2.314892   102A      2.400008   103A      2.404146  
     104A      2.439710   105A      2.495167   106A      2.504214  
     107A      2.566324   108A      2.603174   109A      2.607111  
     110A      2.611827   111A      2.624038   112A      2.688551  
     113A      2.732376   114A      2.807718   115A      2.881653  
     116A      2.915418   117A      2.987212   118A      3.043061  
     119A      3.086618   120A      3.169382   121A      3.389109  
     122A      3.407687   123A      4.477733   124A      4.563956  
     125A      4.671670   126A      4.746845   127A      4.768841  
     128A      4.880669   129A      5.144793  

    Final Occupation by Irrep:
              A 
    DOCC [    28 ]

  Energy converged.

  @DF-RHF Final Energy:  -309.05836581097964

   => Energetics <=

    Nuclear Repulsion Energy =            326.4222862440007589
    One-Electron Energy =               -1065.8514293941943833
    Two-Electron Energy =                 430.3707773392135891
    DFT Exchange-Correlation Energy =       0.0000000000000000
    Empirical Dispersion Energy =           0.0000000000000000
    PCM Polarization Energy =               0.0000000000000000
    EFP Energy =                            0.0000000000000000
    Total Energy =                       -309.0583658109799785

    Alert: EFP and PCM quantities not currently incorporated into SCF psivars.

Properties will be evaluated at   0.000000,   0.000000,   0.000000 Bohr
  ==> Properties <==


Properties computed using the SCF density matrix

  Nuclear Dipole Moment: (a.u.)
     X:    -4.7138      Y:    -4.2059      Z:     3.0482

  Electronic Dipole Moment: (a.u.)
     X:     4.2571      Y:     3.3600      Z:    -2.3911

  Dipole Moment: (a.u.)
     X:    -0.4566      Y:    -0.8460      Z:     0.6571     Total:     1.1645

  Dipole Moment: (Debye)
     X:    -1.1607      Y:    -2.1503      Z:     1.6701     Total:     2.9598


  Saving occupied orbitals to File 180.

*** tstop() called on cx1-3-15-2.cx1.hpc.ic.ac.uk at Tue Jul  5 16:45:09 2016
Module time:
	user time   =      11.63 seconds =       0.19 minutes
	system time =       0.08 seconds =       0.00 minutes
	total time  =         12 seconds =       0.20 minutes
Total time:
	user time   =      11.63 seconds =       0.19 minutes
	system time =       0.08 seconds =       0.00 minutes
	total time  =         12 seconds =       0.20 minutes


Properties will be evaluated at   0.000000,   0.000000,   0.000000 Bohr

Properties computed using the  density matrix

  Nuclear Dipole Moment: (a.u.)
     X:    -4.7138      Y:    -4.2059      Z:     3.0482

  Electronic Dipole Moment: (a.u.)
     X:     4.2571      Y:     3.3600      Z:    -2.3911

  Dipole Moment: (a.u.)
     X:    -0.4566      Y:    -0.8460      Z:     0.6571     Total:     1.1645

  Dipole Moment: (Debye)
     X:    -1.1607      Y:    -2.1503      Z:     1.6701     Total:     2.9598

  Quadrupole Moment: (Debye Ang)
    XX:   -45.9326     YY:   -47.1197     ZZ:   -45.6873
    XY:    -3.0548     XZ:     2.9377     YZ:     2.2985

  Traceless Quadrupole Moment: (Debye Ang)
    XX:     0.3140     YY:    -0.8732     ZZ:     0.5592
    XY:    -3.0548     XZ:     2.9377     YZ:     2.2985

  Mulliken Charges: (a.u.)
   Center  Symbol    Alpha    Beta     Spin     Total
       1     O     4.26547  4.26547  0.00000 -0.53094
       2     C     2.72770  2.72770  0.00000  0.54460
       3     C     3.06182  3.06182  0.00000 -0.12364
       4     C     3.29165  3.29165  0.00000 -0.58330
       5     C     3.23770  3.23770  0.00000 -0.47541
       6     C     3.22979  3.22979  0.00000 -0.45959
       7     C     3.24894  3.24894  0.00000 -0.49788
       8     H     0.40803  0.40803  0.00000  0.18393
       9     H     0.41400  0.41400  0.00000  0.17201
      10     H     0.41889  0.41889  0.00000  0.16222
      11     H     0.40404  0.40404  0.00000  0.19191
      12     H     0.42183  0.42183  0.00000  0.15634
      13     H     0.41708  0.41708  0.00000  0.16583
      14     H     0.41400  0.41400  0.00000  0.17200
      15     H     0.41595  0.41595  0.00000  0.16810
      16     H     0.41587  0.41587  0.00000  0.16826
      17     H     0.40547  0.40547  0.00000  0.18906
      18     H     0.39618  0.39618  0.00000  0.20765
      19     H     0.40558  0.40558  0.00000  0.18884

   Total alpha = 28.00000, Total beta = 28.00000, Total charge =  0.00000


*** PSI4 exiting successfully. Buy a developer a beer!
