    -----------------------------------------------------------------------
          Psi4: An Open-Source Ab Initio Electronic Structure Package
                              Psi4 (no tag) Driver

                          Git: Rev {detached?}  

    J. M. Turney, A. C. Simmonett, R. M. Parrish, E. G. Hohenstein,
    F. A. Evangelista, J. T. Fermann, B. J. Mintz, L. A. Burns, J. J. Wilke,
    M. L. Abrams, N. J. Russ, M. L. Leininger, C. L. Janssen, E. T. Seidl,
    W. D. Allen, H. F. Schaefer, R. A. King, E. F. Valeev, C. D. Sherrill,
    and T. D. Crawford, WIREs Comput. Mol. Sci. 2, 556-565 (2012)
    (doi: 10.1002/wcms.93)

                         Additional Contributions by
    A. E. DePrince, M. Saitow, U. Bozkaya, A. Yu. Sokolov
    -----------------------------------------------------------------------


    Psi4 started on: Tue Jul  5 17:50:32 2016

    Process ID:   2581
    PSI4DATADIR: /export131/home/mjharvey/miniconda3/share
    Memory level set to 256.000 MB

  ==> Input File <==

--------------------------------------------------------------------------
set {
	reference rhf
	basis 6-31G*
}


set_num_threads( 1 )
memory 2 gb

molecule MOL {
0 1

H	 -3.457960	 0.166880	 1.449720
O	 -3.367910	 -0.300316	 2.267454
C	 -3.043259	 -1.643282	 2.012310
C	 -1.609705	 -1.833855	 1.529264
H	 -3.184960	 -2.163733	 2.950780
H	 -3.740919	 -2.074362	 1.295219
C	 -0.596305	 -0.908552	 2.207279
H	 -1.325180	 -2.869854	 1.693937
H	 -1.589265	 -1.666342	 0.453677
C	 -0.785902	 0.560838	 1.820283
H	 0.408882	 -1.226179	 1.944452
H	 -0.683540	 -1.006990	 3.289425
C	 -2.233772	 1.061130	 1.881301
H	 -0.162966	 1.182888	 2.460479
H	 -0.415160	 0.702527	 0.807281
C	 -3.176114	 0.434608	 0.849826
H	 -2.624088	 0.857295	 2.876249
H	 -2.244803	 2.144231	 1.769017
C	 -4.628682	 0.885300	 1.018230
H	 -3.126042	 -0.650356	 0.930173
H	 -2.846528	 0.681117	 -0.156608
C	 -5.570360	 0.266348	 -0.014149
H	 -4.971440	 0.628815	 2.018340
H	 -4.679321	 1.969910	 0.947938
H	 -5.567054	 -0.817978	 0.052561
H	 -6.591879	 0.603357	 0.132677
H	 -5.275881	 0.534986	 -1.024831

	symmetry c1
}
set optking {
	frozen_dihedral = ("
		14 10 7 4,
		14 10 13 16,
		10 7 4 8,
		10 13 16 20,
		20 16 19 22,
		4 3 2 1
	")
}

ee = energy('scf')
oeprop('DIPOLE', 'QUADRUPOLE', 'MULLIKEN_CHARGES')
f=open( 'psi4out.xyz', 'w' )
f.write( "27  " )
f.write( str(ee) + "\n" )
f.write( MOL.save_string_xyz() )
f.close()
--------------------------------------------------------------------------

  Memory set to   2.000 GiB by Python script.

*** tstart() called on cx1-3-4-2.cx1.hpc.ic.ac.uk
*** at Tue Jul  5 17:50:32 2016


         ---------------------------------------------------------
                                   SCF
            by Justin Turney, Rob Parrish, and Andy Simmonett
                              RHF Reference
                        1 Threads,   2000 MiB Core
         ---------------------------------------------------------

  ==> Geometry <==

    Molecular point group: c1
    Full point group: C1

    Geometry (in Angstrom), charge = 0, multiplicity = 1:

       Center              X                  Y                   Z               Mass       
    ------------   -----------------  -----------------  -----------------  -----------------
           H         -0.644865251015     0.335629931912    -0.056378578331     1.007825032070
           O         -0.554815251015    -0.131566068088     0.761355421669    15.994914619560
           C         -0.230164251015    -1.474532068088     0.506211421669    12.000000000000
           C          1.203389748985    -1.665105068088     0.023165421669    12.000000000000
           H         -0.371865251015    -1.994983068088     1.444681421669     1.007825032070
           H         -0.927824251015    -1.905612068088    -0.210879578331     1.007825032070
           C          2.216789748985    -0.739802068088     0.701180421669    12.000000000000
           H          1.487914748985    -2.701104068088     0.187838421669     1.007825032070
           H          1.223829748985    -1.497592068088    -1.052421578331     1.007825032070
           C          2.027192748985     0.729587931912     0.314184421669    12.000000000000
           H          3.221976748985    -1.057429068088     0.438353421669     1.007825032070
           H          2.129554748985    -0.838240068088     1.783326421669     1.007825032070
           C          0.579322748985     1.229879931912     0.375202421669    12.000000000000
           H          2.650128748985     1.351637931912     0.954380421669     1.007825032070
           H          2.397934748985     0.871276931912    -0.698817578331     1.007825032070
           C         -0.363019251015     0.603357931912    -0.656272578331    12.000000000000
           H          0.189006748985     1.026044931912     1.370150421669     1.007825032070
           H          0.568291748985     2.312980931912     0.262918421669     1.007825032070
           C         -1.815587251015     1.054049931912    -0.487868578331    12.000000000000
           H         -0.312947251015    -0.481606068088    -0.575925578331     1.007825032070
           H         -0.033433251015     0.849866931912    -1.662706578331     1.007825032070
           C         -2.757265251015     0.435097931912    -1.520247578331    12.000000000000
           H         -2.158345251015     0.797564931912     0.512241421669     1.007825032070
           H         -1.866226251015     2.138659931912    -0.558160578331     1.007825032070
           H         -2.753959251015    -0.649228068088    -1.453537578331     1.007825032070
           H         -3.778784251015     0.772106931912    -1.373421578331     1.007825032070
           H         -2.462786251015     0.703735931912    -2.530929578331     1.007825032070

  Running in c1 symmetry.

  Rotational constants: A =      0.09895  B =      0.03856  C =      0.03222 [cm^-1]
  Rotational constants: A =   2966.41224  B =   1156.01911  C =    965.84984 [MHz]
  Nuclear repulsion =  553.045332928187463

  Charge       = 0
  Multiplicity = 1
  Electrons    = 74
  Nalpha       = 37
  Nbeta        = 37

  ==> Algorithm <==

  SCF Algorithm Type is DF.
  DIIS enabled.
  MOM disabled.
  Fractional occupation disabled.
  Guess Type is CORE.
  Energy threshold   = 1.00e-06
  Density threshold  = 1.00e-06
  Integral threshold = 0.00e+00

  ==> Primary Basis <==

  Basis Set: 6-31G*
    Number of shells: 90
    Number of basis function: 171
    Number of Cartesian functions: 171
    Spherical Harmonics?: false
    Max angular momentum: 2

  ==> Pre-Iterations <==

   -------------------------------------------------------
    Irrep   Nso     Nmo     Nalpha   Nbeta   Ndocc  Nsocc
   -------------------------------------------------------
     A        171     171       0       0       0       0
   -------------------------------------------------------
    Total     171     171      37      37      37       0
   -------------------------------------------------------

 OEINTS: Overlap, kinetic, potential, dipole, and quadrupole integrals
         stored in file 35.

  ==> Integral Setup <==

  ==> DFJK: Density-Fitted J/K Matrices <==

    J tasked:                  Yes
    K tasked:                  Yes
    wK tasked:                  No
    OpenMP threads:              1
    Integrals threads:           1
    Memory (MB):              1430
    Algorithm:                Core
    Integral Cache:           NONE
    Schwarz Cutoff:          1E-12
    Fitting Condition:       1E-12

   => Auxiliary Basis Set <=

  Basis Set: 
    Number of shells: 378
    Number of basis function: 1179
    Number of Cartesian functions: 1179
    Spherical Harmonics?: false
    Max angular momentum: 3

  Minimum eigenvalue in the overlap matrix is 3.5458564058E-04.
  Using Symmetric Orthogonalization.
  SCF Guess: Core (One-Electron) Hamiltonian.

  ==> Iterations <==

                           Total Energy        Delta E     RMS |[F,P]|

   @DF-RHF iter   1:  -235.01444820657821   -2.35014e+02   7.52936e-02 
   @DF-RHF iter   2:  -220.56959188431847    1.44449e+01   6.13016e-02 DIIS
   @DF-RHF iter   3:  -348.09630548917619   -1.27527e+02   3.54510e-02 DIIS
   @DF-RHF iter   4:  -345.48297497491762    2.61333e+00   4.28870e-02 DIIS
   @DF-RHF iter   5:  -383.08027600085495   -3.75973e+01   1.30567e-02 DIIS
   @DF-RHF iter   6:  -379.99857824931519    3.08170e+00   1.69437e-02 DIIS
   @DF-RHF iter   7:  -387.29901995016451   -7.30044e+00   2.12092e-03 DIIS
   @DF-RHF iter   8:  -387.36270148158167   -6.36815e-02   8.78031e-04 DIIS
   @DF-RHF iter   9:  -387.37292808236759   -1.02266e-02   3.33448e-04 DIIS
   @DF-RHF iter  10:  -387.37469710999244   -1.76903e-03   1.31043e-04 DIIS
   @DF-RHF iter  11:  -387.37496393690901   -2.66827e-04   3.38869e-05 DIIS
   @DF-RHF iter  12:  -387.37499279977806   -2.88629e-05   1.15955e-05 DIIS
   @DF-RHF iter  13:  -387.37499657517708   -3.77540e-06   4.25006e-06 DIIS
   @DF-RHF iter  14:  -387.37499722250936   -6.47332e-07   1.23609e-06 DIIS
   @DF-RHF iter  15:  -387.37499730531465   -8.28053e-08   4.72082e-07 DIIS

  ==> Post-Iterations <==

    Orbital Energies (a.u.)
    -----------------------

    Doubly Occupied:                                                      

       1A    -20.465758     2A    -11.263765     3A    -11.233386  
       4A    -11.224814     5A    -11.218930     6A    -11.217890  
       7A    -11.213613     8A    -11.207696     9A    -11.190671  
      10A     -1.541266    11A     -1.136056    12A     -1.073712  
      13A     -1.029447    14A     -0.975280    15A     -0.911079  
      16A     -0.863528    17A     -0.847750    18A     -0.769389  
      19A     -0.731384    20A     -0.678416    21A     -0.654544  
      22A     -0.621287    23A     -0.610593    24A     -0.608056  
      25A     -0.579570    26A     -0.556048    27A     -0.547320  
      28A     -0.528616    29A     -0.511032    30A     -0.495510  
      31A     -0.489006    32A     -0.464817    33A     -0.452833  
      34A     -0.443485    35A     -0.430556    36A     -0.330561  
      37A     -0.306877  

    Virtual:                                                              

      38A      0.221628    39A      0.234715    40A      0.245150  
      41A      0.265121    42A      0.281353    43A      0.289198  
      44A      0.306950    45A      0.312380    46A      0.313242  
      47A      0.318413    48A      0.327113    49A      0.337181  
      50A      0.343504    51A      0.360526    52A      0.364034  
      53A      0.374769    54A      0.379876    55A      0.392573  
      56A      0.413383    57A      0.420776    58A      0.448311  
      59A      0.460325    60A      0.470302    61A      0.491450  
      62A      0.505078    63A      0.639128    64A      0.686949  
      65A      0.710056    66A      0.724043    67A      0.745115  
      68A      0.762000    69A      0.773337    70A      0.792172  
      71A      0.818366    72A      0.849662    73A      0.861711  
      74A      0.895819    75A      0.915122    76A      0.917648  
      77A      0.951728    78A      0.956999    79A      0.986727  
      80A      1.008268    81A      1.031599    82A      1.051895  
      83A      1.064842    84A      1.073911    85A      1.111093  
      86A      1.131553    87A      1.138144    88A      1.149030  
      89A      1.159005    90A      1.163416    91A      1.174208  
      92A      1.181300    93A      1.191089    94A      1.207482  
      95A      1.210608    96A      1.223588    97A      1.232502  
      98A      1.241869    99A      1.257651   100A      1.263568  
     101A      1.273610   102A      1.292091   103A      1.332137  
     104A      1.365049   105A      1.467021   106A      1.489943  
     107A      1.514674   108A      1.568634   109A      1.630537  
     110A      1.650929   111A      1.699591   112A      1.724262  
     113A      1.773004   114A      1.794403   115A      1.823105  
     116A      1.850764   117A      1.910807   118A      1.949234  
     119A      1.984007   120A      2.013895   121A      2.037100  
     122A      2.086422   123A      2.110722   124A      2.151560  
     125A      2.184377   126A      2.207205   127A      2.231267  
     128A      2.252377   129A      2.263745   130A      2.271832  
     131A      2.305233   132A      2.322534   133A      2.351353  
     134A      2.400140   135A      2.415073   136A      2.419446  
     137A      2.475172   138A      2.511792   139A      2.515020  
     140A      2.572077   141A      2.600646   142A      2.645005  
     143A      2.674746   144A      2.689000   145A      2.714069  
     146A      2.726885   147A      2.741695   148A      2.751303  
     149A      2.790715   150A      2.807811   151A      2.821988  
     152A      2.889429   153A      2.943464   154A      2.990674  
     155A      3.015222   156A      3.039271   157A      3.114369  
     158A      3.140489   159A      3.166220   160A      3.234558  
     161A      3.409170   162A      4.546325   163A      4.590659  
     164A      4.627981   165A      4.738489   166A      4.856270  
     167A      4.885440   168A      4.961310   169A      5.041761  
     170A      5.098656   171A      5.294111  

    Final Occupation by Irrep:
              A 
    DOCC [    37 ]

  Energy converged.

  @DF-RHF Final Energy:  -387.37499730531465

   => Energetics <=

    Nuclear Repulsion Energy =            553.0453329281874630
    One-Electron Energy =               -1621.9917458496470317
    Two-Electron Energy =                 681.5714156161438950
    DFT Exchange-Correlation Energy =       0.0000000000000000
    Empirical Dispersion Energy =           0.0000000000000000
    PCM Polarization Energy =               0.0000000000000000
    EFP Energy =                            0.0000000000000000
    Total Energy =                       -387.3749973053156737

    Alert: EFP and PCM quantities not currently incorporated into SCF psivars.

Properties will be evaluated at   0.000000,   0.000000,   0.000000 Bohr
  ==> Properties <==


Properties computed using the SCF density matrix

  Nuclear Dipole Moment: (a.u.)
     X:    -1.3549      Y:     0.0310      Z:    -3.0143

  Electronic Dipole Moment: (a.u.)
     X:     1.1638      Y:    -0.4839      Z:     2.7833

  Dipole Moment: (a.u.)
     X:    -0.1911      Y:    -0.4530      Z:    -0.2311     Total:     0.5432

  Dipole Moment: (Debye)
     X:    -0.4857      Y:    -1.1513      Z:    -0.5873     Total:     1.3807


  Saving occupied orbitals to File 180.

*** tstop() called on cx1-3-4-2.cx1.hpc.ic.ac.uk at Tue Jul  5 17:51:04 2016
Module time:
	user time   =      31.02 seconds =       0.52 minutes
	system time =       0.33 seconds =       0.01 minutes
	total time  =         32 seconds =       0.53 minutes
Total time:
	user time   =      31.02 seconds =       0.52 minutes
	system time =       0.33 seconds =       0.01 minutes
	total time  =         32 seconds =       0.53 minutes


Properties will be evaluated at   0.000000,   0.000000,   0.000000 Bohr

Properties computed using the  density matrix

  Nuclear Dipole Moment: (a.u.)
     X:    -1.3549      Y:     0.0310      Z:    -3.0143

  Electronic Dipole Moment: (a.u.)
     X:     1.1638      Y:    -0.4839      Z:     2.7833

  Dipole Moment: (a.u.)
     X:    -0.1911      Y:    -0.4530      Z:    -0.2311     Total:     0.5432

  Dipole Moment: (Debye)
     X:    -0.4857      Y:    -1.1513      Z:    -0.5873     Total:     1.3807

  Quadrupole Moment: (Debye Ang)
    XX:   -58.5093     YY:   -59.2699     ZZ:   -61.4672
    XY:    -1.5301     XZ:     1.3516     YZ:    -0.5240

  Traceless Quadrupole Moment: (Debye Ang)
    XX:     1.2395     YY:     0.4789     ZZ:    -1.7184
    XY:    -1.5301     XZ:     1.3516     YZ:    -0.5240

  Mulliken Charges: (a.u.)
   Center  Symbol    Alpha    Beta     Spin     Total
       1     H     0.29691  0.29691  0.00000  0.40618
       2     O     4.36412  4.36412  0.00000 -0.72825
       3     C     3.06579  3.06579  0.00000 -0.13158
       4     C     3.18489  3.18489  0.00000 -0.36978
       5     H     0.39542  0.39542  0.00000  0.20915
       6     H     0.41284  0.41284  0.00000  0.17432
       7     C     3.14880  3.14880  0.00000 -0.29759
       8     H     0.41484  0.41484  0.00000  0.17031
       9     H     0.41188  0.41188  0.00000  0.17625
      10     C     3.15015  3.15015  0.00000 -0.30030
      11     H     0.41804  0.41804  0.00000  0.16393
      12     H     0.42158  0.42158  0.00000  0.15684
      13     C     3.17179  3.17179  0.00000 -0.34359
      14     H     0.41824  0.41824  0.00000  0.16353
      15     H     0.42574  0.42574  0.00000  0.14853
      16     C     3.18161  3.18161  0.00000 -0.36321
      17     H     0.37288  0.37288  0.00000  0.25424
      18     H     0.44676  0.44676  0.00000  0.10648
      19     C     3.17776  3.17776  0.00000 -0.35552
      20     H     0.40532  0.40532  0.00000  0.18937
      21     H     0.43614  0.43614  0.00000  0.12771
      22     C     3.24275  3.24275  0.00000 -0.48550
      23     H     0.37764  0.37764  0.00000  0.24473
      24     H     0.41003  0.41003  0.00000  0.17994
      25     H     0.41862  0.41862  0.00000  0.16276
      26     H     0.41402  0.41402  0.00000  0.17197
      27     H     0.41546  0.41546  0.00000  0.16907

   Total alpha = 37.00000, Total beta = 37.00000, Total charge =  0.00000


*** PSI4 exiting successfully. Buy a developer a beer!
