    -----------------------------------------------------------------------
          Psi4: An Open-Source Ab Initio Electronic Structure Package
                              Psi4 (no tag) Driver

                          Git: Rev {detached?}  

    J. M. Turney, A. C. Simmonett, R. M. Parrish, E. G. Hohenstein,
    F. A. Evangelista, J. T. Fermann, B. J. Mintz, L. A. Burns, J. J. Wilke,
    M. L. Abrams, N. J. Russ, M. L. Leininger, C. L. Janssen, E. T. Seidl,
    W. D. Allen, H. F. Schaefer, R. A. King, E. F. Valeev, C. D. Sherrill,
    and T. D. Crawford, WIREs Comput. Mol. Sci. 2, 556-565 (2012)
    (doi: 10.1002/wcms.93)

                         Additional Contributions by
    A. E. DePrince, M. Saitow, U. Bozkaya, A. Yu. Sokolov
    -----------------------------------------------------------------------


    Psi4 started on: Tue Jul  5 17:12:36 2016

    Process ID:  18932
    PSI4DATADIR: /export131/home/mjharvey/miniconda3/share
    Memory level set to 256.000 MB

  ==> Input File <==

--------------------------------------------------------------------------
set {
	reference rhf
	basis 6-31G*
}


set_num_threads( 1 )
memory 2 gb

molecule MOL {
0 1

H	 6.569186	 -5.780459	 3.675730
C	 6.559524	 -5.951705	 2.603767
C	 7.304768	 -4.843738	 1.860668
H	 7.016255	 -6.919545	 2.419317
H	 5.521590	 -6.009357	 2.287270
C	 7.304354	 -5.051038	 0.344475
H	 8.327965	 -4.797333	 2.219161
H	 6.846013	 -3.883817	 2.092589
C	 5.927582	 -5.383546	 -0.231029
H	 7.684934	 -4.161189	 -0.144372
H	 7.983618	 -5.863635	 0.096830
C	 4.949538	 -4.217926	 -0.229767
H	 6.029599	 -5.701291	 -1.267562
H	 5.480897	 -6.226230	 0.291975
C	 3.475324	 -4.538016	 -0.405696
O	 5.321680	 -3.089006	 -0.113766
C	 3.142513	 -5.197708	 -1.752249
H	 2.934063	 -3.605307	 -0.301750
H	 3.165183	 -5.195882	 0.404063
C	 3.906992	 -6.506058	 -1.962969
H	 2.073565	 -5.394231	 -1.800676
H	 3.371148	 -4.517137	 -2.568350
C	 3.584233	 -7.172245	 -3.299729
H	 3.675183	 -7.191428	 -1.151430
H	 4.975620	 -6.311267	 -1.903941
H	 2.526789	 -7.408725	 -3.374670
H	 3.837980	 -6.523738	 -4.133494
H	 4.139105	 -8.097216	 -3.419829

	symmetry c1
}
set optking {
	frozen_dihedral = ("
		10 6 3 2,
		16 12 15 17
	")
}

ee = energy('scf')
oeprop('DIPOLE', 'QUADRUPOLE', 'MULLIKEN_CHARGES')
f=open( 'psi4out.xyz', 'w' )
f.write( "28  " )
f.write( str(ee) + "\n" )
f.write( MOL.save_string_xyz() )
f.close()
--------------------------------------------------------------------------

  Memory set to   2.000 GiB by Python script.

*** tstart() called on cx1-3-4-4.cx1.hpc.ic.ac.uk
*** at Tue Jul  5 17:12:36 2016


         ---------------------------------------------------------
                                   SCF
            by Justin Turney, Rob Parrish, and Andy Simmonett
                              RHF Reference
                        1 Threads,   2000 MiB Core
         ---------------------------------------------------------

  ==> Geometry <==

    Molecular point group: c1
    Full point group: C1

    Geometry (in Angstrom), charge = 0, multiplicity = 1:

       Center              X                  Y                   Z               Mass       
    ------------   -----------------  -----------------  -----------------  -----------------
           H          1.420182229222    -0.573110160250     3.994584627247     1.007825032070
           C          1.410520229222    -0.744356160250     2.922621627247    12.000000000000
           C          2.155764229222     0.363610839750     2.179522627247    12.000000000000
           H          1.867251229222    -1.712196160250     2.738171627247     1.007825032070
           H          0.372586229222    -0.802008160250     2.606124627247     1.007825032070
           C          2.155350229222     0.156310839750     0.663329627247    12.000000000000
           H          3.178961229222     0.410015839750     2.538015627247     1.007825032070
           H          1.697009229222     1.323531839750     2.411443627247     1.007825032070
           C          0.778578229222    -0.176197160250     0.087825627247    12.000000000000
           H          2.535930229222     1.046159839750     0.174482627247     1.007825032070
           H          2.834614229222    -0.656286160250     0.415684627247     1.007825032070
           C         -0.199465770778     0.989422839750     0.089087627247    12.000000000000
           H          0.880595229222    -0.493942160250    -0.948707372753     1.007825032070
           H          0.331893229222    -1.018881160250     0.610829627247     1.007825032070
           C         -1.673679770778     0.669332839750    -0.086841372753    12.000000000000
           O          0.172676229222     2.118342839750     0.205088627247    15.994914619560
           C         -2.006490770778     0.009640839750    -1.433394372753    12.000000000000
           H         -2.214940770778     1.602041839750     0.017104627247     1.007825032070
           H         -1.983820770778     0.011466839750     0.722917627247     1.007825032070
           C         -1.242011770778    -1.298709160250    -1.644114372753    12.000000000000
           H         -3.075438770778    -0.186882160250    -1.481821372753     1.007825032070
           H         -1.777855770778     0.690211839750    -2.249495372753     1.007825032070
           C         -1.564770770778    -1.964896160250    -2.980874372753    12.000000000000
           H         -1.473820770778    -1.984079160250    -0.832575372753     1.007825032070
           H         -0.173383770778    -1.103918160250    -1.585086372753     1.007825032070
           H         -2.622214770778    -2.201376160250    -3.055815372753     1.007825032070
           H         -1.311023770778    -1.316389160250    -3.814639372753     1.007825032070
           H         -1.009898770778    -2.889867160250    -3.100974372753     1.007825032070

  Running in c1 symmetry.

  Rotational constants: A =      0.06571  B =      0.02168  C =      0.01919 [cm^-1]
  Rotational constants: A =   1969.86707  B =    650.05272  C =    575.27209 [MHz]
  Nuclear repulsion =  559.518952478911842

  Charge       = 0
  Multiplicity = 1
  Electrons    = 80
  Nalpha       = 40
  Nbeta        = 40

  ==> Algorithm <==

  SCF Algorithm Type is DF.
  DIIS enabled.
  MOM disabled.
  Fractional occupation disabled.
  Guess Type is CORE.
  Energy threshold   = 1.00e-06
  Density threshold  = 1.00e-06
  Integral threshold = 0.00e+00

  ==> Primary Basis <==

  Basis Set: 6-31G*
    Number of shells: 96
    Number of basis function: 186
    Number of Cartesian functions: 186
    Spherical Harmonics?: false
    Max angular momentum: 2

  ==> Pre-Iterations <==

   -------------------------------------------------------
    Irrep   Nso     Nmo     Nalpha   Nbeta   Ndocc  Nsocc
   -------------------------------------------------------
     A        186     186       0       0       0       0
   -------------------------------------------------------
    Total     186     186      40      40      40       0
   -------------------------------------------------------

 OEINTS: Overlap, kinetic, potential, dipole, and quadrupole integrals
         stored in file 35.

  ==> Integral Setup <==

  ==> DFJK: Density-Fitted J/K Matrices <==

    J tasked:                  Yes
    K tasked:                  Yes
    wK tasked:                  No
    OpenMP threads:              1
    Integrals threads:           1
    Memory (MB):              1430
    Algorithm:                Core
    Integral Cache:           NONE
    Schwarz Cutoff:          1E-12
    Fitting Condition:       1E-12

   => Auxiliary Basis Set <=

  Basis Set: 
    Number of shells: 402
    Number of basis function: 1260
    Number of Cartesian functions: 1260
    Spherical Harmonics?: false
    Max angular momentum: 3

  Minimum eigenvalue in the overlap matrix is 2.8322727414E-03.
  Using Symmetric Orthogonalization.
  SCF Guess: Core (One-Electron) Hamiltonian.

  ==> Iterations <==

                           Total Energy        Delta E     RMS |[F,P]|

   @DF-RHF iter   1:  -256.74449385486264   -2.56744e+02   6.63893e-02 
   @DF-RHF iter   2:  -147.08114549414711    1.09663e+02   6.55638e-02 DIIS
   @DF-RHF iter   3:  -361.93806584243112   -2.14857e+02   3.66172e-02 DIIS
   @DF-RHF iter   4:  -316.46033745649879    4.54777e+01   5.18839e-02 DIIS
   @DF-RHF iter   5:  -412.00405978398658   -9.55437e+01   1.97751e-02 DIIS
   @DF-RHF iter   6:  -416.07794985478733   -4.07389e+00   1.76511e-02 DIIS
   @DF-RHF iter   7:  -425.95287671738629   -9.87493e+00   2.90294e-03 DIIS
   @DF-RHF iter   8:  -426.11949660523908   -1.66620e-01   9.77883e-04 DIIS
   @DF-RHF iter   9:  -426.13638643229842   -1.68898e-02   2.05499e-04 DIIS
   @DF-RHF iter  10:  -426.13779227650605   -1.40584e-03   5.91806e-05 DIIS
   @DF-RHF iter  11:  -426.13792413050089   -1.31854e-04   2.08022e-05 DIIS
   @DF-RHF iter  12:  -426.13793815378438   -1.40233e-05   7.08549e-06 DIIS
   @DF-RHF iter  13:  -426.13794082945719   -2.67567e-06   3.71115e-06 DIIS
   @DF-RHF iter  14:  -426.13794129172243   -4.62265e-07   1.24183e-06 DIIS
   @DF-RHF iter  15:  -426.13794138431399   -9.25916e-08   4.83966e-07 DIIS

  ==> Post-Iterations <==

    Orbital Energies (a.u.)
    -----------------------

    Doubly Occupied:                                                      

       1A    -20.549631     2A    -11.322862     3A    -11.232212  
       4A    -11.229373     5A    -11.226122     6A    -11.220941  
       7A    -11.215460     8A    -11.215331     9A    -11.212096  
      10A    -11.210242    11A     -1.394382    12A     -1.102699  
      13A     -1.078146    14A     -1.016189    15A     -0.992633  
      16A     -0.911557    17A     -0.888767    18A     -0.816250  
      19A     -0.785512    20A     -0.722560    21A     -0.682963  
      22A     -0.653129    23A     -0.631693    24A     -0.627550  
      25A     -0.602571    26A     -0.594909    27A     -0.579551  
      28A     -0.563998    29A     -0.547818    30A     -0.537899  
      31A     -0.530112    32A     -0.525379    33A     -0.503246  
      34A     -0.484719    35A     -0.477751    36A     -0.472160  
      37A     -0.463554    38A     -0.459357    39A     -0.437984  
      40A     -0.394383  

    Virtual:                                                              

      41A      0.161404    42A      0.208341    43A      0.235910  
      44A      0.252160    45A      0.268150    46A      0.286481  
      47A      0.293055    48A      0.293422    49A      0.302187  
      50A      0.311892    51A      0.322255    52A      0.327423  
      53A      0.332950    54A      0.338505    55A      0.339214  
      56A      0.348034    57A      0.366403    58A      0.378356  
      59A      0.388294    60A      0.402908    61A      0.406252  
      62A      0.414010    63A      0.424528    64A      0.444787  
      65A      0.478884    66A      0.490030    67A      0.516192  
      68A      0.544084    69A      0.692831    70A      0.708671  
      71A      0.718139    72A      0.729322    73A      0.734297  
      74A      0.739377    75A      0.750272    76A      0.759325  
      77A      0.810805    78A      0.827595    79A      0.877285  
      80A      0.888590    81A      0.900278    82A      0.917954  
      83A      0.939466    84A      0.946147    85A      0.953005  
      86A      0.978153    87A      0.984119    88A      1.006082  
      89A      1.012346    90A      1.058019    91A      1.075444  
      92A      1.090310    93A      1.098988    94A      1.122611  
      95A      1.140859    96A      1.145607    97A      1.156255  
      98A      1.171108    99A      1.175688   100A      1.179958  
     101A      1.182565   102A      1.192144   103A      1.194717  
     104A      1.206791   105A      1.219185   106A      1.229802  
     107A      1.242975   108A      1.246150   109A      1.251340  
     110A      1.260989   111A      1.273882   112A      1.292483  
     113A      1.320108   114A      1.345225   115A      1.370701  
     116A      1.425347   117A      1.426903   118A      1.452497  
     119A      1.509113   120A      1.595052   121A      1.668273  
     122A      1.682689   123A      1.712059   124A      1.743289  
     125A      1.760710   126A      1.791566   127A      1.818949  
     128A      1.830161   129A      1.870848   130A      1.925335  
     131A      1.970396   132A      2.008164   133A      2.050843  
     134A      2.073621   135A      2.105193   136A      2.117483  
     137A      2.143564   138A      2.170583   139A      2.212734  
     140A      2.232241   141A      2.240923   142A      2.258652  
     143A      2.262496   144A      2.293852   145A      2.298121  
     146A      2.315961   147A      2.334689   148A      2.378099  
     149A      2.395638   150A      2.421753   151A      2.441648  
     152A      2.487416   153A      2.526866   154A      2.568762  
     155A      2.598427   156A      2.612516   157A      2.662604  
     158A      2.686513   159A      2.693083   160A      2.712213  
     161A      2.722423   162A      2.741399   163A      2.760997  
     164A      2.790873   165A      2.803290   166A      2.890389  
     167A      2.906569   168A      2.949846   169A      2.972937  
     170A      2.998500   171A      3.033358   172A      3.081695  
     173A      3.116372   174A      3.206612   175A      3.391348  
     176A      3.410815   177A      4.475571   178A      4.550229  
     179A      4.603590   180A      4.662365   181A      4.734267  
     182A      4.799241   183A      4.836148   184A      4.964542  
     185A      5.013043   186A      5.019440  

    Final Occupation by Irrep:
              A 
    DOCC [    40 ]

  Energy converged.

  @DF-RHF Final Energy:  -426.13794138431399

   => Energetics <=

    Nuclear Repulsion Energy =            559.5189524789118423
    One-Electron Energy =               -1687.0865206450075675
    Two-Electron Energy =                 701.4296267817817352
    DFT Exchange-Correlation Energy =       0.0000000000000000
    Empirical Dispersion Energy =           0.0000000000000000
    PCM Polarization Energy =               0.0000000000000000
    EFP Energy =                            0.0000000000000000
    Total Energy =                       -426.1379413843139901

    Alert: EFP and PCM quantities not currently incorporated into SCF psivars.

Properties will be evaluated at   0.000000,   0.000000,   0.000000 Bohr
  ==> Properties <==


Properties computed using the SCF density matrix

  Nuclear Dipole Moment: (a.u.)
     X:    -0.4898      Y:    -9.2291      Z:    -0.7863

  Electronic Dipole Moment: (a.u.)
     X:     0.1670      Y:     8.1619      Z:     0.6015

  Dipole Moment: (a.u.)
     X:    -0.3228      Y:    -1.0672      Z:    -0.1847     Total:     1.1301

  Dipole Moment: (Debye)
     X:    -0.8205      Y:    -2.7125      Z:    -0.4696     Total:     2.8725


  Saving occupied orbitals to File 180.

*** tstop() called on cx1-3-4-4.cx1.hpc.ic.ac.uk at Tue Jul  5 17:13:13 2016
Module time:
	user time   =      36.35 seconds =       0.61 minutes
	system time =       0.34 seconds =       0.01 minutes
	total time  =         37 seconds =       0.62 minutes
Total time:
	user time   =      36.35 seconds =       0.61 minutes
	system time =       0.34 seconds =       0.01 minutes
	total time  =         37 seconds =       0.62 minutes


Properties will be evaluated at   0.000000,   0.000000,   0.000000 Bohr

Properties computed using the  density matrix

  Nuclear Dipole Moment: (a.u.)
     X:    -0.4898      Y:    -9.2291      Z:    -0.7863

  Electronic Dipole Moment: (a.u.)
     X:     0.1670      Y:     8.1619      Z:     0.6015

  Dipole Moment: (a.u.)
     X:    -0.3228      Y:    -1.0672      Z:    -0.1847     Total:     1.1301

  Dipole Moment: (Debye)
     X:    -0.8205      Y:    -2.7125      Z:    -0.4696     Total:     2.8725

  Quadrupole Moment: (Debye Ang)
    XX:   -63.0602     YY:   -73.5732     ZZ:   -64.7804
    XY:    -1.4323     XZ:     0.0340     YZ:    -0.8784

  Traceless Quadrupole Moment: (Debye Ang)
    XX:     4.0778     YY:    -6.4353     ZZ:     2.3575
    XY:    -1.4323     XZ:     0.0340     YZ:    -0.8784

  Mulliken Charges: (a.u.)
   Center  Symbol    Alpha    Beta     Spin     Total
       1     H     0.41666  0.41666  0.00000  0.16668
       2     C     3.24332  3.24332  0.00000 -0.48663
       3     C     3.15857  3.15857  0.00000 -0.31713
       4     H     0.42282  0.42282  0.00000  0.15435
       5     H     0.42645  0.42645  0.00000  0.14710
       6     C     3.14556  3.14556  0.00000 -0.29113
       7     H     0.41966  0.41966  0.00000  0.16068
       8     H     0.40938  0.40938  0.00000  0.18125
       9     C     3.23140  3.23140  0.00000 -0.46281
      10     H     0.40540  0.40540  0.00000  0.18919
      11     H     0.42279  0.42279  0.00000  0.15443
      12     C     2.72888  2.72888  0.00000  0.54223
      13     H     0.39283  0.39283  0.00000  0.21433
      14     H     0.40561  0.40561  0.00000  0.18877
      15     C     3.20347  3.20347  0.00000 -0.40694
      16     O     4.26538  4.26538  0.00000 -0.53077
      17     C     3.16152  3.16152  0.00000 -0.32303
      18     H     0.39819  0.39819  0.00000  0.20362
      19     H     0.41283  0.41283  0.00000  0.17434
      20     C     3.15306  3.15306  0.00000 -0.30611
      21     H     0.41303  0.41303  0.00000  0.17394
      22     H     0.41377  0.41377  0.00000  0.17245
      23     C     3.23722  3.23722  0.00000 -0.47443
      24     H     0.42236  0.42236  0.00000  0.15528
      25     H     0.42943  0.42943  0.00000  0.14115
      26     H     0.42111  0.42111  0.00000  0.15779
      27     H     0.42080  0.42080  0.00000  0.15839
      28     H     0.41849  0.41849  0.00000  0.16301

   Total alpha = 40.00000, Total beta = 40.00000, Total charge = -0.00000


*** PSI4 exiting successfully. Buy a developer a beer!
