    -----------------------------------------------------------------------
          Psi4: An Open-Source Ab Initio Electronic Structure Package
                              Psi4 (no tag) Driver

                          Git: Rev {detached?}  

    J. M. Turney, A. C. Simmonett, R. M. Parrish, E. G. Hohenstein,
    F. A. Evangelista, J. T. Fermann, B. J. Mintz, L. A. Burns, J. J. Wilke,
    M. L. Abrams, N. J. Russ, M. L. Leininger, C. L. Janssen, E. T. Seidl,
    W. D. Allen, H. F. Schaefer, R. A. King, E. F. Valeev, C. D. Sherrill,
    and T. D. Crawford, WIREs Comput. Mol. Sci. 2, 556-565 (2012)
    (doi: 10.1002/wcms.93)

                         Additional Contributions by
    A. E. DePrince, M. Saitow, U. Bozkaya, A. Yu. Sokolov
    -----------------------------------------------------------------------


    Psi4 started on: Tue Jul  5 16:41:45 2016

    Process ID:  29258
    PSI4DATADIR: /export131/home/mjharvey/miniconda3/share
    Memory level set to 256.000 MB

  ==> Input File <==

--------------------------------------------------------------------------
set {
	reference rhf
	basis 6-31G*
}


set_num_threads( 1 )
memory 2 gb

molecule MOL {
0 1

H	 0.075655	 1.724700	 0.560390
N	 -0.456516	 0.876527	 0.541107
C	 0.411825	 -0.271767	 0.350028
H	 -1.096509	 0.942907	 -0.226429
C	 0.971803	 -0.268062	 -1.056935
H	 1.245876	 -0.313000	 1.051925
H	 -0.173567	 -1.175924	 0.486406
O	 -0.088814	 -0.446451	 -1.951562
H	 1.476952	 0.676258	 -1.258733
H	 1.695616	 -1.072886	 -1.164576
C	 -0.650990	 -1.719647	 -1.929188
H	 -0.874038	 -1.961715	 -0.898969
H	 -1.573045	 -1.757788	 -2.506546
H	 0.035703	 -2.464483	 -2.326026

	symmetry c1
}
set optking {
	frozen_dihedral = ("
		8 5 3 6,
		6 3 2 4,
		5 8 11 13
	")
}

ee = energy('scf')
oeprop('DIPOLE', 'QUADRUPOLE', 'MULLIKEN_CHARGES')
f=open( 'psi4out.xyz', 'w' )
f.write( "14  " )
f.write( str(ee) + "\n" )
f.write( MOL.save_string_xyz() )
f.close()
--------------------------------------------------------------------------

  Memory set to   2.000 GiB by Python script.

*** tstart() called on cx1-3-6-4.cx1.hpc.ic.ac.uk
*** at Tue Jul  5 16:41:46 2016


         ---------------------------------------------------------
                                   SCF
            by Justin Turney, Rob Parrish, and Andy Simmonett
                              RHF Reference
                        1 Threads,   2000 MiB Core
         ---------------------------------------------------------

  ==> Geometry <==

    Molecular point group: c1
    Full point group: C1

    Geometry (in Angstrom), charge = 0, multiplicity = 1:

       Center              X                  Y                   Z               Mass       
    ------------   -----------------  -----------------  -----------------  -----------------
           H          0.051710731240     2.090030570241     1.381011646389     1.007825032070
           N         -0.480460268760     1.241857570241     1.361728646389    14.003074004780
           C          0.387880731240     0.093563570241     1.170649646389    12.000000000000
           H         -1.120453268760     1.308237570241     0.594192646389     1.007825032070
           C          0.947858731240     0.097268570241    -0.236313353611    12.000000000000
           H          1.221931731240     0.052330570241     1.872546646389     1.007825032070
           H         -0.197511268760    -0.810593429759     1.307027646389     1.007825032070
           O         -0.112758268760    -0.081120429759    -1.130940353611    15.994914619560
           H          1.453007731240     1.041588570241    -0.438111353611     1.007825032070
           H          1.671671731240    -0.707555429759    -0.343954353611     1.007825032070
           C         -0.674934268760    -1.354316429759    -1.108566353611    12.000000000000
           H         -0.897982268760    -1.596384429759    -0.078347353611     1.007825032070
           H         -1.596989268760    -1.392457429759    -1.685924353611     1.007825032070
           H          0.011758731240    -2.099152429759    -1.505404353611     1.007825032070

  Running in c1 symmetry.

  Rotational constants: A =      0.31608  B =      0.10980  C =      0.10308 [cm^-1]
  Rotational constants: A =   9475.85549  B =   3291.76303  C =   3090.33658 [MHz]
  Nuclear repulsion =  199.462948798817990

  Charge       = 0
  Multiplicity = 1
  Electrons    = 42
  Nalpha       = 21
  Nbeta        = 21

  ==> Algorithm <==

  SCF Algorithm Type is DF.
  DIIS enabled.
  MOM disabled.
  Fractional occupation disabled.
  Guess Type is CORE.
  Energy threshold   = 1.00e-06
  Density threshold  = 1.00e-06
  Integral threshold = 0.00e+00

  ==> Primary Basis <==

  Basis Set: 6-31G*
    Number of shells: 48
    Number of basis function: 93
    Number of Cartesian functions: 93
    Spherical Harmonics?: false
    Max angular momentum: 2

  ==> Pre-Iterations <==

   -------------------------------------------------------
    Irrep   Nso     Nmo     Nalpha   Nbeta   Ndocc  Nsocc
   -------------------------------------------------------
     A         93      93       0       0       0       0
   -------------------------------------------------------
    Total      93      93      21      21      21       0
   -------------------------------------------------------

 OEINTS: Overlap, kinetic, potential, dipole, and quadrupole integrals
         stored in file 35.

  ==> Integral Setup <==

  ==> DFJK: Density-Fitted J/K Matrices <==

    J tasked:                  Yes
    K tasked:                  Yes
    wK tasked:                  No
    OpenMP threads:              1
    Integrals threads:           1
    Memory (MB):              1430
    Algorithm:                Core
    Integral Cache:           NONE
    Schwarz Cutoff:          1E-12
    Fitting Condition:       1E-12

   => Auxiliary Basis Set <=

  Basis Set: 
    Number of shells: 201
    Number of basis function: 630
    Number of Cartesian functions: 630
    Spherical Harmonics?: false
    Max angular momentum: 3

  Minimum eigenvalue in the overlap matrix is 4.9144849430E-03.
  Using Symmetric Orthogonalization.
  SCF Guess: Core (One-Electron) Hamiltonian.

  ==> Iterations <==

                           Total Energy        Delta E     RMS |[F,P]|

   @DF-RHF iter   1:  -201.93594646636893   -2.01936e+02   8.01026e-02 
   @DF-RHF iter   2:  -167.98651234554785    3.39494e+01   7.12127e-02 DIIS
   @DF-RHF iter   3:  -228.20487804633490   -6.02184e+01   4.40913e-02 DIIS
   @DF-RHF iter   4:  -237.40517988699185   -9.20030e+00   3.75692e-02 DIIS
   @DF-RHF iter   5:  -247.83142936284196   -1.04262e+01   8.53089e-03 DIIS
   @DF-RHF iter   6:  -248.06612725257622   -2.34698e-01   2.93313e-03 DIIS
   @DF-RHF iter   7:  -248.09961147151711   -3.34842e-02   1.49556e-03 DIIS
   @DF-RHF iter   8:  -248.10951205982661   -9.90059e-03   5.99198e-04 DIIS
   @DF-RHF iter   9:  -248.11140253455153   -1.89047e-03   1.45080e-04 DIIS
   @DF-RHF iter  10:  -248.11152466830606   -1.22134e-04   5.04894e-05 DIIS
   @DF-RHF iter  11:  -248.11153685094246   -1.21826e-05   1.35883e-05 DIIS
   @DF-RHF iter  12:  -248.11153825457131   -1.40363e-06   3.36931e-06 DIIS
   @DF-RHF iter  13:  -248.11153835255487   -9.79836e-08   1.05432e-06 DIIS
   @DF-RHF iter  14:  -248.11153836325792   -1.07030e-08   2.97045e-07 DIIS

  ==> Post-Iterations <==

    Orbital Energies (a.u.)
    -----------------------

    Doubly Occupied:                                                      

       1A    -20.560121     2A    -15.529424     3A    -11.269170  
       4A    -11.268851     5A    -11.242151     6A     -1.387148  
       7A     -1.177104     8A     -0.995668     9A     -0.926501  
      10A     -0.814773    11A     -0.700239    12A     -0.669731  
      13A     -0.641151    14A     -0.634144    15A     -0.582412  
      16A     -0.564506    17A     -0.538767    18A     -0.505841  
      19A     -0.465733    20A     -0.432647    21A     -0.370510  

    Virtual:                                                              

      22A      0.230869    23A      0.259816    24A      0.277290  
      25A      0.284076    26A      0.297186    27A      0.319266  
      28A      0.332654    29A      0.339419    30A      0.369008  
      31A      0.406691    32A      0.415510    33A      0.442999  
      34A      0.473020    35A      0.741902    36A      0.756782  
      37A      0.776645    38A      0.788586    39A      0.807066  
      40A      0.838323    41A      0.885005    42A      0.913181  
      43A      0.990500    44A      1.021352    45A      1.061067  
      46A      1.080424    47A      1.124339    48A      1.131376  
      49A      1.141077    50A      1.153184    51A      1.182400  
      52A      1.221468    53A      1.241759    54A      1.247485  
      55A      1.261022    56A      1.274153    57A      1.306823  
      58A      1.435604    59A      1.464409    60A      1.581370  
      61A      1.660016    62A      1.673583    63A      1.712883  
      64A      1.796839    65A      1.880109    66A      1.929398  
      67A      1.969553    68A      2.129943    69A      2.152493  
      70A      2.248678    71A      2.322388    72A      2.373673  
      73A      2.384908    74A      2.441935    75A      2.465969  
      76A      2.486394    77A      2.511799    78A      2.558194  
      79A      2.681988    80A      2.704863    81A      2.763529  
      82A      2.782766    83A      2.899802    84A      2.929136  
      85A      3.021571    86A      3.076997    87A      3.141093  
      88A      3.301726    89A      4.233756    90A      4.376076  
      91A      4.677366    92A      4.707306    93A      4.900599  

    Final Occupation by Irrep:
              A 
    DOCC [    21 ]

  Energy converged.

  @DF-RHF Final Energy:  -248.11153836325792

   => Energetics <=

    Nuclear Repulsion Energy =            199.4629487988179903
    One-Electron Energy =                -732.5958143777163514
    Two-Electron Energy =                 285.0213272156406106
    DFT Exchange-Correlation Energy =       0.0000000000000000
    Empirical Dispersion Energy =           0.0000000000000000
    PCM Polarization Energy =               0.0000000000000000
    EFP Energy =                            0.0000000000000000
    Total Energy =                       -248.1115383632578073

    Alert: EFP and PCM quantities not currently incorporated into SCF psivars.

Properties will be evaluated at   0.000000,   0.000000,   0.000000 Bohr
  ==> Properties <==


Properties computed using the SCF density matrix

  Nuclear Dipole Moment: (a.u.)
     X:     0.5607      Y:    -1.9858      Z:     1.0247

  Electronic Dipole Moment: (a.u.)
     X:    -0.1112      Y:     1.6280      Z:    -1.1957

  Dipole Moment: (a.u.)
     X:     0.4495      Y:    -0.3578      Z:    -0.1710     Total:     0.5994

  Dipole Moment: (Debye)
     X:     1.1425      Y:    -0.9093      Z:    -0.4346     Total:     1.5235


  Saving occupied orbitals to File 180.

*** tstop() called on cx1-3-6-4.cx1.hpc.ic.ac.uk at Tue Jul  5 16:41:51 2016
Module time:
	user time   =       5.32 seconds =       0.09 minutes
	system time =       0.05 seconds =       0.00 minutes
	total time  =          5 seconds =       0.08 minutes
Total time:
	user time   =       5.32 seconds =       0.09 minutes
	system time =       0.05 seconds =       0.00 minutes
	total time  =          5 seconds =       0.08 minutes


Properties will be evaluated at   0.000000,   0.000000,   0.000000 Bohr

Properties computed using the  density matrix

  Nuclear Dipole Moment: (a.u.)
     X:     0.5607      Y:    -1.9858      Z:     1.0247

  Electronic Dipole Moment: (a.u.)
     X:    -0.1112      Y:     1.6280      Z:    -1.1957

  Dipole Moment: (a.u.)
     X:     0.4495      Y:    -0.3578      Z:    -0.1710     Total:     0.5994

  Dipole Moment: (Debye)
     X:     1.1425      Y:    -0.9093      Z:    -0.4346     Total:     1.5235

  Quadrupole Moment: (Debye Ang)
    XX:   -30.8575     YY:   -28.7240     ZZ:   -38.5167
    XY:     2.3522     XZ:     3.4189     YZ:     0.0416

  Traceless Quadrupole Moment: (Debye Ang)
    XX:     1.8419     YY:     3.9754     ZZ:    -5.8173
    XY:     2.3522     XZ:     3.4189     YZ:     0.0416

  Mulliken Charges: (a.u.)
   Center  Symbol    Alpha    Beta     Spin     Total
       1     H     0.33549  0.33549  0.00000  0.32902
       2     N     3.91998  3.91998  0.00000 -0.83996
       3     C     3.08099  3.08099  0.00000 -0.16197
       4     H     0.32332  0.32332  0.00000  0.35336
       5     C     3.00314  3.00314  0.00000 -0.00629
       6     H     0.41904  0.41904  0.00000  0.16192
       7     H     0.41323  0.41323  0.00000  0.17355
       8     O     4.30634  4.30634  0.00000 -0.61267
       9     H     0.41622  0.41622  0.00000  0.16756
      10     H     0.43142  0.43142  0.00000  0.13716
      11     C     3.08430  3.08430  0.00000 -0.16860
      12     H     0.42942  0.42942  0.00000  0.14116
      13     H     0.41034  0.41034  0.00000  0.17932
      14     H     0.42678  0.42678  0.00000  0.14644

   Total alpha = 21.00000, Total beta = 21.00000, Total charge = -0.00000


*** PSI4 exiting successfully. Buy a developer a beer!
