    -----------------------------------------------------------------------
          Psi4: An Open-Source Ab Initio Electronic Structure Package
                              Psi4 (no tag) Driver

                          Git: Rev {detached?}  

    J. M. Turney, A. C. Simmonett, R. M. Parrish, E. G. Hohenstein,
    F. A. Evangelista, J. T. Fermann, B. J. Mintz, L. A. Burns, J. J. Wilke,
    M. L. Abrams, N. J. Russ, M. L. Leininger, C. L. Janssen, E. T. Seidl,
    W. D. Allen, H. F. Schaefer, R. A. King, E. F. Valeev, C. D. Sherrill,
    and T. D. Crawford, WIREs Comput. Mol. Sci. 2, 556-565 (2012)
    (doi: 10.1002/wcms.93)

                         Additional Contributions by
    A. E. DePrince, M. Saitow, U. Bozkaya, A. Yu. Sokolov
    -----------------------------------------------------------------------


    Psi4 started on: Tue Jul  5 16:40:16 2016

    Process ID:   1663
    PSI4DATADIR: /export131/home/mjharvey/miniconda3/share
    Memory level set to 256.000 MB

  ==> Input File <==

--------------------------------------------------------------------------
set {
	reference rhf
	basis 6-31G*
}


set_num_threads( 1 )
memory 2 gb

molecule MOL {
0 1

H	 2.745000	 -0.308000	 0.018000
C	 1.800000	 0.086000	 -0.335000
C	 0.678000	 -0.494000	 0.513000
H	 1.683000	 -0.192000	 -1.376000
H	 1.822000	 1.165000	 -0.259000
N	 -0.642000	 0.019000	 0.053000
H	 0.616000	 -1.567000	 0.449000
H	 0.759000	 -0.185000	 1.545000
O	 -1.449000	 -0.777000	 -0.309000
O	 -0.800000	 1.202000	 0.083000

	symmetry c1
}
ee = optimize('scf')
oeprop('DIPOLE', 'QUADRUPOLE', 'MULLIKEN_CHARGES')
f=open( 'psi4out.xyz', 'w' )
f.write( "10  " )
f.write( str(ee) + "\n" )
f.write( MOL.save_string_xyz() )
f.close()
--------------------------------------------------------------------------

  Memory set to   2.000 GiB by Python script.
gradient() will perform analytic gradient computation.

*** tstart() called on cx1-3-16-3.cx1.hpc.ic.ac.uk
*** at Tue Jul  5 16:40:17 2016


         ---------------------------------------------------------
                                   SCF
            by Justin Turney, Rob Parrish, and Andy Simmonett
                              RHF Reference
                        1 Threads,   2000 MiB Core
         ---------------------------------------------------------

  ==> Geometry <==

    Molecular point group: c1
    Full point group: C1

    Geometry (in Angstrom), charge = 0, multiplicity = 1:

       Center              X                  Y                   Z               Mass       
    ------------   -----------------  -----------------  -----------------  -----------------
           H          2.845515350329    -0.322292447270     0.022754472887     1.007825032070
           C          1.900515350329     0.071707552730    -0.330245527113    12.000000000000
           C          0.778515350329    -0.508292447270     0.517754472887    12.000000000000
           H          1.783515350329    -0.206292447270    -1.371245527113     1.007825032070
           H          1.922515350329     1.150707552730    -0.254245527113     1.007825032070
           N         -0.541484649671     0.004707552730     0.057754472887    14.003074004780
           H          0.716515350329    -1.581292447270     0.453754472887     1.007825032070
           H          0.859515350329    -0.199292447270     1.549754472887     1.007825032070
           O         -1.348484649671    -0.791292447270    -0.304245527113    15.994914619560
           O         -0.699484649671     1.187707552730     0.087754472887    15.994914619560

  Running in c1 symmetry.

  Rotational constants: A =      0.33361  B =      0.14200  C =      0.11404 [cm^-1]
  Rotational constants: A =  10001.34038  B =   4257.02891  C =   3418.85594 [MHz]
  Nuclear repulsion =  186.198228897395410

  Charge       = 0
  Multiplicity = 1
  Electrons    = 40
  Nalpha       = 20
  Nbeta        = 20

  ==> Algorithm <==

  SCF Algorithm Type is DF.
  DIIS enabled.
  MOM disabled.
  Fractional occupation disabled.
  Guess Type is CORE.
  Energy threshold   = 1.00e-08
  Density threshold  = 1.00e-08
  Integral threshold = 0.00e+00

  ==> Primary Basis <==

  Basis Set: 6-31G*
    Number of shells: 40
    Number of basis function: 85
    Number of Cartesian functions: 85
    Spherical Harmonics?: false
    Max angular momentum: 2

  ==> Pre-Iterations <==

   -------------------------------------------------------
    Irrep   Nso     Nmo     Nalpha   Nbeta   Ndocc  Nsocc
   -------------------------------------------------------
     A         85      85       0       0       0       0
   -------------------------------------------------------
    Total      85      85      20      20      20       0
   -------------------------------------------------------

 OEINTS: Overlap, kinetic, potential, dipole, and quadrupole integrals
         stored in file 35.

  ==> Integral Setup <==

  ==> DFJK: Density-Fitted J/K Matrices <==

    J tasked:                  Yes
    K tasked:                  Yes
    wK tasked:                  No
    OpenMP threads:              1
    Integrals threads:           1
    Memory (MB):              1430
    Algorithm:                Core
    Integral Cache:           NONE
    Schwarz Cutoff:          1E-12
    Fitting Condition:       1E-12

   => Auxiliary Basis Set <=

  Basis Set: 
    Number of shells: 165
    Number of basis function: 530
    Number of Cartesian functions: 530
    Spherical Harmonics?: false
    Max angular momentum: 3

  Minimum eigenvalue in the overlap matrix is 2.9814148814E-03.
  Using Symmetric Orthogonalization.
  SCF Guess: Core (One-Electron) Hamiltonian.

  ==> Iterations <==

                           Total Energy        Delta E     RMS |[F,P]|

   @DF-RHF iter   1:  -232.87060741203592   -2.32871e+02   8.64326e-02 
   @DF-RHF iter   2:  -168.05815086400102    6.48125e+01   1.01621e-01 DIIS
   @DF-RHF iter   3:  -269.55849325442409   -1.01500e+02   3.33670e-02 DIIS
   @DF-RHF iter   4:  -253.95128809349384    1.56072e+01   6.48306e-02 DIIS
   @DF-RHF iter   5:  -278.91346457217821   -2.49622e+01   2.86556e-02 DIIS
   @DF-RHF iter   6:  -281.99409684058458   -3.08063e+00   1.29142e-02 DIIS
   @DF-RHF iter   7:  -282.48708193394191   -4.92985e-01   8.05327e-03 DIIS
   @DF-RHF iter   8:  -282.67375706660584   -1.86675e-01   2.19376e-03 DIIS
   @DF-RHF iter   9:  -282.69591972860724   -2.21627e-02   8.69285e-04 DIIS
   @DF-RHF iter  10:  -282.69995190685643   -4.03218e-03   2.61913e-04 DIIS
   @DF-RHF iter  11:  -282.70041207251450   -4.60166e-04   1.16532e-04 DIIS
   @DF-RHF iter  12:  -282.70049181009347   -7.97376e-05   4.02007e-05 DIIS
   @DF-RHF iter  13:  -282.70050492061011   -1.31105e-05   1.86094e-05 DIIS
   @DF-RHF iter  14:  -282.70050889083041   -3.97022e-06   7.64759e-06 DIIS
   @DF-RHF iter  15:  -282.70051009330859   -1.20248e-06   2.76194e-06 DIIS
   @DF-RHF iter  16:  -282.70051024121142   -1.47903e-07   7.74262e-07 DIIS
   @DF-RHF iter  17:  -282.70051025092630   -9.71488e-09   2.66533e-07 DIIS
   @DF-RHF iter  18:  -282.70051025173041   -8.04107e-10   1.12072e-07 DIIS
   @DF-RHF iter  19:  -282.70051025196108   -2.30671e-10   5.24546e-08 DIIS
   @DF-RHF iter  20:  -282.70051025198995   -2.88765e-11   1.46277e-08 DIIS
   @DF-RHF iter  21:  -282.70051025199234   -2.38742e-12   5.48777e-09 DIIS

  ==> Post-Iterations <==

    Orbital Energies (a.u.)
    -----------------------

    Doubly Occupied:                                                      

       1A    -20.605043     2A    -20.599922     3A    -15.848928  
       4A    -11.303928     5A    -11.251306     6A     -1.633032  
       7A     -1.418539     8A     -1.126900     9A     -0.967277  
      10A     -0.836936    11A     -0.761368    12A     -0.738192  
      13A     -0.726123    14A     -0.654899    15A     -0.590866  
      16A     -0.562623    17A     -0.545137    18A     -0.485943  
      19A     -0.477978    20A     -0.450250  

    Virtual:                                                              

      21A      0.119086    22A      0.228942    23A      0.268252  
      24A      0.275683    25A      0.294782    26A      0.316931  
      27A      0.323851    28A      0.374460    29A      0.529444  
      30A      0.609962    31A      0.687684    32A      0.706653  
      33A      0.735367    34A      0.749353    35A      0.853890  
      36A      0.865838    37A      0.925205    38A      0.994378  
      39A      1.031965    40A      1.068933    41A      1.082830  
      42A      1.104399    43A      1.125045    44A      1.139745  
      45A      1.181870    46A      1.207686    47A      1.227213  
      48A      1.253760    49A      1.286369    50A      1.291909  
      51A      1.343074    52A      1.412509    53A      1.535289  
      54A      1.600836    55A      1.702310    56A      1.759299  
      57A      1.828481    58A      1.937524    59A      2.051623  
      60A      2.072422    61A      2.109293    62A      2.118890  
      63A      2.168293    64A      2.218425    65A      2.266008  
      66A      2.277694    67A      2.405072    68A      2.426583  
      69A      2.499192    70A      2.560864    71A      2.622392  
      72A      2.680827    73A      2.746212    74A      2.873741  
      75A      2.925624    76A      3.077587    77A      3.224942  
      78A      3.243744    79A      3.283336    80A      3.488476  
      81A      4.064271    82A      4.222942    83A      4.272094  
      84A      4.608909    85A      4.823790  

    Final Occupation by Irrep:
              A 
    DOCC [    20 ]

  Energy converged.

  @DF-RHF Final Energy:  -282.70051025199234

   => Energetics <=

    Nuclear Repulsion Energy =            186.1982288973954098
    One-Electron Energy =                -754.6270922097555740
    Two-Electron Energy =                 285.7283530603673967
    DFT Exchange-Correlation Energy =       0.0000000000000000
    Empirical Dispersion Energy =           0.0000000000000000
    PCM Polarization Energy =               0.0000000000000000
    EFP Energy =                            0.0000000000000000
    Total Energy =                       -282.7005102519927391

    Alert: EFP and PCM quantities not currently incorporated into SCF psivars.

Properties will be evaluated at   0.000000,   0.000000,   0.000000 Bohr
  ==> Properties <==


Properties computed using the SCF density matrix

  Nuclear Dipole Moment: (a.u.)
     X:     7.6111      Y:    -1.0841      Z:     0.3745

  Electronic Dipole Moment: (a.u.)
     X:    -6.1073      Y:     0.5779      Z:     0.0488

  Dipole Moment: (a.u.)
     X:     1.5038      Y:    -0.5062      Z:     0.4233     Total:     1.6422

  Dipole Moment: (Debye)
     X:     3.8222      Y:    -1.2867      Z:     1.0760     Total:     4.1740


  Saving occupied orbitals to File 180.

*** tstop() called on cx1-3-16-3.cx1.hpc.ic.ac.uk at Tue Jul  5 16:40:22 2016
Module time:
	user time   =       5.17 seconds =       0.09 minutes
	system time =       0.04 seconds =       0.00 minutes
	total time  =          5 seconds =       0.08 minutes
Total time:
	user time   =       5.17 seconds =       0.09 minutes
	system time =       0.04 seconds =       0.00 minutes
	total time  =          5 seconds =       0.08 minutes

*** tstart() called on cx1-3-16-3.cx1.hpc.ic.ac.uk
*** at Tue Jul  5 16:40:22 2016


         ------------------------------------------------------------
                                   SCF GRAD                          
                          Rob Parrish, Justin Turney,                
                       Andy Simmonett, and Alex Sokolov              
         ------------------------------------------------------------

  ==> Geometry <==

    Molecular point group: c1
    Full point group: C1

    Geometry (in Angstrom), charge = 0, multiplicity = 1:

       Center              X                  Y                   Z               Mass       
    ------------   -----------------  -----------------  -----------------  -----------------
           H          2.845515350329    -0.322292447270     0.022754472887     1.007825032070
           C          1.900515350329     0.071707552730    -0.330245527113    12.000000000000
           C          0.778515350329    -0.508292447270     0.517754472887    12.000000000000
           H          1.783515350329    -0.206292447270    -1.371245527113     1.007825032070
           H          1.922515350329     1.150707552730    -0.254245527113     1.007825032070
           N         -0.541484649671     0.004707552730     0.057754472887    14.003074004780
           H          0.716515350329    -1.581292447270     0.453754472887     1.007825032070
           H          0.859515350329    -0.199292447270     1.549754472887     1.007825032070
           O         -1.348484649671    -0.791292447270    -0.304245527113    15.994914619560
           O         -0.699484649671     1.187707552730     0.087754472887    15.994914619560

  Nuclear repulsion =  186.198228897395410

  ==> Basis Set <==

  Basis Set: 6-31G*
    Number of shells: 40
    Number of basis function: 85
    Number of Cartesian functions: 85
    Spherical Harmonics?: false
    Max angular momentum: 2

  ==> DFJKGrad: Density-Fitted SCF Gradients <==

    Gradient:                    1
    J tasked:                  Yes
    K tasked:                  Yes
    wK tasked:                  No
    OpenMP threads:              1
    Integrals threads:           1
    Memory (MB):              1430
    Schwarz Cutoff:          0E+00
    Fitting Condition:       1E-12

   => Auxiliary Basis Set <=

  Basis Set: 
    Number of shells: 165
    Number of basis function: 530
    Number of Cartesian functions: 530
    Spherical Harmonics?: false
    Max angular momentum: 3


  -Total Gradient:
     Atom            X                  Y                   Z
    ------   -----------------  -----------------  -----------------
       1       -0.000524443500     0.000283513164    -0.000131335618
       2        0.000510921862    -0.001070740524    -0.000034224098
       3        0.000215837328     0.000024636757     0.000524674460
       4        0.000024476884     0.000093197781    -0.000042154674
       5        0.000058936868     0.000710620444     0.000036424329
       6       -0.001905940851    -0.001843741446    -0.001027987761
       7       -0.000067932996     0.000140098312    -0.000066313712
       8       -0.000007076924    -0.000060133402    -0.000126971701
       9        0.001504598534     0.001342233537     0.000720911519
      10        0.000190622800     0.000380315380     0.000146977256


*** tstop() called on cx1-3-16-3.cx1.hpc.ic.ac.uk at Tue Jul  5 16:40:27 2016
Module time:
	user time   =       5.19 seconds =       0.09 minutes
	system time =       0.03 seconds =       0.00 minutes
	total time  =          5 seconds =       0.08 minutes
Total time:
	user time   =      10.37 seconds =       0.17 minutes
	system time =       0.07 seconds =       0.00 minutes
	total time  =         10 seconds =       0.17 minutes
CURRENT ENERGY: -282.7005102520

			-----------------------------------------
			 OPTKING 2.0: for geometry optimizations 
			  - R.A. King,  Bethel University        
			-----------------------------------------

	Internal coordinates to be generated automatically.
	Detected frag with atoms:  1 2 3 4 5 6 7 8 9 10
	---Fragment 1 Bond Connectivity---
	 1 : 2
	 2 : 1 3 4 5
	 3 : 2 6 7 8
	 4 : 2
	 5 : 2
	 6 : 3 9 10
	 7 : 3
	 8 : 3
	 9 : 6
	 10 : 6

	---Fragment 1 Geometry and Gradient---
	 H           5.3772447190       -0.6090444600        0.0429997221
	 C           3.5914535235        0.1355076363       -0.6240736029
	 C           1.4711808024       -0.9605335208        0.9784141578
	 H           3.3703555659       -0.3898362286       -2.5912785072
	 H           3.6330274984        2.1745221337       -0.4804544168
	 N          -1.0232576930        0.0088959854        0.1091401367
	 H           1.3540177821       -2.9882096613        0.8574716853
	 H           1.6242486191       -0.3766081457        2.9286115270
	 O          -2.5482666823       -1.4953260164       -0.5749407234
	 O          -1.3218344220        2.2444420006        0.1658319207
	            -0.0005244435        0.0002835132       -0.0001313356
	             0.0005109219       -0.0010707405       -0.0000342241
	             0.0002158373        0.0000246368        0.0005246745
	             0.0000244769        0.0000931978       -0.0000421547
	             0.0000589369        0.0007106204        0.0000364243
	            -0.0019059409       -0.0018437414       -0.0010279878
	            -0.0000679330        0.0001400983       -0.0000663137
	            -0.0000070769       -0.0000601334       -0.0001269717
	             0.0015045985        0.0013422335        0.0007209115
	             0.0001906228        0.0003803154        0.0001469773

	Previous optimization step data not found.  Starting new optimization.

	---Fragment 1 Intrafragment Coordinates---
	 - Coordinate -           - BOHR/RAD -       - ANG/DEG -
	 R(1,2)           =         2.046557	       1.082991
	 R(2,3)           =         2.874862	       1.521311
	 R(2,4)           =         2.048113	       1.083815
	 R(2,5)           =         2.044489	       1.081897
	 R(3,6)           =         2.813833	       1.489016
	 R(3,7)           =         2.034656	       1.076694
	 R(3,8)           =         2.041487	       1.080308
	 R(6,9)           =         2.248622	       1.189920
	 R(6,10)          =         2.256109	       1.193882
	 B(1,2,3)         =         1.899862	     108.854075
	 B(1,2,4)         =         1.890150	     108.297619
	 B(1,2,5)         =         1.898841	     108.795565
	 B(2,3,6)         =         1.928641	     110.502978
	 B(2,3,7)         =         1.970644	     112.909585
	 B(2,3,8)         =         1.947805	     111.601003
	 B(3,2,4)         =         1.936906	     110.976552
	 B(3,2,5)         =         1.934855	     110.859024
	 B(3,6,9)         =         2.054125	     117.692709
	 B(3,6,10)        =         2.038614	     116.803973
	 B(4,2,5)         =         1.902318	     108.994765
	 B(6,3,7)         =         1.848274	     105.898281
	 B(6,3,8)         =         1.836967	     105.250440
	 B(7,3,8)         =         1.924260	     110.251950
	 B(9,6,10)        =         2.190442	     125.503068
	 D(1,2,3,6)       =        -3.136089	    -179.684642
	 D(1,2,3,7)       =        -1.069721	     -61.290487
	 D(1,2,3,8)       =         1.109420	      63.565086
	 D(2,3,6,9)       =         2.105836	     120.655493
	 D(2,3,6,10)      =        -1.038751	     -59.516030
	 D(4,2,3,6)       =        -1.057531	     -60.592063
	 D(4,2,3,7)       =         1.008837	      57.802092
	 D(4,2,3,8)       =        -3.095208	    -177.342335
	 D(5,2,3,6)       =         1.059089	      60.681330
	 D(5,2,3,7)       =         3.125457	     179.075485
	 D(5,2,3,8)       =        -0.978588	     -56.068942
	 D(7,3,6,9)       =        -0.033786	      -1.935809
	 D(7,3,6,10)      =         3.104813	     177.892667
	 D(8,3,6,9)       =        -2.072140	    -118.724893
	 D(8,3,6,10)      =         1.066459	      61.103584

	Current energy   :      -282.7005102520

	Generating empirical Hessian (Schlegel '84) for each fragment.
	Taking RFO optimization step.
	Going to follow RFO solution 1.
	Using RFO vector 1.
	Norm of target step-size    0.03464
	Projected energy change by RFO approximation:         0.0000018732

	Back-transformation to cartesian coordinates...
	Successfully converged to displaced geometry.

	--- Internal Coordinate Step in ANG or DEG, aJ/ANG or AJ/DEG ---
	 ---------------------------------------------------------------------------
	   Coordinate                Previous        Force       Change         New 
	   ----------                --------       ------       ------       ------
	    1 R(1,2)          =      1.082991     0.004973     0.000896     1.083888
	    2 R(2,3)          =      1.521311    -0.001263    -0.000268     1.521043
	    3 R(2,4)          =      1.083815    -0.000115    -0.000021     1.083794
	    4 R(2,5)          =      1.081897    -0.005870    -0.001054     1.080843
	    5 R(3,6)          =      1.489016    -0.001603    -0.000307     1.488710
	    6 R(3,7)          =      1.076694     0.001086     0.000192     1.076885
	    7 R(3,8)          =      1.080308     0.001145     0.000205     1.080513
	    8 R(6,9)          =      1.189920     0.017611     0.001028     1.190948
	    9 R(6,10)         =      1.193882    -0.002927    -0.000174     1.193707
	   10 B(1,2,3)        =    108.854075     0.000003     0.013725   108.867799
	   11 B(1,2,4)        =    108.297619    -0.000001    -0.031607   108.266012
	   12 B(1,2,5)        =    108.795565     0.000003     0.042440   108.838006
	   13 B(2,3,6)        =    110.502978    -0.000001     0.004546   110.507524
	   14 B(2,3,7)        =    112.909585    -0.000001     0.011951   112.921536
	   15 B(2,3,8)        =    111.601003    -0.000001    -0.030967   111.570036
	   16 B(3,2,4)        =    110.976552    -0.000009    -0.056880   110.919672
	   17 B(3,2,5)        =    110.859024    -0.000002     0.004662   110.863687
	   18 B(3,6,9)        =    117.692709    -0.000003    -0.013596   117.679113
	   19 B(3,6,10)       =    116.803973     0.000025     0.068917   116.872890
	   20 B(4,2,5)        =    108.994765     0.000006     0.028532   109.023297
	   21 B(6,3,7)        =    105.898281     0.000006     0.066296   105.964577
	   22 B(6,3,8)        =    105.250440    -0.000002    -0.030805   105.219635
	   23 B(7,3,8)        =    110.251950    -0.000001    -0.018951   110.232999
	   24 B(9,6,10)       =    125.503068    -0.000022    -0.072192   125.430877
	   25 D(1,2,3,6)      =   -179.684642     0.000000     0.020543  -179.664099
	   26 D(1,2,3,7)      =    -61.290487     0.000001     0.115505   -61.174982
	   27 D(1,2,3,8)      =     63.565086     0.000001     0.075014    63.640100
	   28 D(2,3,6,9)      =    120.655493    -0.000000    -0.834501   119.820992
	   29 D(2,3,6,10)     =    -59.516030     0.000001     0.759507   -58.756523
	   30 D(4,2,3,6)      =    -60.592063    -0.000001    -0.044021   -60.636085
	   31 D(4,2,3,7)      =     57.802092     0.000000     0.050941    57.853033
	   32 D(4,2,3,8)      =   -177.342335    -0.000000     0.010450  -177.331885
	   33 D(5,2,3,6)      =     60.681330    -0.000001    -0.043275    60.638055
	   34 D(5,2,3,7)      =    179.075485     0.000000     0.051688   179.127173
	   35 D(5,2,3,8)      =    -56.068942    -0.000000     0.011197   -56.057745
	   36 D(7,3,6,9)      =     -1.935809    -0.000001    -0.893190    -2.829000
	   37 D(7,3,6,10)     =    177.892667     0.000000     0.700818   178.593485
	   38 D(8,3,6,9)      =   -118.724893    -0.000001    -0.887416  -119.612309
	   39 D(8,3,6,10)     =     61.103584     0.000000     0.706592    61.810176
	 ---------------------------------------------------------------------------

  ==> Convergence Check <==

  Measures of convergence in internal coordinates in au.
  Criteria marked as inactive (o), active & met (*), and active & unmet ( ).
  --------------------------------------------------------------------------------------------- ~
   Step     Total Energy     Delta E     MAX Force     RMS Force      MAX Disp      RMS Disp    ~
  --------------------------------------------------------------------------------------------- ~
    Convergence Criteria    1.00e-06 *    3.00e-04 *             o    1.20e-03 *             o  ~
  --------------------------------------------------------------------------------------------- ~
      1    -282.70051025   -2.83e+02      2.14e-03      3.89e-04 o    1.56e-02      5.55e-03 o  ~
  ---------------------------------------------------------------------------------------------

	Writing optimization data to binary file.
	Structure for next step:
	Cartesian Geometry (in Angstrom)
	    H     2.8452194221  -0.3227193090   0.0201345762
	    C     1.8984932665   0.0722928080  -0.3298472654
	    C     0.7787578842  -0.5087762652   0.5199311707
	    H     1.7784525131  -0.2053921022  -1.3705636031
	    H     1.9202945809   1.1501856244  -0.2530801316
	    N    -0.5421310621   0.0047623974   0.0640951724
	    H     0.7174058855  -1.5820068297   0.4559482099
	    H     0.8622684218  -0.2001265616   1.5520501670
	    O    -1.3451493726  -0.7904534092  -0.3116038033
	    O    -0.6964574086   1.1883090833   0.0824802689
			--------------------------
			 OPTKING Finished Execution 
			--------------------------

    Structure for next step:
    Molecular point group: c1
    Full point group: C1

    Geometry (in Angstrom), charge = 0, multiplicity = 1:

    H            2.844320990527    -0.323031385420     0.021182403217
    C            1.897594907219     0.071980701397    -0.328799411644
    C            0.777859610394    -0.509088327369     0.520978959499
    H            1.777554163022    -0.205704187564    -1.369515669896
    H            1.919396219961     1.149873435499    -0.252032283763
    N           -0.543029235031     0.004450295972     0.065142995980
    H            0.716507616433    -1.582318809938     0.456996003593
    H            0.861370141637    -0.200438647370     1.553097877014
    O           -1.346047484151    -0.790765449889    -0.310555951026
    O           -0.697355569743     1.187996891526     0.083528091127

gradient() will perform analytic gradient computation.

*** tstart() called on cx1-3-16-3.cx1.hpc.ic.ac.uk
*** at Tue Jul  5 16:40:28 2016


         ---------------------------------------------------------
                                   SCF
            by Justin Turney, Rob Parrish, and Andy Simmonett
                              RHF Reference
                        1 Threads,   2000 MiB Core
         ---------------------------------------------------------

  ==> Geometry <==

    Molecular point group: c1
    Full point group: C1

    Geometry (in Angstrom), charge = 0, multiplicity = 1:

       Center              X                  Y                   Z               Mass       
    ------------   -----------------  -----------------  -----------------  -----------------
           H          2.844320990527    -0.323031385420     0.021182403217     1.007825032070
           C          1.897594907219     0.071980701397    -0.328799411644    12.000000000000
           C          0.777859610394    -0.509088327369     0.520978959499    12.000000000000
           H          1.777554163022    -0.205704187564    -1.369515669896     1.007825032070
           H          1.919396219961     1.149873435499    -0.252032283763     1.007825032070
           N         -0.543029235031     0.004450295972     0.065142995980    14.003074004780
           H          0.716507616433    -1.582318809938     0.456996003593     1.007825032070
           H          0.861370141637    -0.200438647370     1.553097877014     1.007825032070
           O         -1.346047484151    -0.790765449889    -0.310555951026    15.994914619560
           O         -0.697355569743     1.187996891526     0.083528091127    15.994914619560

  Running in c1 symmetry.

  Rotational constants: A =      0.33293  B =      0.14225  C =      0.11427 [cm^-1]
  Rotational constants: A =   9980.88713  B =   4264.57487  C =   3425.76728 [MHz]
  Nuclear repulsion =  186.219696575102006

  Charge       = 0
  Multiplicity = 1
  Electrons    = 40
  Nalpha       = 20
  Nbeta        = 20

  ==> Algorithm <==

  SCF Algorithm Type is DF.
  DIIS enabled.
  MOM disabled.
  Fractional occupation disabled.
  Guess Type is READ.
  Energy threshold   = 1.00e-08
  Density threshold  = 1.00e-08
  Integral threshold = 0.00e+00

  ==> Primary Basis <==

  Basis Set: 6-31G*
    Number of shells: 40
    Number of basis function: 85
    Number of Cartesian functions: 85
    Spherical Harmonics?: false
    Max angular momentum: 2

  ==> Pre-Iterations <==

   -------------------------------------------------------
    Irrep   Nso     Nmo     Nalpha   Nbeta   Ndocc  Nsocc
   -------------------------------------------------------
     A         85      85       0       0       0       0
   -------------------------------------------------------
    Total      85      85      20      20      20       0
   -------------------------------------------------------

 OEINTS: Overlap, kinetic, potential, dipole, and quadrupole integrals
         stored in file 35.

  ==> Integral Setup <==

  ==> DFJK: Density-Fitted J/K Matrices <==

    J tasked:                  Yes
    K tasked:                  Yes
    wK tasked:                  No
    OpenMP threads:              1
    Integrals threads:           1
    Memory (MB):              1430
    Algorithm:                Core
    Integral Cache:           NONE
    Schwarz Cutoff:          1E-12
    Fitting Condition:       1E-12

   => Auxiliary Basis Set <=

  Basis Set: 
    Number of shells: 165
    Number of basis function: 530
    Number of Cartesian functions: 530
    Spherical Harmonics?: false
    Max angular momentum: 3

  Minimum eigenvalue in the overlap matrix is 3.0075414883E-03.
  Using Symmetric Orthogonalization.
  SCF Guess: Reading in previously saved MOs, projecting if necessary.

  Using orbitals from previous SCF, no projection.
  Recomputing DOCC and SOCC from number of alpha and beta electrons from previous calculation.
              A 
    DOCC [    20 ]

  ==> Iterations <==

                           Total Energy        Delta E     RMS |[F,P]|

   @DF-RHF iter   0:  -282.69925616896569   -2.82699e+02   3.60818e-04 
   @DF-RHF iter   1:  -282.70043475661339   -1.17859e-03   5.73792e-05 
   @DF-RHF iter   2:  -282.70045853221961   -2.37756e-05   2.37573e-05 DIIS
   @DF-RHF iter   3:  -282.70046287443267   -4.34221e-06   1.61678e-05 DIIS
   @DF-RHF iter   4:  -282.70046411497503   -1.24054e-06   4.10502e-06 DIIS
   @DF-RHF iter   5:  -282.70046442625414   -3.11279e-07   2.38066e-06 DIIS
   @DF-RHF iter   6:  -282.70046456268653   -1.36432e-07   8.79702e-07 DIIS
   @DF-RHF iter   7:  -282.70046457493538   -1.22488e-08   2.79134e-07 DIIS
   @DF-RHF iter   8:  -282.70046457537796   -4.42583e-10   8.69294e-08 DIIS
   @DF-RHF iter   9:  -282.70046457542719   -4.92264e-11   2.62928e-08 DIIS
   @DF-RHF iter  10:  -282.70046457543413   -6.93490e-12   8.60382e-09 DIIS

  ==> Post-Iterations <==

    Orbital Energies (a.u.)
    -----------------------

    Doubly Occupied:                                                      

       1A    -20.604794     2A    -20.600206     3A    -15.848948  
       4A    -11.304025     5A    -11.251321     6A     -1.632652  
       7A     -1.418116     8A     -1.127045     9A     -0.967473  
      10A     -0.836748    11A     -0.761235    12A     -0.738127  
      13A     -0.726061    14A     -0.654939    15A     -0.590542  
      16A     -0.562677    17A     -0.545187    18A     -0.485922  
      19A     -0.478115    20A     -0.450137  

    Virtual:                                                              

      21A      0.118916    22A      0.228566    23A      0.268282  
      24A      0.275675    25A      0.294696    26A      0.316881  
      27A      0.323947    28A      0.374973    29A      0.529128  
      30A      0.609725    31A      0.687396    32A      0.706818  
      33A      0.735742    34A      0.749103    35A      0.854064  
      36A      0.865459    37A      0.925057    38A      0.993524  
      39A      1.031462    40A      1.070229    41A      1.082619  
      42A      1.104021    43A      1.124989    44A      1.139558  
      45A      1.181942    46A      1.207817    47A      1.228351  
      48A      1.253233    49A      1.285677    50A      1.292097  
      51A      1.343464    52A      1.413376    53A      1.531827  
      54A      1.602260    55A      1.702455    56A      1.758788  
      57A      1.830435    58A      1.936060    59A      2.051679  
      60A      2.072000    61A      2.107167    62A      2.121442  
      63A      2.166889    64A      2.217961    65A      2.266920  
      66A      2.277014    67A      2.408459    68A      2.425388  
      69A      2.495534    70A      2.561567    71A      2.620387  
      72A      2.680909    73A      2.750787    74A      2.867724  
      75A      2.927865    76A      3.077059    77A      3.224994  
      78A      3.243114    79A      3.281280    80A      3.487270  
      81A      4.063161    82A      4.222814    83A      4.269177  
      84A      4.609679    85A      4.823558  

    Final Occupation by Irrep:
              A 
    DOCC [    20 ]

  Energy converged.

  @DF-RHF Final Energy:  -282.70046457543413

   => Energetics <=

    Nuclear Repulsion Energy =            186.2196965751020059
    One-Electron Energy =                -754.6717815246787495
    Two-Electron Energy =                 285.7516203741424192
    DFT Exchange-Correlation Energy =       0.0000000000000000
    Empirical Dispersion Energy =           0.0000000000000000
    PCM Polarization Energy =               0.0000000000000000
    EFP Energy =                            0.0000000000000000
    Total Energy =                       -282.7004645754342960

    Alert: EFP and PCM quantities not currently incorporated into SCF psivars.

Properties will be evaluated at   0.000000,   0.000000,   0.000000 Bohr
  ==> Properties <==


Properties computed using the SCF density matrix

  Nuclear Dipole Moment: (a.u.)
     X:     7.6032      Y:    -1.0871      Z:     0.3828

  Electronic Dipole Moment: (a.u.)
     X:    -6.1019      Y:     0.5824      Z:     0.0531

  Dipole Moment: (a.u.)
     X:     1.5014      Y:    -0.5047      Z:     0.4359     Total:     1.6428

  Dipole Moment: (Debye)
     X:     3.8161      Y:    -1.2828      Z:     1.1079     Total:     4.1756


  Saving occupied orbitals to File 180.

*** tstop() called on cx1-3-16-3.cx1.hpc.ic.ac.uk at Tue Jul  5 16:40:33 2016
Module time:
	user time   =       4.31 seconds =       0.07 minutes
	system time =       0.02 seconds =       0.00 minutes
	total time  =          5 seconds =       0.08 minutes
Total time:
	user time   =      14.79 seconds =       0.25 minutes
	system time =       0.10 seconds =       0.00 minutes
	total time  =         16 seconds =       0.27 minutes

*** tstart() called on cx1-3-16-3.cx1.hpc.ic.ac.uk
*** at Tue Jul  5 16:40:33 2016


         ------------------------------------------------------------
                                   SCF GRAD                          
                          Rob Parrish, Justin Turney,                
                       Andy Simmonett, and Alex Sokolov              
         ------------------------------------------------------------

  ==> Geometry <==

    Molecular point group: c1
    Full point group: C1

    Geometry (in Angstrom), charge = 0, multiplicity = 1:

       Center              X                  Y                   Z               Mass       
    ------------   -----------------  -----------------  -----------------  -----------------
           H          2.844320990527    -0.323031385420     0.021182403217     1.007825032070
           C          1.897594907219     0.071980701397    -0.328799411644    12.000000000000
           C          0.777859610394    -0.509088327369     0.520978959499    12.000000000000
           H          1.777554163022    -0.205704187564    -1.369515669896     1.007825032070
           H          1.919396219961     1.149873435499    -0.252032283763     1.007825032070
           N         -0.543029235031     0.004450295972     0.065142995980    14.003074004780
           H          0.716507616433    -1.582318809938     0.456996003593     1.007825032070
           H          0.861370141637    -0.200438647370     1.553097877014     1.007825032070
           O         -1.346047484151    -0.790765449889    -0.310555951026    15.994914619560
           O         -0.697355569743     1.187996891526     0.083528091127    15.994914619560

  Nuclear repulsion =  186.219696575102006

  ==> Basis Set <==

  Basis Set: 6-31G*
    Number of shells: 40
    Number of basis function: 85
    Number of Cartesian functions: 85
    Spherical Harmonics?: false
    Max angular momentum: 2

  ==> DFJKGrad: Density-Fitted SCF Gradients <==

    Gradient:                    1
    J tasked:                  Yes
    K tasked:                  Yes
    wK tasked:                  No
    OpenMP threads:              1
    Integrals threads:           1
    Memory (MB):              1430
    Schwarz Cutoff:          0E+00
    Fitting Condition:       1E-12

   => Auxiliary Basis Set <=

  Basis Set: 
    Number of shells: 165
    Number of basis function: 530
    Number of Cartesian functions: 530
    Spherical Harmonics?: false
    Max angular momentum: 3


  -Total Gradient:
     Atom            X                  Y                   Z
    ------   -----------------  -----------------  -----------------
       1        0.000088338009     0.000058794767    -0.000027564499
       2        0.000106413431    -0.000142436880     0.000180353101
       3        0.000696066472     0.000089486327    -0.001513417393
       4       -0.000009509110     0.000014340655     0.000009154489
       5       -0.000021474871     0.000009347093    -0.000006374554
       6       -0.002293423021    -0.001081042886     0.004838085910
       7        0.000072514182    -0.000046630108    -0.000061849664
       8       -0.000261233191     0.000074775930    -0.000121114816
       9        0.000976331914     0.000600589668    -0.001483845297
      10        0.000645976182     0.000422775434    -0.001813427277


*** tstop() called on cx1-3-16-3.cx1.hpc.ic.ac.uk at Tue Jul  5 16:40:39 2016
Module time:
	user time   =       6.47 seconds =       0.11 minutes
	system time =       0.02 seconds =       0.00 minutes
	total time  =          6 seconds =       0.10 minutes
Total time:
	user time   =      21.27 seconds =       0.35 minutes
	system time =       0.12 seconds =       0.00 minutes
	total time  =         22 seconds =       0.37 minutes
CURRENT ENERGY: -282.7004645754

			-----------------------------------------
			 OPTKING 2.0: for geometry optimizations 
			  - R.A. King,  Bethel University        
			-----------------------------------------

	Previous internal coordinate definitions found.
	---Fragment 1 Geometry and Gradient---
	 H           5.3749877061       -0.6104408508        0.0400289409
	 C           3.5859346858        0.1360238125       -0.6213408407
	 C           1.4699416335       -0.9620375162        0.9845075544
	 H           3.3590905545       -0.3887245789       -2.5880095508
	 H           3.6271331962        2.1729458806       -0.4762719930
	 N          -1.0261765364        0.0084098406        0.1231024219
	 H           1.3540031672       -2.9901492057        0.8635972906
	 H           1.6277536667       -0.3787741500        2.9349296451
	 O          -2.5436611069       -1.4943301356       -0.5868656964
	 O          -1.3178110441        2.2449887717        0.1578452166
	             0.0000883380        0.0000587948       -0.0000275645
	             0.0001064134       -0.0001424369        0.0001803531
	             0.0006960665        0.0000894863       -0.0015134174
	            -0.0000095091        0.0000143407        0.0000091545
	            -0.0000214749        0.0000093471       -0.0000063746
	            -0.0022934230       -0.0010810429        0.0048380859
	             0.0000725142       -0.0000466301       -0.0000618497
	            -0.0002612332        0.0000747759       -0.0001211148
	             0.0009763319        0.0006005897       -0.0014838453
	             0.0006459762        0.0004227754       -0.0018134273

	---Fragment 1 Intrafragment Coordinates---
	 - Coordinate -           - BOHR/RAD -       - ANG/DEG -
	 R(1,2)           =         2.048251	       1.083888
	 R(2,3)           =         2.874355	       1.521043
	 R(2,4)           =         2.048073	       1.083794
	 R(2,5)           =         2.042497	       1.080843
	 R(3,6)           =         2.813253	       1.488710
	 R(3,7)           =         2.035018	       1.076885
	 R(3,8)           =         2.041873	       1.080513
	 R(6,9)           =         2.250565	       1.190948
	 R(6,10)          =         2.255780	       1.193707
	 B(1,2,3)         =         1.900102	     108.867799
	 B(1,2,4)         =         1.889598	     108.266012
	 B(1,2,5)         =         1.899582	     108.838006
	 B(2,3,6)         =         1.928720	     110.507524
	 B(2,3,7)         =         1.970853	     112.921536
	 B(2,3,8)         =         1.947264	     111.570036
	 B(3,2,4)         =         1.935913	     110.919672
	 B(3,2,5)         =         1.934936	     110.863687
	 B(3,6,9)         =         2.053888	     117.679113
	 B(3,6,10)        =         2.039817	     116.872890
	 B(4,2,5)         =         1.902815	     109.023297
	 B(6,3,7)         =         1.849431	     105.964577
	 B(6,3,8)         =         1.836429	     105.219635
	 B(7,3,8)         =         1.923929	     110.232999
	 B(9,6,10)        =         2.189182	     125.430877
	 D(1,2,3,6)       =        -3.135730	    -179.664099
	 D(1,2,3,7)       =        -1.067705	     -61.174982
	 D(1,2,3,8)       =         1.110729	      63.640100
	 D(2,3,6,9)       =         2.091271	     119.820992
	 D(2,3,6,10)      =        -1.025495	     -58.756523
	 D(4,2,3,6)       =        -1.058299	     -60.636085
	 D(4,2,3,7)       =         1.009726	      57.853033
	 D(4,2,3,8)       =        -3.095025	    -177.331885
	 D(5,2,3,6)       =         1.058334	      60.638055
	 D(5,2,3,7)       =         3.126359	     179.127173
	 D(5,2,3,8)       =        -0.978392	     -56.057745
	 D(7,3,6,9)       =        -0.049375	      -2.829000
	 D(7,3,6,10)      =         3.117044	     178.593485
	 D(8,3,6,9)       =        -2.087629	    -119.612309
	 D(8,3,6,10)      =         1.078791	      61.810176

	Current energy   :      -282.7004645754

	Energy change for the previous step:
		Projected    :         0.0000018732
		Actual       :         0.0000456766

	Performing BFGS update.
	Previous computed or guess Hessian on step 1.
	Steps to be used in Hessian update: 1
	Taking RFO optimization step.
	Going to follow RFO solution 1.
	Using RFO vector 1.
	Norm of target step-size    0.04360
	Projected energy change by RFO approximation:        -0.0000616985

	Back-transformation to cartesian coordinates...
	Successfully converged to displaced geometry.

	--- Internal Coordinate Step in ANG or DEG, aJ/ANG or AJ/DEG ---
	 ---------------------------------------------------------------------------
	   Coordinate                Previous        Force       Change         New 
	   ----------                --------       ------       ------       ------
	    1 R(1,2)          =      1.083888    -0.000386     0.002389     1.086277
	    2 R(2,3)          =      1.521043    -0.000089    -0.000719     1.520324
	    3 R(2,4)          =      1.083794     0.000094    -0.000054     1.083740
	    4 R(2,5)          =      1.080843    -0.000070    -0.002819     1.078023
	    5 R(3,6)          =      1.488710    -0.000855    -0.000836     1.487873
	    6 R(3,7)          =      1.076885    -0.000379     0.000506     1.077391
	    7 R(3,8)          =      1.080513     0.000944     0.000564     1.081077
	    8 R(6,9)          =      1.190948     0.004871     0.002777     1.193724
	    9 R(6,10)         =      1.193707    -0.002535    -0.000481     1.193227
	   10 B(1,2,3)        =    108.867799    -0.000011     0.030248   108.898048
	   11 B(1,2,4)        =    108.266012     0.000003    -0.084941   108.181071
	   12 B(1,2,5)        =    108.838006     0.000004     0.114554   108.952559
	   13 B(2,3,6)        =    110.507524    -0.000030     0.002305   110.509829
	   14 B(2,3,7)        =    112.921536     0.000010     0.029805   112.951341
	   15 B(2,3,8)        =    111.570036    -0.000001    -0.081123   111.488913
	   16 B(3,2,4)        =    110.919672     0.000002    -0.151064   110.768608
	   17 B(3,2,5)        =    110.863687     0.000004     0.014912   110.878599
	   18 B(3,6,9)        =    117.679113    -0.000008    -0.018928   117.660185
	   19 B(3,6,10)       =    116.872890     0.000007     0.206339   117.079230
	   20 B(4,2,5)        =    109.023297    -0.000000     0.078075   109.101372
	   21 B(6,3,7)        =    105.964577     0.000002     0.170437   106.135014
	   22 B(6,3,8)        =    105.219635     0.000027    -0.062101   105.157535
	   23 B(7,3,8)        =    110.232999    -0.000006    -0.053270   110.179729
	   24 B(9,6,10)       =    125.430877     0.000005    -0.171509   125.259367
	   25 D(1,2,3,6)      =   -179.664099     0.000002     0.085112  -179.578987
	   26 D(1,2,3,7)      =    -61.174982    -0.000000     0.322569   -60.852413
	   27 D(1,2,3,8)      =     63.640100    -0.000001     0.210610    63.850710
	   28 D(2,3,6,9)      =    119.820992     0.000020     0.656780   120.477772
	   29 D(2,3,6,10)     =    -58.756523    -0.000023    -1.145902   -59.902424
	   30 D(4,2,3,6)      =    -60.636085     0.000002    -0.091115   -60.727199
	   31 D(4,2,3,7)      =     57.853033    -0.000001     0.146342    57.999375
	   32 D(4,2,3,8)      =   -177.331885    -0.000002     0.034383  -177.297502
	   33 D(5,2,3,6)      =     60.638055     0.000002    -0.084474    60.553582
	   34 D(5,2,3,7)      =    179.127173    -0.000000     0.152983   179.280156
	   35 D(5,2,3,8)      =    -56.057745    -0.000001     0.041024   -56.016721
	   36 D(7,3,6,9)      =     -2.829000     0.000021     0.511906    -2.317094
	   37 D(7,3,6,10)     =    178.593485    -0.000022    -1.290776   177.302709
	   38 D(8,3,6,9)      =   -119.612309     0.000020     0.524230  -119.088079
	   39 D(8,3,6,10)     =     61.810176    -0.000023    -1.278452    60.531724
	 ---------------------------------------------------------------------------

  ==> Convergence Check <==

  Measures of convergence in internal coordinates in au.
  Criteria marked as inactive (o), active & met (*), and active & unmet ( ).
  ---------------------------------------------------------------------------------------------
   Step     Total Energy     Delta E     MAX Force     RMS Force      MAX Disp      RMS Disp   
  ---------------------------------------------------------------------------------------------
    Convergence Criteria    1.00e-06 *    3.00e-04 *             o    1.20e-03 *             o
  ---------------------------------------------------------------------------------------------
      2    -282.70046458    4.57e-05      1.34e-03      5.11e-04 o    2.25e-02      6.98e-03 o  ~
  ---------------------------------------------------------------------------------------------

	Writing optimization data to binary file.
	Structure for next step:
	Cartesian Geometry (in Angstrom)
	    H     2.8474619206  -0.3250636248   0.0231393928
	    C     1.8997101953   0.0722675497  -0.3288435663
	    C     0.7778337671  -0.5077263244   0.5175516813
	    H     1.7808173952  -0.2081928913  -1.3688911690
	    H     1.9212362801   1.1474496582  -0.2536461790
	    N    -0.5407702869   0.0063029225   0.0583959408
	    H     0.7180731781  -1.5817533221   0.4570091011
	    H     0.8588099110  -0.1963071211   1.5496310784
	    O    -1.3491871258  -0.7915288679  -0.3088979711
	    O    -0.7058132477   1.1875064466   0.0945747387
			--------------------------
			 OPTKING Finished Execution 
			--------------------------

    Structure for next step:
    Molecular point group: c1
    Full point group: C1

    Geometry (in Angstrom), charge = 0, multiplicity = 1:

    H            2.849080828955    -0.325375572825     0.022278863060
    C            1.901329175984     0.071955571351    -0.329704069161
    C            0.779452833514    -0.508038258456     0.516691113811
    H            1.782436385023    -0.208504848236    -1.369751592404
    H            1.922855259208     1.147137597785    -0.254506687642
    N           -0.539151119858     0.005990949151     0.057535408377
    H            0.719692249019    -1.582065174179     0.456148538202
    H            0.860428971179    -0.196619078976     1.548770432080
    O           -1.347567896996    -0.791840780307    -0.309758475527
    O           -0.704194068030     1.187194383126     0.093714203480

gradient() will perform analytic gradient computation.

*** tstart() called on cx1-3-16-3.cx1.hpc.ic.ac.uk
*** at Tue Jul  5 16:40:40 2016


         ---------------------------------------------------------
                                   SCF
            by Justin Turney, Rob Parrish, and Andy Simmonett
                              RHF Reference
                        1 Threads,   2000 MiB Core
         ---------------------------------------------------------

  ==> Geometry <==

    Molecular point group: c1
    Full point group: C1

    Geometry (in Angstrom), charge = 0, multiplicity = 1:

       Center              X                  Y                   Z               Mass       
    ------------   -----------------  -----------------  -----------------  -----------------
           H          2.849080828955    -0.325375572825     0.022278863060     1.007825032070
           C          1.901329175984     0.071955571351    -0.329704069161    12.000000000000
           C          0.779452833514    -0.508038258456     0.516691113811    12.000000000000
           H          1.782436385023    -0.208504848236    -1.369751592404     1.007825032070
           H          1.922855259208     1.147137597785    -0.254506687642     1.007825032070
           N         -0.539151119858     0.005990949151     0.057535408377    14.003074004780
           H          0.719692249019    -1.582065174179     0.456148538202     1.007825032070
           H          0.860428971179    -0.196619078976     1.548770432080     1.007825032070
           O         -1.347567896996    -0.791840780307    -0.309758475527    15.994914619560
           O         -0.704194068030     1.187194383126     0.093714203480    15.994914619560

  Running in c1 symmetry.

  Rotational constants: A =      0.33337  B =      0.14183  C =      0.11395 [cm^-1]
  Rotational constants: A =   9994.23080  B =   4251.93452  C =   3416.21106 [MHz]
  Nuclear repulsion =  186.113483774814313

  Charge       = 0
  Multiplicity = 1
  Electrons    = 40
  Nalpha       = 20
  Nbeta        = 20

  ==> Algorithm <==

  SCF Algorithm Type is DF.
  DIIS enabled.
  MOM disabled.
  Fractional occupation disabled.
  Guess Type is READ.
  Energy threshold   = 1.00e-08
  Density threshold  = 1.00e-08
  Integral threshold = 0.00e+00

  ==> Primary Basis <==

  Basis Set: 6-31G*
    Number of shells: 40
    Number of basis function: 85
    Number of Cartesian functions: 85
    Spherical Harmonics?: false
    Max angular momentum: 2

  ==> Pre-Iterations <==

   -------------------------------------------------------
    Irrep   Nso     Nmo     Nalpha   Nbeta   Ndocc  Nsocc
   -------------------------------------------------------
     A         85      85       0       0       0       0
   -------------------------------------------------------
    Total      85      85      20      20      20       0
   -------------------------------------------------------

 OEINTS: Overlap, kinetic, potential, dipole, and quadrupole integrals
         stored in file 35.

  ==> Integral Setup <==

  ==> DFJK: Density-Fitted J/K Matrices <==

    J tasked:                  Yes
    K tasked:                  Yes
    wK tasked:                  No
    OpenMP threads:              1
    Integrals threads:           1
    Memory (MB):              1430
    Algorithm:                Core
    Integral Cache:           NONE
    Schwarz Cutoff:          1E-12
    Fitting Condition:       1E-12

   => Auxiliary Basis Set <=

  Basis Set: 
    Number of shells: 165
    Number of basis function: 530
    Number of Cartesian functions: 530
    Spherical Harmonics?: false
    Max angular momentum: 3

  Minimum eigenvalue in the overlap matrix is 3.0123217025E-03.
  Using Symmetric Orthogonalization.
  SCF Guess: Reading in previously saved MOs, projecting if necessary.

  Using orbitals from previous SCF, no projection.
  Recomputing DOCC and SOCC from number of alpha and beta electrons from previous calculation.
              A 
    DOCC [    20 ]

  ==> Iterations <==

                           Total Energy        Delta E     RMS |[F,P]|

   @DF-RHF iter   0:  -282.69730204244479   -2.82697e+02   4.76051e-04 
   @DF-RHF iter   1:  -282.70043999404675   -3.13795e-03   7.60244e-05 
   @DF-RHF iter   2:  -282.70047715652402   -3.71625e-05   3.44489e-05 DIIS
   @DF-RHF iter   3:  -282.70048370392351   -6.54740e-06   2.27936e-05 DIIS
   @DF-RHF iter   4:  -282.70048651045761   -2.80653e-06   5.63726e-06 DIIS
   @DF-RHF iter   5:  -282.70048698428064   -4.73823e-07   3.46399e-06 DIIS
   @DF-RHF iter   6:  -282.70048725205959   -2.67779e-07   1.34461e-06 DIIS
   @DF-RHF iter   7:  -282.70048729135044   -3.92909e-08   3.94716e-07 DIIS
   @DF-RHF iter   8:  -282.70048729260685   -1.25641e-09   1.63070e-07 DIIS
   @DF-RHF iter   9:  -282.70048729275624   -1.49385e-10   4.75319e-08 DIIS
   @DF-RHF iter  10:  -282.70048729278210   -2.58638e-11   1.83560e-08 DIIS
   @DF-RHF iter  11:  -282.70048729278659   -4.49063e-12   7.43203e-09 DIIS

  ==> Post-Iterations <==

    Orbital Energies (a.u.)
    -----------------------

    Doubly Occupied:                                                      

       1A    -20.604100     2A    -20.601000     3A    -15.849012  
       4A    -11.304330     5A    -11.251503     6A     -1.631607  
       7A     -1.416965     8A     -1.127682     9A     -0.967739  
      10A     -0.837040    11A     -0.760974    12A     -0.737786  
      13A     -0.725445    14A     -0.655142    15A     -0.590434  
      16A     -0.563026    17A     -0.545606    18A     -0.485796  
      19A     -0.478392    20A     -0.449812  

    Virtual:                                                              

      21A      0.117999    22A      0.228655    23A      0.268279  
      24A      0.275629    25A      0.293891    26A      0.317000  
      27A      0.323559    28A      0.374492    29A      0.528979  
      30A      0.607953    31A      0.687096    32A      0.706434  
      33A      0.735179    34A      0.749039    35A      0.854278  
      36A      0.864762    37A      0.925130    38A      0.993875  
      39A      1.032694    40A      1.069242    41A      1.082545  
      42A      1.104428    43A      1.125418    44A      1.138982  
      45A      1.181055    46A      1.207245    47A      1.227360  
      48A      1.255128    49A      1.286049    50A      1.291698  
      51A      1.342510    52A      1.412637    53A      1.534198  
      54A      1.600517    55A      1.700987    56A      1.757802  
      57A      1.827900    58A      1.938406    59A      2.052262  
      60A      2.071454    61A      2.108959    62A      2.118335  
      63A      2.168455    64A      2.219188    65A      2.265368  
      66A      2.278298    67A      2.403782    68A      2.427492  
      69A      2.498859    70A      2.560848    71A      2.619508  
      72A      2.679874    73A      2.744636    74A      2.874831  
      75A      2.925441    76A      3.074711    77A      3.223389  
      78A      3.241486    79A      3.280813    80A      3.485657  
      81A      4.061409    82A      4.222456    83A      4.269293  
      84A      4.608456    85A      4.823625  

    Final Occupation by Irrep:
              A 
    DOCC [    20 ]

  Energy converged.

  @DF-RHF Final Energy:  -282.70048729278659

   => Energetics <=

    Nuclear Repulsion Energy =            186.1134837748143127
    One-Electron Energy =                -754.4611588938727209
    Two-Electron Energy =                 285.6471878262713062
    DFT Exchange-Correlation Energy =       0.0000000000000000
    Empirical Dispersion Energy =           0.0000000000000000
    PCM Polarization Energy =               0.0000000000000000
    EFP Energy =                            0.0000000000000000
    Total Energy =                       -282.7004872927871020

    Alert: EFP and PCM quantities not currently incorporated into SCF psivars.

Properties will be evaluated at   0.000000,   0.000000,   0.000000 Bohr
  ==> Properties <==


Properties computed using the SCF density matrix

  Nuclear Dipole Moment: (a.u.)
     X:     7.6175      Y:    -1.0907      Z:     0.3765

  Electronic Dipole Moment: (a.u.)
     X:    -6.1025      Y:     0.5931      Z:     0.0482

  Dipole Moment: (a.u.)
     X:     1.5150      Y:    -0.4975      Z:     0.4247     Total:     1.6502

  Dipole Moment: (Debye)
     X:     3.8508      Y:    -1.2646      Z:     1.0796     Total:     4.1945


  Saving occupied orbitals to File 180.

*** tstop() called on cx1-3-16-3.cx1.hpc.ic.ac.uk at Tue Jul  5 16:40:44 2016
Module time:
	user time   =       4.19 seconds =       0.07 minutes
	system time =       0.02 seconds =       0.00 minutes
	total time  =          4 seconds =       0.07 minutes
Total time:
	user time   =      25.56 seconds =       0.43 minutes
	system time =       0.14 seconds =       0.00 minutes
	total time  =         27 seconds =       0.45 minutes

*** tstart() called on cx1-3-16-3.cx1.hpc.ic.ac.uk
*** at Tue Jul  5 16:40:44 2016


         ------------------------------------------------------------
                                   SCF GRAD                          
                          Rob Parrish, Justin Turney,                
                       Andy Simmonett, and Alex Sokolov              
         ------------------------------------------------------------

  ==> Geometry <==

    Molecular point group: c1
    Full point group: C1

    Geometry (in Angstrom), charge = 0, multiplicity = 1:

       Center              X                  Y                   Z               Mass       
    ------------   -----------------  -----------------  -----------------  -----------------
           H          2.849080828955    -0.325375572825     0.022278863060     1.007825032070
           C          1.901329175984     0.071955571351    -0.329704069161    12.000000000000
           C          0.779452833514    -0.508038258456     0.516691113811    12.000000000000
           H          1.782436385023    -0.208504848236    -1.369751592404     1.007825032070
           H          1.922855259208     1.147137597785    -0.254506687642     1.007825032070
           N         -0.539151119858     0.005990949151     0.057535408377    14.003074004780
           H          0.719692249019    -1.582065174179     0.456148538202     1.007825032070
           H          0.860428971179    -0.196619078976     1.548770432080     1.007825032070
           O         -1.347567896996    -0.791840780307    -0.309758475527    15.994914619560
           O         -0.704194068030     1.187194383126     0.093714203480    15.994914619560

  Nuclear repulsion =  186.113483774814313

  ==> Basis Set <==

  Basis Set: 6-31G*
    Number of shells: 40
    Number of basis function: 85
    Number of Cartesian functions: 85
    Spherical Harmonics?: false
    Max angular momentum: 2

  ==> DFJKGrad: Density-Fitted SCF Gradients <==

    Gradient:                    1
    J tasked:                  Yes
    K tasked:                  Yes
    wK tasked:                  No
    OpenMP threads:              1
    Integrals threads:           1
    Memory (MB):              1430
    Schwarz Cutoff:          0E+00
    Fitting Condition:       1E-12

   => Auxiliary Basis Set <=

  Basis Set: 
    Number of shells: 165
    Number of basis function: 530
    Number of Cartesian functions: 530
    Spherical Harmonics?: false
    Max angular momentum: 3


  -Total Gradient:
     Atom            X                  Y                   Z
    ------   -----------------  -----------------  -----------------
       1        0.001529336798    -0.000772245675     0.000434532330
       2       -0.001381240637     0.002830648829     0.000218396163
       3       -0.000270810974    -0.000067132954    -0.001173131954
       4       -0.000193092708    -0.000168947256     0.000190202303
       5       -0.000202540335    -0.002074989877    -0.000136732789
       6        0.004277933752     0.002442551147     0.000916437577
       7        0.000324623574    -0.000537630022     0.000230960469
       8        0.000083434056     0.000200144195     0.000280815639
       9       -0.003026786786    -0.001982105866    -0.000954287055
      10       -0.001140856742     0.000129707476    -0.000007192682


*** tstop() called on cx1-3-16-3.cx1.hpc.ic.ac.uk at Tue Jul  5 16:40:50 2016
Module time:
	user time   =       6.01 seconds =       0.10 minutes
	system time =       0.00 seconds =       0.00 minutes
	total time  =          6 seconds =       0.10 minutes
Total time:
	user time   =      31.58 seconds =       0.53 minutes
	system time =       0.14 seconds =       0.00 minutes
	total time  =         33 seconds =       0.55 minutes
CURRENT ENERGY: -282.7004872928

			-----------------------------------------
			 OPTKING 2.0: for geometry optimizations 
			  - R.A. King,  Bethel University        
			-----------------------------------------

	Previous internal coordinate definitions found.
	---Fragment 1 Geometry and Gradient---
	 H           5.3839824972       -0.6148707230        0.0421009497
	 C           3.5929914311        0.1359763236       -0.6230503956
	 C           1.4729523888       -0.9600531735        0.9764047004
	 H           3.3683166170       -0.3940170605       -2.5884553797
	 H           3.6336698331        2.1677758965       -0.4809479386
	 N          -1.0188479608        0.0113212532        0.1087261648
	 H           1.3600212506       -2.9896699036        0.8619958131
	 H           1.6259751123       -0.3715562118        2.9267519593
	 O          -2.5465342708       -1.4963622156       -0.5853586861
	 O          -1.3307339330        2.2434722506        0.1770941793
	             0.0015293368       -0.0007722457        0.0004345323
	            -0.0013812406        0.0028306488        0.0002183962
	            -0.0002708110       -0.0000671330       -0.0011731320
	            -0.0001930927       -0.0001689473        0.0001902023
	            -0.0002025403       -0.0020749899       -0.0001367328
	             0.0042779338        0.0024425511        0.0009164376
	             0.0003246236       -0.0005376300        0.0002309605
	             0.0000834341        0.0002001442        0.0002808156
	            -0.0030267868       -0.0019821059       -0.0009542871
	            -0.0011408567        0.0001297075       -0.0000071927

	---Fragment 1 Intrafragment Coordinates---
	 - Coordinate -           - BOHR/RAD -       - ANG/DEG -
	 R(1,2)           =         2.052766	       1.086277
	 R(2,3)           =         2.872995	       1.520324
	 R(2,4)           =         2.047972	       1.083740
	 R(2,5)           =         2.037169	       1.078023
	 R(3,6)           =         2.811673	       1.487873
	 R(3,7)           =         2.035973	       1.077391
	 R(3,8)           =         2.042939	       1.081077
	 R(6,9)           =         2.255812	       1.193724
	 R(6,10)          =         2.254871	       1.193227
	 B(1,2,3)         =         1.900629	     108.898048
	 B(1,2,4)         =         1.888116	     108.181071
	 B(1,2,5)         =         1.901581	     108.952559
	 B(2,3,6)         =         1.928760	     110.509829
	 B(2,3,7)         =         1.971373	     112.951341
	 B(2,3,8)         =         1.945849	     111.488913
	 B(3,2,4)         =         1.933277	     110.768608
	 B(3,2,5)         =         1.935197	     110.878599
	 B(3,6,9)         =         2.053558	     117.660185
	 B(3,6,10)        =         2.043418	     117.079230
	 B(4,2,5)         =         1.904178	     109.101372
	 B(6,3,7)         =         1.852405	     106.135014
	 B(6,3,8)         =         1.835345	     105.157535
	 B(7,3,8)         =         1.922999	     110.179729
	 B(9,6,10)        =         2.186188	     125.259367
	 D(1,2,3,6)       =        -3.134245	    -179.578987
	 D(1,2,3,7)       =        -1.062075	     -60.852413
	 D(1,2,3,8)       =         1.114405	      63.850710
	 D(2,3,6,9)       =         2.102734	     120.477772
	 D(2,3,6,10)      =        -1.045495	     -59.902424
	 D(4,2,3,6)       =        -1.059890	     -60.727199
	 D(4,2,3,7)       =         1.012280	      57.999375
	 D(4,2,3,8)       =        -3.094425	    -177.297502
	 D(5,2,3,6)       =         1.056859	      60.553582
	 D(5,2,3,7)       =         3.129029	     179.280156
	 D(5,2,3,8)       =        -0.977676	     -56.016721
	 D(7,3,6,9)       =        -0.040441	      -2.317094
	 D(7,3,6,10)      =         3.094516	     177.302709
	 D(8,3,6,9)       =        -2.078479	    -119.088079
	 D(8,3,6,10)      =         1.056478	      60.531724

	Current energy   :      -282.7004872928

	Energy change for the previous step:
		Projected    :        -0.0000616985
		Actual       :        -0.0000227174

	Performing BFGS update.
	Previous computed or guess Hessian on step 1.
	Steps to be used in Hessian update: 2 1
	Taking RFO optimization step.
	Going to follow RFO solution 1.
	Using RFO vector 1.
	Norm of target step-size    0.01985
	Projected energy change by RFO approximation:        -0.0000383045

	Back-transformation to cartesian coordinates...
	Successfully converged to displaced geometry.

	--- Internal Coordinate Step in ANG or DEG, aJ/ANG or AJ/DEG ---
	 ---------------------------------------------------------------------------
	   Coordinate                Previous        Force       Change         New 
	   ----------                --------       ------       ------       ------
	    1 R(1,2)          =      1.086277    -0.014480    -0.002349     1.083928
	    2 R(2,3)          =      1.520324     0.005328     0.000791     1.521114
	    3 R(2,4)          =      1.083740     0.000969     0.000083     1.083823
	    4 R(2,5)          =      1.078023     0.017162     0.002766     1.080790
	    5 R(3,6)          =      1.487873    -0.000989     0.000536     1.488409
	    6 R(3,7)          =      1.077391    -0.004160    -0.000545     1.076845
	    7 R(3,8)          =      1.081077    -0.002735    -0.000511     1.080566
	    8 R(6,9)          =      1.193724    -0.030221    -0.002392     1.191333
	    9 R(6,10)         =      1.193227    -0.002356     0.000297     1.193524
	   10 B(1,2,3)        =    108.898048    -0.000011    -0.042996   108.855051
	   11 B(1,2,4)        =    108.181071    -0.000005     0.065123   108.246193
	   12 B(1,2,5)        =    108.952559    -0.000009    -0.111237   108.841322
	   13 B(2,3,6)        =    110.509829    -0.000005    -0.019340   110.490489
	   14 B(2,3,7)        =    112.951341     0.000010    -0.022915   112.928426
	   15 B(2,3,8)        =    111.488913     0.000008     0.095203   111.584117
	   16 B(3,2,4)        =    110.768608     0.000034     0.157493   110.926101
	   17 B(3,2,5)        =    110.878599     0.000007    -0.006120   110.872479
	   18 B(3,6,9)        =    117.660185    -0.000016     0.003379   117.663564
	   19 B(3,6,10)       =    117.079230    -0.000081    -0.201894   116.877336
	   20 B(4,2,5)        =    109.101372    -0.000017    -0.064858   109.036515
	   21 B(6,3,7)        =    106.135014    -0.000022    -0.191598   105.943416
	   22 B(6,3,8)        =    105.157535     0.000007     0.079010   105.236545
	   23 B(7,3,8)        =    110.179729     0.000001     0.052204   110.231933
	   24 B(9,6,10)       =    125.259367     0.000098     0.199688   125.459055
	   25 D(1,2,3,6)      =   -179.578987     0.000001    -0.058382  -179.637370
	   26 D(1,2,3,7)      =    -60.852413    -0.000005    -0.329806   -61.182219
	   27 D(1,2,3,8)      =     63.850710    -0.000001    -0.202797    63.647913
	   28 D(2,3,6,9)      =    120.477772    -0.000005     0.020380   120.498153
	   29 D(2,3,6,10)     =    -59.902424     0.000003     0.326956   -59.575468
	   30 D(4,2,3,6)      =    -60.727199     0.000003     0.089382   -60.637818
	   31 D(4,2,3,7)      =     57.999375    -0.000003    -0.182042    57.817333
	   32 D(4,2,3,8)      =   -177.297502     0.000000    -0.055033  -177.352535
	   33 D(5,2,3,6)      =     60.553582     0.000004     0.109826    60.663407
	   34 D(5,2,3,7)      =    179.280156    -0.000002    -0.161598   179.118558
	   35 D(5,2,3,8)      =    -56.016721     0.000002    -0.034589   -56.051310
	   36 D(7,3,6,9)      =     -2.317094    -0.000004     0.180020    -2.137074
	   37 D(7,3,6,10)     =    177.302709     0.000004     0.486596   177.789305
	   38 D(8,3,6,9)      =   -119.088079    -0.000002     0.170671  -118.917408
	   39 D(8,3,6,10)     =     60.531724     0.000006     0.477247    61.008971
	 ---------------------------------------------------------------------------

  ==> Convergence Check <==

  Measures of convergence in internal coordinates in au.
  Criteria marked as inactive (o), active & met (*), and active & unmet ( ).
  ---------------------------------------------------------------------------------------------
   Step     Total Energy     Delta E     MAX Force     RMS Force      MAX Disp      RMS Disp   
  ---------------------------------------------------------------------------------------------
    Convergence Criteria    1.00e-06 *    3.00e-04 *             o    1.20e-03 *             o
  ---------------------------------------------------------------------------------------------
      3    -282.70048729   -2.27e-05      3.67e-03      8.10e-04 o    8.49e-03      3.18e-03 o  ~
  ---------------------------------------------------------------------------------------------

	Writing optimization data to binary file.
	Structure for next step:
	Cartesian Geometry (in Angstrom)
	    H     2.8467239776  -0.3236899417   0.0223564533
	    C     1.9009091942   0.0714851625  -0.3300232052
	    C     0.7792325803  -0.5085686053   0.5180145452
	    H     1.7832387225  -0.2073587544  -1.3707305281
	    H     1.9230164241   1.1493855003  -0.2542055961
	    N    -0.5401584509   0.0046579835   0.0584839994
	    H     0.7174870875  -1.5817796878   0.4547588971
	    H     0.8604806468  -0.1991287614   1.5501327542
	    O    -1.3469347113  -0.7922464677  -0.3066591049
	    O    -0.6996322247   1.1870782689   0.0892895524
			--------------------------
			 OPTKING Finished Execution 
			--------------------------

    Structure for next step:
    Molecular point group: c1
    Full point group: C1

    Geometry (in Angstrom), charge = 0, multiplicity = 1:

    H            2.845954343412    -0.323208214961     0.022309744815
    C            1.900139632284     0.071966859089    -0.330069886762
    C            0.778463104062    -0.508086864485     0.517967798902
    H            1.782469169579    -0.206877036529    -1.370777130185
    H            1.922246860479     1.149867114502    -0.254252283398
    N           -0.540927826460     0.005139685132     0.058437288187
    H            0.716717615958    -1.581297865024     0.454712155655
    H            0.859711164319    -0.198647044202     1.550085929077
    O           -1.347704025196    -0.791764705158    -0.306705788268
    O           -0.700401588083     1.187559880269     0.089242838825

gradient() will perform analytic gradient computation.

*** tstart() called on cx1-3-16-3.cx1.hpc.ic.ac.uk
*** at Tue Jul  5 16:40:50 2016


         ---------------------------------------------------------
                                   SCF
            by Justin Turney, Rob Parrish, and Andy Simmonett
                              RHF Reference
                        1 Threads,   2000 MiB Core
         ---------------------------------------------------------

  ==> Geometry <==

    Molecular point group: c1
    Full point group: C1

    Geometry (in Angstrom), charge = 0, multiplicity = 1:

       Center              X                  Y                   Z               Mass       
    ------------   -----------------  -----------------  -----------------  -----------------
           H          2.845954343412    -0.323208214961     0.022309744815     1.007825032070
           C          1.900139632284     0.071966859089    -0.330069886762    12.000000000000
           C          0.778463104062    -0.508086864485     0.517967798902    12.000000000000
           H          1.782469169579    -0.206877036529    -1.370777130185     1.007825032070
           H          1.922246860479     1.149867114502    -0.254252283398     1.007825032070
           N         -0.540927826460     0.005139685132     0.058437288187    14.003074004780
           H          0.716717615958    -1.581297865024     0.454712155655     1.007825032070
           H          0.859711164319    -0.198647044202     1.550085929077     1.007825032070
           O         -1.347704025196    -0.791764705158    -0.306705788268    15.994914619560
           O         -0.700401588083     1.187559880269     0.089242838825    15.994914619560

  Running in c1 symmetry.

  Rotational constants: A =      0.33339  B =      0.14202  C =      0.11407 [cm^-1]
  Rotational constants: A =   9994.73451  B =   4257.55695  C =   3419.61702 [MHz]
  Nuclear repulsion =  186.182767278921347

  Charge       = 0
  Multiplicity = 1
  Electrons    = 40
  Nalpha       = 20
  Nbeta        = 20

  ==> Algorithm <==

  SCF Algorithm Type is DF.
  DIIS enabled.
  MOM disabled.
  Fractional occupation disabled.
  Guess Type is READ.
  Energy threshold   = 1.00e-08
  Density threshold  = 1.00e-08
  Integral threshold = 0.00e+00

  ==> Primary Basis <==

  Basis Set: 6-31G*
    Number of shells: 40
    Number of basis function: 85
    Number of Cartesian functions: 85
    Spherical Harmonics?: false
    Max angular momentum: 2

  ==> Pre-Iterations <==

   -------------------------------------------------------
    Irrep   Nso     Nmo     Nalpha   Nbeta   Ndocc  Nsocc
   -------------------------------------------------------
     A         85      85       0       0       0       0
   -------------------------------------------------------
    Total      85      85      20      20      20       0
   -------------------------------------------------------

 OEINTS: Overlap, kinetic, potential, dipole, and quadrupole integrals
         stored in file 35.

  ==> Integral Setup <==

  ==> DFJK: Density-Fitted J/K Matrices <==

    J tasked:                  Yes
    K tasked:                  Yes
    wK tasked:                  No
    OpenMP threads:              1
    Integrals threads:           1
    Memory (MB):              1430
    Algorithm:                Core
    Integral Cache:           NONE
    Schwarz Cutoff:          1E-12
    Fitting Condition:       1E-12

   => Auxiliary Basis Set <=

  Basis Set: 
    Number of shells: 165
    Number of basis function: 530
    Number of Cartesian functions: 530
    Spherical Harmonics?: false
    Max angular momentum: 3

  Minimum eigenvalue in the overlap matrix is 2.9915590035E-03.
  Using Symmetric Orthogonalization.
  SCF Guess: Reading in previously saved MOs, projecting if necessary.

  Using orbitals from previous SCF, no projection.
  Recomputing DOCC and SOCC from number of alpha and beta electrons from previous calculation.
              A 
    DOCC [    20 ]

  ==> Iterations <==

                           Total Energy        Delta E     RMS |[F,P]|

   @DF-RHF iter   0:  -282.70274645144292   -2.82703e+02   2.22657e-04 
   @DF-RHF iter   1:  -282.70050772144458    2.23873e-03   3.82538e-05 
   @DF-RHF iter   2:  -282.70051298274137   -5.26130e-06   2.35730e-05 DIIS
   @DF-RHF iter   3:  -282.70051471485976   -1.73212e-06   8.50549e-06 DIIS
   @DF-RHF iter   4:  -282.70051514886939   -4.34010e-07   2.39529e-06 DIIS
   @DF-RHF iter   5:  -282.70051522306329   -7.41939e-08   1.27995e-06 DIIS
   @DF-RHF iter   6:  -282.70051524986849   -2.68052e-08   6.05495e-07 DIIS
   @DF-RHF iter   7:  -282.70051525793662   -8.06813e-09   1.91037e-07 DIIS
   @DF-RHF iter   8:  -282.70051525849664   -5.60021e-10   9.43058e-08 DIIS
   @DF-RHF iter   9:  -282.70051525856474   -6.80984e-11   2.72489e-08 DIIS
   @DF-RHF iter  10:  -282.70051525857377   -9.03810e-12   1.08419e-08 DIIS
   @DF-RHF iter  11:  -282.70051525857610   -2.33058e-12   4.42343e-09 DIIS

  ==> Post-Iterations <==

    Orbital Energies (a.u.)
    -----------------------

    Doubly Occupied:                                                      

       1A    -20.604709     2A    -20.600372     3A    -15.848959  
       4A    -11.304002     5A    -11.251368     6A     -1.632551  
       7A     -1.418111     8A     -1.127153     9A     -0.967429  
      10A     -0.836957    11A     -0.761238    12A     -0.738085  
      13A     -0.725927    14A     -0.654951    15A     -0.590649  
      16A     -0.562739    17A     -0.545304    18A     -0.485946  
      19A     -0.478100    20A     -0.450153  

    Virtual:                                                              

      21A      0.118739    22A      0.228854    23A      0.268246  
      24A      0.275682    25A      0.294560    26A      0.316958  
      27A      0.323906    28A      0.374504    29A      0.529163  
      30A      0.609461    31A      0.687562    32A      0.706567  
      33A      0.735353    34A      0.749289    35A      0.853955  
      36A      0.865624    37A      0.925125    38A      0.994132  
      39A      1.032094    40A      1.069090    41A      1.082818  
      42A      1.104355    43A      1.125160    44A      1.139493  
      45A      1.181696    46A      1.207579    47A      1.227338  
      48A      1.254031    49A      1.286346    50A      1.291831  
      51A      1.342856    52A      1.412717    53A      1.534629  
      54A      1.600855    55A      1.701927    56A      1.758985  
      57A      1.828516    58A      1.937774    59A      2.051751  
      60A      2.072127    61A      2.109048    62A      2.119125  
      63A      2.168140    64A      2.218552    65A      2.265957  
      66A      2.277729    67A      2.405190    68A      2.426343  
      69A      2.498778    70A      2.560905    71A      2.621442  
      72A      2.680752    73A      2.746094    74A      2.873514  
      75A      2.925793    76A      3.076874    77A      3.224538  
      78A      3.243173    79A      3.282380    80A      3.487589  
      81A      4.063596    82A      4.222968    83A      4.270983  
      84A      4.608878    85A      4.823783  

    Final Occupation by Irrep:
              A 
    DOCC [    20 ]

  Energy converged.

  @DF-RHF Final Energy:  -282.70051525857610

   => Energetics <=

    Nuclear Repulsion Energy =            186.1827672789213466
    One-Electron Energy =                -754.5971591969755536
    Two-Electron Energy =                 285.7138766594782737
    DFT Exchange-Correlation Energy =       0.0000000000000000
    Empirical Dispersion Energy =           0.0000000000000000
    PCM Polarization Energy =               0.0000000000000000
    EFP Energy =                            0.0000000000000000
    Total Energy =                       -282.7005152585759333

    Alert: EFP and PCM quantities not currently incorporated into SCF psivars.

Properties will be evaluated at   0.000000,   0.000000,   0.000000 Bohr
  ==> Properties <==


Properties computed using the SCF density matrix

  Nuclear Dipole Moment: (a.u.)
     X:     7.6106      Y:    -1.0857      Z:     0.3757

  Electronic Dipole Moment: (a.u.)
     X:    -6.1044      Y:     0.5833      Z:     0.0494

  Dipole Moment: (a.u.)
     X:     1.5063      Y:    -0.5024      Z:     0.4252     Total:     1.6438

  Dipole Moment: (Debye)
     X:     3.8286      Y:    -1.2770      Z:     1.0807     Total:     4.1781


  Saving occupied orbitals to File 180.

*** tstop() called on cx1-3-16-3.cx1.hpc.ic.ac.uk at Tue Jul  5 16:40:55 2016
Module time:
	user time   =       3.92 seconds =       0.07 minutes
	system time =       0.01 seconds =       0.00 minutes
	total time  =          5 seconds =       0.08 minutes
Total time:
	user time   =      35.59 seconds =       0.59 minutes
	system time =       0.16 seconds =       0.00 minutes
	total time  =         38 seconds =       0.63 minutes

*** tstart() called on cx1-3-16-3.cx1.hpc.ic.ac.uk
*** at Tue Jul  5 16:40:55 2016


         ------------------------------------------------------------
                                   SCF GRAD                          
                          Rob Parrish, Justin Turney,                
                       Andy Simmonett, and Alex Sokolov              
         ------------------------------------------------------------

  ==> Geometry <==

    Molecular point group: c1
    Full point group: C1

    Geometry (in Angstrom), charge = 0, multiplicity = 1:

       Center              X                  Y                   Z               Mass       
    ------------   -----------------  -----------------  -----------------  -----------------
           H          2.845954343412    -0.323208214961     0.022309744815     1.007825032070
           C          1.900139632284     0.071966859089    -0.330069886762    12.000000000000
           C          0.778463104062    -0.508086864485     0.517967798902    12.000000000000
           H          1.782469169579    -0.206877036529    -1.370777130185     1.007825032070
           H          1.922246860479     1.149867114502    -0.254252283398     1.007825032070
           N         -0.540927826460     0.005139685132     0.058437288187    14.003074004780
           H          0.716717615958    -1.581297865024     0.454712155655     1.007825032070
           H          0.859711164319    -0.198647044202     1.550085929077     1.007825032070
           O         -1.347704025196    -0.791764705158    -0.306705788268    15.994914619560
           O         -0.700401588083     1.187559880269     0.089242838825    15.994914619560

  Nuclear repulsion =  186.182767278921347

  ==> Basis Set <==

  Basis Set: 6-31G*
    Number of shells: 40
    Number of basis function: 85
    Number of Cartesian functions: 85
    Spherical Harmonics?: false
    Max angular momentum: 2

  ==> DFJKGrad: Density-Fitted SCF Gradients <==

    Gradient:                    1
    J tasked:                  Yes
    K tasked:                  Yes
    wK tasked:                  No
    OpenMP threads:              1
    Integrals threads:           1
    Memory (MB):              1430
    Schwarz Cutoff:          0E+00
    Fitting Condition:       1E-12

   => Auxiliary Basis Set <=

  Basis Set: 
    Number of shells: 165
    Number of basis function: 530
    Number of Cartesian functions: 530
    Spherical Harmonics?: false
    Max angular momentum: 3


  -Total Gradient:
     Atom            X                  Y                   Z
    ------   -----------------  -----------------  -----------------
       1        0.000054225454    -0.000032106645     0.000019955846
       2       -0.000075549250     0.000108497721    -0.000003484091
       3        0.000054769537     0.000033505760    -0.000072482711
       4        0.000004704413    -0.000003029439    -0.000000816033
       5       -0.000004467234    -0.000069132280    -0.000008277889
       6       -0.000046876972    -0.000142999725     0.000123821092
       7       -0.000019947178    -0.000017477608    -0.000002293561
       8       -0.000020943965     0.000007433438     0.000017947352
       9        0.000009468788    -0.000047892852    -0.000047426973
      10        0.000044616417     0.000163201630    -0.000026943032


*** tstop() called on cx1-3-16-3.cx1.hpc.ic.ac.uk at Tue Jul  5 16:40:59 2016
Module time:
	user time   =       4.26 seconds =       0.07 minutes
	system time =       0.01 seconds =       0.00 minutes
	total time  =          4 seconds =       0.07 minutes
Total time:
	user time   =      39.85 seconds =       0.66 minutes
	system time =       0.17 seconds =       0.00 minutes
	total time  =         42 seconds =       0.70 minutes
CURRENT ENERGY: -282.7005152586

			-----------------------------------------
			 OPTKING 2.0: for geometry optimizations 
			  - R.A. King,  Bethel University        
			-----------------------------------------

	Previous internal coordinate definitions found.
	---Fragment 1 Geometry and Gradient---
	 H           5.3780742957       -0.6107750102        0.0421593078
	 C           3.5907435193        0.1359976543       -0.6237416907
	 C           1.4710820712       -0.9601450256        0.9788172856
	 H           3.3683785708       -0.3909409422       -2.5903933653
	 H           3.6325201261        2.1729339356       -0.4804671843
	 N          -1.0222054497        0.0097125973        0.1104304706
	 H           1.3544000088       -2.9882198994        0.8592814435
	 H           1.6246186539       -0.3753885106        2.9292378884
	 O          -2.5467915158       -1.4962184544       -0.5795899432
	 O          -1.3235671845        2.2441629401        0.1686445247
	             0.0000542255       -0.0000321066        0.0000199558
	            -0.0000755493        0.0001084977       -0.0000034841
	             0.0000547695        0.0000335058       -0.0000724827
	             0.0000047044       -0.0000030294       -0.0000008160
	            -0.0000044672       -0.0000691323       -0.0000082779
	            -0.0000468770       -0.0001429997        0.0001238211
	            -0.0000199472       -0.0000174776       -0.0000022936
	            -0.0000209440        0.0000074334        0.0000179474
	             0.0000094688       -0.0000478929       -0.0000474270
	             0.0000446164        0.0001632016       -0.0000269430

	---Fragment 1 Intrafragment Coordinates---
	 - Coordinate -           - BOHR/RAD -       - ANG/DEG -
	 R(1,2)           =         2.048327	       1.083928
	 R(2,3)           =         2.874489	       1.521114
	 R(2,4)           =         2.048128	       1.083823
	 R(2,5)           =         2.042396	       1.080790
	 R(3,6)           =         2.812686	       1.488409
	 R(3,7)           =         2.034943	       1.076845
	 R(3,8)           =         2.041973	       1.080566
	 R(6,9)           =         2.251293	       1.191333
	 R(6,10)          =         2.255433	       1.193524
	 B(1,2,3)         =         1.899879	     108.855051
	 B(1,2,4)         =         1.889252	     108.246193
	 B(1,2,5)         =         1.899639	     108.841322
	 B(2,3,6)         =         1.928423	     110.490489
	 B(2,3,7)         =         1.970973	     112.928426
	 B(2,3,8)         =         1.947510	     111.584117
	 B(3,2,4)         =         1.936026	     110.926101
	 B(3,2,5)         =         1.935090	     110.872479
	 B(3,6,9)         =         2.053617	     117.663564
	 B(3,6,10)        =         2.039894	     116.877336
	 B(4,2,5)         =         1.903046	     109.036515
	 B(6,3,7)         =         1.849061	     105.943416
	 B(6,3,8)         =         1.836724	     105.236545
	 B(7,3,8)         =         1.923910	     110.231933
	 B(9,6,10)        =         2.189674	     125.459055
	 D(1,2,3,6)       =        -3.135264	    -179.637370
	 D(1,2,3,7)       =        -1.067831	     -61.182219
	 D(1,2,3,8)       =         1.110866	      63.647913
	 D(2,3,6,9)       =         2.103090	     120.498153
	 D(2,3,6,10)      =        -1.039788	     -59.575468
	 D(4,2,3,6)       =        -1.058330	     -60.637818
	 D(4,2,3,7)       =         1.009103	      57.817333
	 D(4,2,3,8)       =        -3.095386	    -177.352535
	 D(5,2,3,6)       =         1.058776	      60.663407
	 D(5,2,3,7)       =         3.126209	     179.118558
	 D(5,2,3,8)       =        -0.978280	     -56.051310
	 D(7,3,6,9)       =        -0.037299	      -2.137074
	 D(7,3,6,10)      =         3.103009	     177.789305
	 D(8,3,6,9)       =        -2.075500	    -118.917408
	 D(8,3,6,10)      =         1.064807	      61.008971

	Current energy   :      -282.7005152586

	Energy change for the previous step:
		Projected    :        -0.0000383045
		Actual       :        -0.0000279658

	Performing BFGS update.
	Previous computed or guess Hessian on step 1.
	Steps to be used in Hessian update: 3 2
	Taking RFO optimization step.
	Going to follow RFO solution 1.
	Using RFO vector 1.
	Norm of target step-size    0.00183
	Projected energy change by RFO approximation:        -0.0000002250

	Back-transformation to cartesian coordinates...
	Successfully converged to displaced geometry.

	--- Internal Coordinate Step in ANG or DEG, aJ/ANG or AJ/DEG ---
	 ---------------------------------------------------------------------------
	   Coordinate                Previous        Force       Change         New 
	   ----------                --------       ------       ------       ------
	    1 R(1,2)          =      1.083928    -0.000540    -0.000107     1.083821
	    2 R(2,3)          =      1.521114     0.000149     0.000036     1.521151
	    3 R(2,4)          =      1.083823    -0.000009    -0.000002     1.083821
	    4 R(2,5)          =      1.080790     0.000574     0.000117     1.080907
	    5 R(3,6)          =      1.488409     0.000257     0.000056     1.488465
	    6 R(3,7)          =      1.076845    -0.000154    -0.000029     1.076817
	    7 R(3,8)          =      1.080566    -0.000146    -0.000033     1.080533
	    8 R(6,9)          =      1.191333    -0.000331    -0.000035     1.191298
	    9 R(6,10)         =      1.193524    -0.001277    -0.000074     1.193449
	   10 B(1,2,3)        =    108.855051     0.000001     0.004824   108.859875
	   11 B(1,2,4)        =    108.246193     0.000000     0.003506   108.249699
	   12 B(1,2,5)        =    108.841322    -0.000000    -0.004505   108.836817
	   13 B(2,3,6)        =    110.490489    -0.000000     0.003007   110.493496
	   14 B(2,3,7)        =    112.928426    -0.000001    -0.009230   112.919196
	   15 B(2,3,8)        =    111.584117    -0.000001    -0.006152   111.577965
	   16 B(3,2,4)        =    110.926101    -0.000000    -0.000189   110.925912
	   17 B(3,2,5)        =    110.872479    -0.000000    -0.002527   110.869952
	   18 B(3,6,9)        =    117.663564     0.000001     0.003279   117.666843
	   19 B(3,6,10)       =    116.877336     0.000004     0.010916   116.888252
	   20 B(4,2,5)        =    109.036515     0.000000    -0.001052   109.035463
	   21 B(6,3,7)        =    105.943416     0.000001     0.008178   105.951594
	   22 B(6,3,8)        =    105.236545     0.000001     0.007155   105.243700
	   23 B(7,3,8)        =    110.231933     0.000000    -0.000996   110.230937
	   24 B(9,6,10)       =    125.459055    -0.000005    -0.014254   125.444800
	   25 D(1,2,3,6)      =   -179.637370    -0.000000     0.001985  -179.635385
	   26 D(1,2,3,7)      =    -61.182219     0.000000     0.008368   -61.173851
	   27 D(1,2,3,8)      =     63.647913    -0.000000    -0.004986    63.642927
	   28 D(2,3,6,9)      =    120.498153     0.000000    -0.016502   120.481651
	   29 D(2,3,6,10)     =    -59.575468    -0.000001    -0.054191   -59.629660
	   30 D(4,2,3,6)      =    -60.637818     0.000000     0.009200   -60.628617
	   31 D(4,2,3,7)      =     57.817333     0.000000     0.015583    57.832916
	   32 D(4,2,3,8)      =   -177.352535    -0.000000     0.002229  -177.350306
	   33 D(5,2,3,6)      =     60.663407     0.000000     0.006022    60.669429
	   34 D(5,2,3,7)      =    179.118558     0.000000     0.012405   179.130962
	   35 D(5,2,3,8)      =    -56.051310    -0.000000    -0.000950   -56.052260
	   36 D(7,3,6,9)      =     -2.137074     0.000001    -0.012159    -2.149233
	   37 D(7,3,6,10)     =    177.789305    -0.000000    -0.049849   177.739456
	   38 D(8,3,6,9)      =   -118.917408     0.000000    -0.017980  -118.935388
	   39 D(8,3,6,10)     =     61.008971    -0.000001    -0.055670    60.953301
	 ---------------------------------------------------------------------------

  ==> Convergence Check <==

  Measures of convergence in internal coordinates in au.
  Criteria marked as inactive (o), active & met (*), and active & unmet ( ).
  ---------------------------------------------------------------------------------------------
   Step     Total Energy     Delta E     MAX Force     RMS Force      MAX Disp      RMS Disp   
  ---------------------------------------------------------------------------------------------
    Convergence Criteria    1.00e-06 *    3.00e-04 *             o    1.20e-03 *             o
  ---------------------------------------------------------------------------------------------
      4    -282.70051526   -2.80e-05      1.55e-04 *    3.62e-05 o    9.72e-04 *    2.93e-04 o  ~
  ---------------------------------------------------------------------------------------------


  **** Optimization is complete! (in 4 steps) ****

  ==> Optimization Summary <==

  Measures of convergence in internal coordinates in au.
  --------------------------------------------------------------------------------------------------------------- ~
   Step         Total Energy             Delta E       MAX Force       RMS Force        MAX Disp        RMS Disp  ~
  --------------------------------------------------------------------------------------------------------------- ~
      1    -282.700510251992   -282.700510251992      0.00213762      0.00038942      0.01558911      0.00554727  ~
      2    -282.700464575434      0.000045676558      0.00133541      0.00051095      0.02252830      0.00698178  ~
      3    -282.700487292787     -0.000022717352      0.00366818      0.00081007      0.00849270      0.00317892  ~
      4    -282.700515258576     -0.000027965790      0.00015503      0.00003621      0.00097163      0.00029289  ~
  --------------------------------------------------------------------------------------------------------------- ~

	Writing optimization data to binary file.
	Final energy is   -282.7005152585761
	Final (previous) structure:
	Cartesian Geometry (in Angstrom)
	    H     2.8459545607  -0.3232082396   0.0223097465
	    C     1.9001397774   0.0719668646  -0.3300699120
	    C     0.7784631635  -0.5080869033   0.5179678385
	    H     1.7824693057  -0.2068770523  -1.3707772349
	    H     1.9222470073   1.1498672023  -0.2542523028
	    N    -0.5409278678   0.0051396855   0.0584372926
	    H     0.7167176707  -1.5812979858   0.4547121904
	    H     0.8597112300  -0.1986470594   1.5500860474
	    O    -1.3477041281  -0.7917647656  -0.3067058117
	    O    -0.7004016416   1.1875599710   0.0892428456
	Saving final (previous) structure.
			--------------------------
			 OPTKING Finished Execution 
			--------------------------

    Final optimized geometry and variables:
    Molecular point group: c1
    Full point group: C1

    Geometry (in Angstrom), charge = 0, multiplicity = 1:

    H            2.845954343412    -0.323208214961     0.022309744815
    C            1.900139632284     0.071966859089    -0.330069886762
    C            0.778463104062    -0.508086864485     0.517967798902
    H            1.782469169579    -0.206877036529    -1.370777130185
    H            1.922246860479     1.149867114502    -0.254252283398
    N           -0.540927826460     0.005139685132     0.058437288187
    H            0.716717615958    -1.581297865024     0.454712155655
    H            0.859711164319    -0.198647044202     1.550085929077
    O           -1.347704025196    -0.791764705158    -0.306705788268
    O           -0.700401588083     1.187559880269     0.089242838825

	Cleaning optimization helper files.


Properties will be evaluated at   0.000000,   0.000000,   0.000000 Bohr

Properties computed using the  density matrix

  Nuclear Dipole Moment: (a.u.)
     X:     7.6106      Y:    -1.0857      Z:     0.3757

  Electronic Dipole Moment: (a.u.)
     X:    -6.1044      Y:     0.5833      Z:     0.0494

  Dipole Moment: (a.u.)
     X:     1.5063      Y:    -0.5024      Z:     0.4252     Total:     1.6438

  Dipole Moment: (Debye)
     X:     3.8286      Y:    -1.2770      Z:     1.0807     Total:     4.1781

  Quadrupole Moment: (Debye Ang)
    XX:   -30.8553     YY:   -32.4332     ZZ:   -27.8542
    XY:    -0.8054     XZ:    -0.5666     YZ:    -0.9846

  Traceless Quadrupole Moment: (Debye Ang)
    XX:    -0.4744     YY:    -2.0523     ZZ:     2.5267
    XY:    -0.8054     XZ:    -0.5666     YZ:    -0.9846

  Mulliken Charges: (a.u.)
   Center  Symbol    Alpha    Beta     Spin     Total
       1     H     0.40592  0.40592  0.00000  0.18816
       2     C     3.25695  3.25695  0.00000 -0.51391
       3     C     3.09269  3.09269  0.00000 -0.18538
       4     H     0.40276  0.40276  0.00000  0.19449
       5     H     0.39275  0.39275  0.00000  0.21450
       6     N     3.21878  3.21878  0.00000  0.56244
       7     H     0.38532  0.38532  0.00000  0.22935
       8     H     0.38709  0.38709  0.00000  0.22583
       9     O     4.22727  4.22727  0.00000 -0.45453
      10     O     4.23047  4.23047  0.00000 -0.46094

   Total alpha = 20.00000, Total beta = 20.00000, Total charge =  0.00000


*** PSI4 exiting successfully. Buy a developer a beer!
