    -----------------------------------------------------------------------
          Psi4: An Open-Source Ab Initio Electronic Structure Package
                              Psi4 (no tag) Driver

                          Git: Rev {detached?}  

    J. M. Turney, A. C. Simmonett, R. M. Parrish, E. G. Hohenstein,
    F. A. Evangelista, J. T. Fermann, B. J. Mintz, L. A. Burns, J. J. Wilke,
    M. L. Abrams, N. J. Russ, M. L. Leininger, C. L. Janssen, E. T. Seidl,
    W. D. Allen, H. F. Schaefer, R. A. King, E. F. Valeev, C. D. Sherrill,
    and T. D. Crawford, WIREs Comput. Mol. Sci. 2, 556-565 (2012)
    (doi: 10.1002/wcms.93)

                         Additional Contributions by
    A. E. DePrince, M. Saitow, U. Bozkaya, A. Yu. Sokolov
    -----------------------------------------------------------------------


    Psi4 started on: Tue Jul  5 16:35:12 2016

    Process ID:  22644
    PSI4DATADIR: /export131/home/mjharvey/miniconda3/share
    Memory level set to 256.000 MB

  ==> Input File <==

--------------------------------------------------------------------------
set {
	reference rhf
	basis 6-31G*
}


set_num_threads( 1 )
memory 2 gb

molecule MOL {
0 1

H	 -2.698709	 -0.000305	 0.034435
C	 -1.693833	 0.000034	 0.434417
O	 -0.828952	 -0.000968	 -0.659236
H	 -1.574200	 0.882896	 1.055746
H	 -1.574147	 -0.881698	 1.057355
C	 0.559449	 -0.000018	 -0.420814
C	 0.943270	 -0.826037	 0.805274
C	 1.366245	 -0.388404	 -1.658229
H	 0.770680	 1.039502	 -0.199881
H	 0.317129	 -0.559026	 1.649786
H	 1.977258	 -0.633414	 1.073602
H	 0.845408	 -1.892636	 0.629338
H	 1.032395	 0.180949	 -2.518949
H	 2.418530	 -0.176003	 -1.496838
H	 1.278937	 -1.444853	 -1.890892

	symmetry c1
}
set optking {
	frozen_dihedral = ("
		6 3 2 1
	")
}

ee = energy('scf')
oeprop('DIPOLE', 'QUADRUPOLE', 'MULLIKEN_CHARGES')
f=open( 'psi4out.xyz', 'w' )
f.write( "15  " )
f.write( str(ee) + "\n" )
f.write( MOL.save_string_xyz() )
f.close()
--------------------------------------------------------------------------

  Memory set to   2.000 GiB by Python script.

*** tstart() called on cx1-3-4-2.cx1.hpc.ic.ac.uk
*** at Tue Jul  5 16:35:13 2016


         ---------------------------------------------------------
                                   SCF
            by Justin Turney, Rob Parrish, and Andy Simmonett
                              RHF Reference
                        1 Threads,   2000 MiB Core
         ---------------------------------------------------------

  ==> Geometry <==

    Molecular point group: c1
    Full point group: C1

    Geometry (in Angstrom), charge = 0, multiplicity = 1:

       Center              X                  Y                   Z               Mass       
    ------------   -----------------  -----------------  -----------------  -----------------
           H         -2.748088475720     0.244053913310     0.321012330030     1.007825032070
           C         -1.743212475720     0.244392913310     0.720994330030    12.000000000000
           O         -0.878331475720     0.243390913310    -0.372658669970    15.994914619560
           H         -1.623579475720     1.127254913310     1.342323330030     1.007825032070
           H         -1.623526475720    -0.637339086690     1.343932330030     1.007825032070
           C          0.510069524280     0.244340913310    -0.134236669970    12.000000000000
           C          0.893890524280    -0.581678086690     1.091851330030    12.000000000000
           C          1.316865524280    -0.144045086690    -1.371651669970    12.000000000000
           H          0.721300524280     1.283860913310     0.086696330030     1.007825032070
           H          0.267749524280    -0.314667086690     1.936363330030     1.007825032070
           H          1.927878524280    -0.389055086690     1.360179330030     1.007825032070
           H          0.796028524280    -1.648277086690     0.915915330030     1.007825032070
           H          0.983015524280     0.425307913310    -2.232371669970     1.007825032070
           H          2.369150524280     0.068355913310    -1.210260669970     1.007825032070
           H          1.229557524280    -1.200494086690    -1.604314669970     1.007825032070

  Running in c1 symmetry.

  Rotational constants: A =      0.26703  B =      0.12655  C =      0.09383 [cm^-1]
  Rotational constants: A =   8005.37893  B =   3793.95989  C =   2812.81449 [MHz]
  Nuclear repulsion =  197.475844761105492

  Charge       = 0
  Multiplicity = 1
  Electrons    = 42
  Nalpha       = 21
  Nbeta        = 21

  ==> Algorithm <==

  SCF Algorithm Type is DF.
  DIIS enabled.
  MOM disabled.
  Fractional occupation disabled.
  Guess Type is CORE.
  Energy threshold   = 1.00e-06
  Density threshold  = 1.00e-06
  Integral threshold = 0.00e+00

  ==> Primary Basis <==

  Basis Set: 6-31G*
    Number of shells: 50
    Number of basis function: 95
    Number of Cartesian functions: 95
    Spherical Harmonics?: false
    Max angular momentum: 2

  ==> Pre-Iterations <==

   -------------------------------------------------------
    Irrep   Nso     Nmo     Nalpha   Nbeta   Ndocc  Nsocc
   -------------------------------------------------------
     A         95      95       0       0       0       0
   -------------------------------------------------------
    Total      95      95      21      21      21       0
   -------------------------------------------------------

 OEINTS: Overlap, kinetic, potential, dipole, and quadrupole integrals
         stored in file 35.

  ==> Integral Setup <==

  ==> DFJK: Density-Fitted J/K Matrices <==

    J tasked:                  Yes
    K tasked:                  Yes
    wK tasked:                  No
    OpenMP threads:              1
    Integrals threads:           1
    Memory (MB):              1430
    Algorithm:                Core
    Integral Cache:           NONE
    Schwarz Cutoff:          1E-12
    Fitting Condition:       1E-12

   => Auxiliary Basis Set <=

  Basis Set: 
    Number of shells: 210
    Number of basis function: 655
    Number of Cartesian functions: 655
    Spherical Harmonics?: false
    Max angular momentum: 3

  Minimum eigenvalue in the overlap matrix is 3.9984061366E-03.
  Using Symmetric Orthogonalization.
  SCF Guess: Core (One-Electron) Hamiltonian.

  ==> Iterations <==

                           Total Energy        Delta E     RMS |[F,P]|

   @DF-RHF iter   1:  -178.72525169546967   -1.78725e+02   8.14189e-02 
   @DF-RHF iter   2:  -173.98842841300555    4.73682e+00   6.25877e-02 DIIS
   @DF-RHF iter   3:  -204.31939330978977   -3.03310e+01   5.04699e-02 DIIS
   @DF-RHF iter   4:  -220.14830093678543   -1.58289e+01   4.27983e-02 DIIS
   @DF-RHF iter   5:  -232.00670257814213   -1.18584e+01   4.96187e-03 DIIS
   @DF-RHF iter   6:  -232.11078112170512   -1.04079e-01   1.93790e-03 DIIS
   @DF-RHF iter   7:  -232.12940355735086   -1.86224e-02   7.55761e-04 DIIS
   @DF-RHF iter   8:  -232.13197864887880   -2.57509e-03   2.26563e-04 DIIS
   @DF-RHF iter   9:  -232.13229690791113   -3.18259e-04   7.90411e-05 DIIS
   @DF-RHF iter  10:  -232.13233302827697   -3.61204e-05   2.39428e-05 DIIS
   @DF-RHF iter  11:  -232.13233805861810   -5.03034e-06   5.64937e-06 DIIS
   @DF-RHF iter  12:  -232.13233831024453   -2.51626e-07   1.33700e-06 DIIS
   @DF-RHF iter  13:  -232.13233832737612   -1.71316e-08   2.30298e-07 DIIS

  ==> Post-Iterations <==

    Orbital Energies (a.u.)
    -----------------------

    Doubly Occupied:                                                      

       1A    -20.546666     2A    -11.274531     3A    -11.262671  
       4A    -11.211837     5A    -11.210713     6A     -1.369885  
       7A     -1.051079     8A     -0.949093     9A     -0.918177  
      10A     -0.786655    11A     -0.673069    12A     -0.644080  
      13A     -0.630259    14A     -0.594546    15A     -0.545973  
      16A     -0.541699    17A     -0.529857    18A     -0.505744  
      19A     -0.500544    20A     -0.443824    21A     -0.401887  

    Virtual:                                                              

      22A      0.230685    23A      0.267430    24A      0.284957  
      25A      0.298145    26A      0.315050    27A      0.320899  
      28A      0.326673    29A      0.340696    30A      0.352252  
      31A      0.358148    32A      0.361454    33A      0.413625  
      34A      0.444493    35A      0.467037    36A      0.704251  
      37A      0.723500    38A      0.759255    39A      0.769772  
      40A      0.803965    41A      0.820258    42A      0.833950  
      43A      0.909464    44A      0.943595    45A      0.970493  
      46A      0.994515    47A      1.063650    48A      1.119729  
      49A      1.144231    50A      1.153442    51A      1.170975  
      52A      1.180063    53A      1.184621    54A      1.202832  
      55A      1.209483    56A      1.234879    57A      1.244881  
      58A      1.282689    59A      1.323812    60A      1.411234  
      61A      1.469228    62A      1.591454    63A      1.634702  
      64A      1.666796    65A      1.697961    66A      1.764716  
      67A      1.878134    68A      1.967591    69A      2.046219  
      70A      2.080876    71A      2.138616    72A      2.219986  
      73A      2.308190    74A      2.332836    75A      2.397415  
      76A      2.451998    77A      2.460665    78A      2.521665  
      79A      2.560427    80A      2.574463    81A      2.603343  
      82A      2.615075    83A      2.702490    84A      2.743035  
      85A      2.826435    86A      2.903479    87A      2.963652  
      88A      3.059562    89A      3.258537    90A      3.325526  
      91A      4.393503    92A      4.613119    93A      4.678974  
      94A      4.719968    95A      4.964418  

    Final Occupation by Irrep:
              A 
    DOCC [    21 ]

  Energy converged.

  @DF-RHF Final Energy:  -232.13233832737612

   => Energetics <=

    Nuclear Repulsion Energy =            197.4758447611054919
    One-Electron Energy =                -706.0308269203268310
    Two-Electron Energy =                 276.4226438318454484
    DFT Exchange-Correlation Energy =       0.0000000000000000
    Empirical Dispersion Energy =           0.0000000000000000
    PCM Polarization Energy =               0.0000000000000000
    EFP Energy =                            0.0000000000000000
    Total Energy =                       -232.1323383273759191

    Alert: EFP and PCM quantities not currently incorporated into SCF psivars.

Properties will be evaluated at   0.000000,   0.000000,   0.000000 Bohr
  ==> Properties <==


Properties computed using the SCF density matrix

  Nuclear Dipole Moment: (a.u.)
     X:     2.1515      Y:    -0.9747      Z:     2.1164

  Electronic Dipole Moment: (a.u.)
     X:    -1.9314      Y:     0.9358      Z:    -1.6130

  Dipole Moment: (a.u.)
     X:     0.2201      Y:    -0.0390      Z:     0.5034     Total:     0.5508

  Dipole Moment: (Debye)
     X:     0.5595      Y:    -0.0990      Z:     1.2794     Total:     1.3999


  Saving occupied orbitals to File 180.

*** tstop() called on cx1-3-4-2.cx1.hpc.ic.ac.uk at Tue Jul  5 16:35:19 2016
Module time:
	user time   =       6.14 seconds =       0.10 minutes
	system time =       0.05 seconds =       0.00 minutes
	total time  =          6 seconds =       0.10 minutes
Total time:
	user time   =       6.14 seconds =       0.10 minutes
	system time =       0.05 seconds =       0.00 minutes
	total time  =          6 seconds =       0.10 minutes


Properties will be evaluated at   0.000000,   0.000000,   0.000000 Bohr

Properties computed using the  density matrix

  Nuclear Dipole Moment: (a.u.)
     X:     2.1515      Y:    -0.9747      Z:     2.1164

  Electronic Dipole Moment: (a.u.)
     X:    -1.9314      Y:     0.9358      Z:    -1.6130

  Dipole Moment: (a.u.)
     X:     0.2201      Y:    -0.0390      Z:     0.5034     Total:     0.5508

  Dipole Moment: (Debye)
     X:     0.5595      Y:    -0.0990      Z:     1.2794     Total:     1.3999

  Quadrupole Moment: (Debye Ang)
    XX:   -31.4491     YY:   -33.3727     ZZ:   -33.4448
    XY:     0.1548     XZ:    -2.3035     YZ:     0.3424

  Traceless Quadrupole Moment: (Debye Ang)
    XX:     1.3064     YY:    -0.6172     ZZ:    -0.6893
    XY:     0.1548     XZ:    -2.3035     YZ:     0.3424

  Mulliken Charges: (a.u.)
   Center  Symbol    Alpha    Beta     Spin     Total
       1     H     0.41150  0.41150  0.00000  0.17700
       2     C     3.08250  3.08250  0.00000 -0.16499
       3     O     4.31716  4.31716  0.00000 -0.63432
       4     H     0.43142  0.43142  0.00000  0.13716
       5     H     0.42600  0.42600  0.00000  0.14800
       6     C     2.89612  2.89612  0.00000  0.20776
       7     C     3.26202  3.26202  0.00000 -0.52403
       8     C     3.24506  3.24506  0.00000 -0.49011
       9     H     0.43092  0.43092  0.00000  0.13816
      10     H     0.41504  0.41504  0.00000  0.16993
      11     H     0.41715  0.41715  0.00000  0.16570
      12     H     0.41668  0.41668  0.00000  0.16663
      13     H     0.41023  0.41023  0.00000  0.17954
      14     H     0.42061  0.42061  0.00000  0.15879
      15     H     0.41760  0.41760  0.00000  0.16479

   Total alpha = 21.00000, Total beta = 21.00000, Total charge = -0.00000


*** PSI4 exiting successfully. Buy a developer a beer!
