    -----------------------------------------------------------------------
          Psi4: An Open-Source Ab Initio Electronic Structure Package
                              Psi4 (no tag) Driver

                          Git: Rev {detached?}  

    J. M. Turney, A. C. Simmonett, R. M. Parrish, E. G. Hohenstein,
    F. A. Evangelista, J. T. Fermann, B. J. Mintz, L. A. Burns, J. J. Wilke,
    M. L. Abrams, N. J. Russ, M. L. Leininger, C. L. Janssen, E. T. Seidl,
    W. D. Allen, H. F. Schaefer, R. A. King, E. F. Valeev, C. D. Sherrill,
    and T. D. Crawford, WIREs Comput. Mol. Sci. 2, 556-565 (2012)
    (doi: 10.1002/wcms.93)

                         Additional Contributions by
    A. E. DePrince, M. Saitow, U. Bozkaya, A. Yu. Sokolov
    -----------------------------------------------------------------------


    Psi4 started on: Tue Jul  5 16:21:27 2016

    Process ID:  25429
    PSI4DATADIR: /export131/home/mjharvey/miniconda3/share
    Memory level set to 256.000 MB

  ==> Input File <==

--------------------------------------------------------------------------
set {
	reference rhf
	basis 6-31G*
}


set_num_threads( 1 )
memory 2 gb

molecule MOL {
0 1

H	 -2.139760	 1.163099	 -0.804808
C	 -1.394089	 1.287815	 -0.026500
N	 -0.528168	 0.128977	 -0.000000
H	 -1.915885	 1.374569	 0.919671
H	 -0.869285	 2.227906	 -0.216433
C	 0.248044	 -0.037491	 -1.209632
H	 0.083664	 0.181945	 0.789863
H	 0.998722	 0.743888	 -1.266824
H	 -0.398417	 0.061950	 -2.074060
H	 0.763621	 -0.999315	 -1.275517

	symmetry c1
}
ee = energy('scf')
oeprop('DIPOLE', 'QUADRUPOLE', 'MULLIKEN_CHARGES')
f=open( 'psi4out.xyz', 'w' )
f.write( "10  " )
f.write( str(ee) + "\n" )
f.write( MOL.save_string_xyz() )
f.close()
--------------------------------------------------------------------------

  Memory set to   2.000 GiB by Python script.

*** tstart() called on cx1-3-1-3.cx1.hpc.ic.ac.uk
*** at Tue Jul  5 16:21:28 2016


         ---------------------------------------------------------
                                   SCF
            by Justin Turney, Rob Parrish, and Andy Simmonett
                              RHF Reference
                        1 Threads,   2000 MiB Core
         ---------------------------------------------------------

  ==> Geometry <==

    Molecular point group: c1
    Full point group: C1

    Geometry (in Angstrom), charge = 0, multiplicity = 1:

       Center              X                  Y                   Z               Mass       
    ------------   -----------------  -----------------  -----------------  -----------------
           H         -1.592617464134     0.683688522658    -0.387734617836     1.007825032070
           C         -0.846946464134     0.808404522658     0.390573382164    12.000000000000
           N          0.018974535866    -0.350433477342     0.417073382164    14.003074004780
           H         -1.368742464134     0.895158522658     1.336744382164     1.007825032070
           H         -0.322142464134     1.748495522658     0.200640382164     1.007825032070
           C          0.795186535866    -0.516901477342    -0.792558617836    12.000000000000
           H          0.630806535866    -0.297465477342     1.206936382164     1.007825032070
           H          1.545864535866     0.264477522658    -0.849750617836     1.007825032070
           H          0.148725535866    -0.417460477342    -1.656986617836     1.007825032070
           H          1.310763535866    -1.478725477342    -0.858443617836     1.007825032070

  Running in c1 symmetry.

  Rotational constants: A =      1.18818  B =      0.31281  C =      0.27687 [cm^-1]
  Rotational constants: A =  35620.72127  B =   9377.90155  C =   8300.25366 [MHz]
  Nuclear repulsion =   84.697852546283357

  Charge       = 0
  Multiplicity = 1
  Electrons    = 26
  Nalpha       = 13
  Nbeta        = 13

  ==> Algorithm <==

  SCF Algorithm Type is DF.
  DIIS enabled.
  MOM disabled.
  Fractional occupation disabled.
  Guess Type is CORE.
  Energy threshold   = 1.00e-06
  Density threshold  = 1.00e-06
  Integral threshold = 0.00e+00

  ==> Primary Basis <==

  Basis Set: 6-31G*
    Number of shells: 32
    Number of basis function: 59
    Number of Cartesian functions: 59
    Spherical Harmonics?: false
    Max angular momentum: 2

  ==> Pre-Iterations <==

   -------------------------------------------------------
    Irrep   Nso     Nmo     Nalpha   Nbeta   Ndocc  Nsocc
   -------------------------------------------------------
     A         59      59       0       0       0       0
   -------------------------------------------------------
    Total      59      59      13      13      13       0
   -------------------------------------------------------

 OEINTS: Overlap, kinetic, potential, dipole, and quadrupole integrals
         stored in file 35.

  ==> Integral Setup <==

  ==> DFJK: Density-Fitted J/K Matrices <==

    J tasked:                  Yes
    K tasked:                  Yes
    wK tasked:                  No
    OpenMP threads:              1
    Integrals threads:           1
    Memory (MB):              1430
    Algorithm:                Core
    Integral Cache:           NONE
    Schwarz Cutoff:          1E-12
    Fitting Condition:       1E-12

   => Auxiliary Basis Set <=

  Basis Set: 
    Number of shells: 135
    Number of basis function: 418
    Number of Cartesian functions: 418
    Spherical Harmonics?: false
    Max angular momentum: 3

  Minimum eigenvalue in the overlap matrix is 7.4111826710E-03.
  Using Symmetric Orthogonalization.
  SCF Guess: Core (One-Electron) Hamiltonian.

  ==> Iterations <==

                           Total Energy        Delta E     RMS |[F,P]|

   @DF-RHF iter   1:  -109.54088338273765   -1.09541e+02   9.12183e-02 
   @DF-RHF iter   2:  -114.74918403396900   -5.20830e+00   5.93234e-02 DIIS
   @DF-RHF iter   3:  -131.74282159549796   -1.69936e+01   3.93630e-02 DIIS
   @DF-RHF iter   4:  -133.68530770613336   -1.94249e+00   1.77262e-02 DIIS
   @DF-RHF iter   5:  -134.16820561139792   -4.82898e-01   6.43409e-03 DIIS
   @DF-RHF iter   6:  -134.23544251717476   -6.72369e-02   7.90173e-04 DIIS
   @DF-RHF iter   7:  -134.23662942079380   -1.18690e-03   1.50585e-04 DIIS
   @DF-RHF iter   8:  -134.23670203622720   -7.26154e-05   3.73286e-05 DIIS
   @DF-RHF iter   9:  -134.23670646802935   -4.43180e-06   7.43099e-06 DIIS
   @DF-RHF iter  10:  -134.23670672426670   -2.56237e-07   1.43216e-06 DIIS
   @DF-RHF iter  11:  -134.23670673248648   -8.21979e-09   2.69140e-07 DIIS

  ==> Post-Iterations <==

    Orbital Energies (a.u.)
    -----------------------

    Doubly Occupied:                                                      

       1A    -15.536536     2A    -11.236639     3A    -11.236526  
       4A     -1.199399     5A     -0.947209     6A     -0.854852  
       7A     -0.662490     8A     -0.612280     9A     -0.587949  
      10A     -0.540497    11A     -0.512088    12A     -0.510501  
      13A     -0.358101  

    Virtual:                                                              

      14A      0.229703    15A      0.284549    16A      0.301584  
      17A      0.304185    18A      0.321260    19A      0.349636  
      20A      0.354209    21A      0.386492    22A      0.451271  
      23A      0.730974    24A      0.758309    25A      0.783139  
      26A      0.790672    27A      0.834977    28A      0.982694  
      29A      0.990130    30A      1.090598    31A      1.111207  
      32A      1.142844    33A      1.174062    34A      1.203955  
      35A      1.216417    36A      1.229470    37A      1.255078  
      38A      1.255595    39A      1.275713    40A      1.609946  
      41A      1.646651    42A      1.742774    43A      1.803378  
      44A      2.108473    45A      2.198141    46A      2.361149  
      47A      2.383991    48A      2.399313    49A      2.440256  
      50A      2.573892    51A      2.584179    52A      2.685816  
      53A      2.794608    54A      2.864477    55A      3.017335  
      56A      3.117596    57A      4.316296    58A      4.662824  
      59A      4.726114  

    Final Occupation by Irrep:
              A 
    DOCC [    13 ]

  Energy converged.

  @DF-RHF Final Energy:  -134.23670673248648

   => Energetics <=

    Nuclear Repulsion Energy =             84.6978525462833574
    One-Electron Energy =                -348.2789747628352188
    Two-Electron Energy =                 129.3444154840651663
    DFT Exchange-Correlation Energy =       0.0000000000000000
    Empirical Dispersion Energy =           0.0000000000000000
    PCM Polarization Energy =               0.0000000000000000
    EFP Energy =                            0.0000000000000000
    Total Energy =                       -134.2367067324867094

    Alert: EFP and PCM quantities not currently incorporated into SCF psivars.

Properties will be evaluated at   0.000000,   0.000000,   0.000000 Bohr
  ==> Properties <==


Properties computed using the SCF density matrix

  Nuclear Dipole Moment: (a.u.)
     X:     0.3306      Y:     1.3118      Z:    -0.9467

  Electronic Dipole Moment: (a.u.)
     X:    -0.0429      Y:    -0.9566      Z:     0.9461

  Dipole Moment: (a.u.)
     X:     0.2876      Y:     0.3552      Z:    -0.0006     Total:     0.4570

  Dipole Moment: (Debye)
     X:     0.7310      Y:     0.9028      Z:    -0.0016     Total:     1.1617


  Saving occupied orbitals to File 180.

*** tstop() called on cx1-3-1-3.cx1.hpc.ic.ac.uk at Tue Jul  5 16:21:30 2016
Module time:
	user time   =       1.67 seconds =       0.03 minutes
	system time =       0.02 seconds =       0.00 minutes
	total time  =          2 seconds =       0.03 minutes
Total time:
	user time   =       1.67 seconds =       0.03 minutes
	system time =       0.02 seconds =       0.00 minutes
	total time  =          2 seconds =       0.03 minutes


Properties will be evaluated at   0.000000,   0.000000,   0.000000 Bohr

Properties computed using the  density matrix

  Nuclear Dipole Moment: (a.u.)
     X:     0.3306      Y:     1.3118      Z:    -0.9467

  Electronic Dipole Moment: (a.u.)
     X:    -0.0429      Y:    -0.9566      Z:     0.9461

  Dipole Moment: (a.u.)
     X:     0.2876      Y:     0.3552      Z:    -0.0006     Total:     0.4570

  Dipole Moment: (Debye)
     X:     0.7310      Y:     0.9028      Z:    -0.0016     Total:     1.1617

  Quadrupole Moment: (Debye Ang)
    XX:   -20.1410     YY:   -22.1110     ZZ:   -19.3872
    XY:    -1.3845     XZ:     0.8469     YZ:     0.9794

  Traceless Quadrupole Moment: (Debye Ang)
    XX:     0.4054     YY:    -1.5646     ZZ:     1.1592
    XY:    -1.3845     XZ:     0.8469     YZ:     0.9794

  Mulliken Charges: (a.u.)
   Center  Symbol    Alpha    Beta     Spin     Total
       1     H     0.41776  0.41776  0.00000  0.16449
       2     C     3.14541  3.14541  0.00000 -0.29082
       3     N     3.83851  3.83851  0.00000 -0.67703
       4     H     0.41632  0.41632  0.00000  0.16736
       5     H     0.43545  0.43545  0.00000  0.12909
       6     C     3.14527  3.14527  0.00000 -0.29054
       7     H     0.33277  0.33277  0.00000  0.33445
       8     H     0.43388  0.43388  0.00000  0.13225
       9     H     0.41868  0.41868  0.00000  0.16265
      10     H     0.41595  0.41595  0.00000  0.16810

   Total alpha = 13.00000, Total beta = 13.00000, Total charge =  0.00000


*** PSI4 exiting successfully. Buy a developer a beer!
