
    -----------------------------------------------------------------------
          Psi4: An Open-Source Ab Initio Electronic Structure Package
                               Psi4 1.1 release

                         Git: Rev {HEAD} add49b9 


    R. M. Parrish, L. A. Burns, D. G. A. Smith, A. C. Simmonett,
    A. E. DePrince III, E. G. Hohenstein, U. Bozkaya, A. Yu. Sokolov,
    R. Di Remigio, R. M. Richard, J. F. Gonthier, A. M. James,
    H. R. McAlexander, A. Kumar, M. Saitow, X. Wang, B. P. Pritchard,
    P. Verma, H. F. Schaefer III, K. Patkowski, R. A. King, E. F. Valeev,
    F. A. Evangelista, J. M. Turney, T. D. Crawford, and C. D. Sherrill,
    J. Chem. Theory Comput. in press (2017).
    (doi: 10.1021/acs.jctc.7b00174)

    -----------------------------------------------------------------------


    Psi4 started on: Tuesday, 12 December 2017 10:55AM

    Process ID:  22894
    PSIDATADIR: /shared/raimis/opt/miniconda/envs/htmd/share/psi4
    Memory:     500.0 MiB
    Threads:    1
    
  ==> Input File <==

--------------------------------------------------------------------------
set_num_threads(1)
set_memory(4203741184)

set { reference rks }
set { basis cc-pVDZ }

molecule MOL {
    0 1
    noreorient
    nocom
    symmetry c1
    O    1.141000   0.017000   0.083000
    C    2.558000   0.086000  -0.005000
    C    3.192000  -0.789000   1.067000
    O    2.463831  -2.003719   1.199654
    H    0.789000   0.590000  -0.620000
    H    2.874000   1.128000   0.115000
    H    2.871000  -0.243000  -1.001000
    H    3.200127  -0.268550   2.029810
    H    4.230500  -1.021492   0.805576
    H    2.909379  -2.520798   1.893198
}

set optking { frozen_dihedral = (" 1 2 3 4 ") }

energy, wfn = energy('B3LYP-D3', return_wfn=True)

import os
os.chdir(os.environ['HTMD_PSI4_WORKDIR'])

oeprop(wfn, 'DIPOLE', 'QUADRUPOLE', 'MULLIKEN_CHARGES')

with open('psi4out.xyz', 'w') as f:
    f.write('10 ' )
    f.write('%.12f\n' % energy)
    f.write(MOL.save_string_xyz())
--------------------------------------------------------------------------
  Threads set to 1 by Python driver.

  Memory set to   3.915 GiB by Python driver.

*** tstart() called on computer06
*** at Tue Dec 12 10:55:47 2017

   => Loading Basis Set <=

    Name: CC-PVDZ
    Role: ORBITAL
    Keyword: BASIS
    atoms 1, 4 entry O          line   190 file /shared/raimis/opt/miniconda/envs/htmd/share/psi4/basis/cc-pvdz.gbs 
    atoms 2-3  entry C          line   130 file /shared/raimis/opt/miniconda/envs/htmd/share/psi4/basis/cc-pvdz.gbs 
    atoms 5-10 entry H          line    20 file /shared/raimis/opt/miniconda/envs/htmd/share/psi4/basis/cc-pvdz.gbs 


         ---------------------------------------------------------
                                   SCF
            by Justin Turney, Rob Parrish, and Andy Simmonett
                              RKS Reference
                        1 Threads,   4009 MiB Core
         ---------------------------------------------------------

  ==> Geometry <==

    Molecular point group: c1
    Full point group: C1

    Geometry (in Angstrom), charge = 0, multiplicity = 1:

       Center              X                  Y                   Z               Mass       
    ------------   -----------------  -----------------  -----------------  -----------------
           O          1.141000000000     0.017000000000     0.083000000000    15.994914619560
           C          2.558000000000     0.086000000000    -0.005000000000    12.000000000000
           C          3.192000000000    -0.789000000000     1.067000000000    12.000000000000
           O          2.463831000000    -2.003719000000     1.199654000000    15.994914619560
           H          0.789000000000     0.590000000000    -0.620000000000     1.007825032070
           H          2.874000000000     1.128000000000     0.115000000000     1.007825032070
           H          2.871000000000    -0.243000000000    -1.001000000000     1.007825032070
           H          3.200127000000    -0.268550000000     2.029810000000     1.007825032070
           H          4.230500000000    -1.021492000000     0.805576000000     1.007825032070
           H          2.909379000000    -2.520798000000     1.893198000000     1.007825032070

  Running in c1 symmetry.

  Rotational constants: A =      0.30951  B =      0.03735  C =      0.03404 [cm^-1]
  Rotational constants: A =   9278.79276  B =   1119.76027  C =   1020.63270 [MHz]
  Nuclear repulsion =  132.526567394241511

  Charge       = 0
  Multiplicity = 1
  Electrons    = 34
  Nalpha       = 17
  Nbeta        = 17

  ==> Algorithm <==

  SCF Algorithm Type is DF.
  DIIS enabled.
  MOM disabled.
  Fractional occupation disabled.
  Guess Type is SAD.
  Energy threshold   = 1.00e-06
  Density threshold  = 1.00e-06
  Integral threshold = 0.00e+00

  ==> Primary Basis <==

  Basis Set: CC-PVDZ
    Blend: CC-PVDZ
    Number of shells: 42
    Number of basis function: 86
    Number of Cartesian functions: 90
    Spherical Harmonics?: true
    Max angular momentum: 2

  ==> DFT Potential <==

   => B3LYP Composite Functional <= 

    B3LYP Hybrid-GGA Exchange-Correlation Functional (VWN1-RPA)

    P.J. Stephens et. al., J. Phys. Chem., 98, 11623-11627, 1994

    Points   =           5000
    Deriv    =              1
    GGA      =           TRUE
    Meta     =          FALSE

    X_LRC        =          FALSE
    X_Hybrid     =           TRUE
    X_Alpha      =   2.000000E-01
    X_Omega      =   0.000000E+00
    C_LRC        =          FALSE
    C_Hybrid     =          FALSE
    C_Alpha      =   0.000000E+00
    C_Omega      =   0.000000E+00

   => Exchange Functionals <=

    0.8000    B3_X
    0.2000      HF 

   => Correlation Functionals <=

    0.1900 VWN3RPA_C
    0.8100   LYP_C

   => Molecular Quadrature <=

    Radial Scheme    =       TREUTLER
    Pruning Scheme   =           FLAT
    Nuclear Scheme   =       TREUTLER

    BS radius alpha  =              1
    Pruning alpha    =              1
    Radial Points    =             75
    Spherical Points =            302
    Total Points     =         222575
    Total Blocks     =            210
    Max Points       =           4839
    Max Functions    =             86

   => -D3ZERO: Empirical Dispersion <=

    Grimme's -D3 (zero-damping) Dispersion Correction
    Grimme S.; Antony J.; Ehrlich S.; Krieg H. (2010), J. Chem. Phys., 132: 154104

        S6 =   1.000000E+00
        S8 =   1.703000E+00
       SR6 =   1.261000E+00
    ALPHA6 =   1.400000E+01

   => Loading Basis Set <=

    Name: (CC-PVDZ AUX)
    Role: JKFIT
    Keyword: DF_BASIS_SCF
    atoms 1, 4 entry O          line   220 file /shared/raimis/opt/miniconda/envs/htmd/share/psi4/basis/cc-pvdz-jkfit.gbs 
    atoms 2-3  entry C          line   120 file /shared/raimis/opt/miniconda/envs/htmd/share/psi4/basis/cc-pvdz-jkfit.gbs 
    atoms 5-10 entry H          line    50 file /shared/raimis/opt/miniconda/envs/htmd/share/psi4/basis/cc-pvdz-jkfit.gbs 

  ==> Pre-Iterations <==

   -------------------------------------------------------
    Irrep   Nso     Nmo     Nalpha   Nbeta   Ndocc  Nsocc
   -------------------------------------------------------
     A         86      86       0       0       0       0
   -------------------------------------------------------
    Total      86      86      17      17      17       0
   -------------------------------------------------------

  ==> Integral Setup <==

  ==> DFJK: Density-Fitted J/K Matrices <==

    J tasked:                  Yes
    K tasked:                  Yes
    wK tasked:                  No
    OpenMP threads:              1
    Integrals threads:           1
    Memory (MB):              3006
    Algorithm:                Core
    Integral Cache:           NONE
    Schwarz Cutoff:          1E-12
    Fitting Condition:       1E-12

   => Auxiliary Basis Set <=

  Basis Set: (CC-PVDZ AUX)
    Blend: CC-PVDZ-JKFIT
    Number of shells: 150
    Number of basis function: 418
    Number of Cartesian functions: 474
    Spherical Harmonics?: true
    Max angular momentum: 3

  Minimum eigenvalue in the overlap matrix is 5.0768313787E-03.
  Using Symmetric Orthogonalization.

  SCF Guess: Superposition of Atomic Densities via on-the-fly atomic UHF.

  ==> Iterations <==

                           Total Energy        Delta E     RMS |[F,P]|

   @DF-RKS iter   0:  -230.79188459293184   -2.30792e+02   3.92704e-02 
   @DF-RKS iter   1:  -230.11331475689320    6.78570e-01   6.84146e-03 
   @DF-RKS iter   2:  -229.95581814496708    1.57497e-01   1.02518e-02 DIIS
   @DF-RKS iter   3:  -230.25007202301370   -2.94254e-01   6.74643e-04 DIIS
   @DF-RKS iter   4:  -230.25124570277936   -1.17368e-03   3.36136e-04 DIIS
   @DF-RKS iter   5:  -230.25164071737913   -3.95015e-04   6.16595e-05 DIIS
   @DF-RKS iter   6:  -230.25165400478684   -1.32874e-05   6.33273e-06 DIIS
   @DF-RKS iter   7:  -230.25165412876828   -1.23981e-07   2.17580e-06 DIIS
   @DF-RKS iter   8:  -230.25165414276555   -1.39973e-08   9.36013e-07 DIIS

  ==> Post-Iterations <==

    Orbital Energies (a.u.)
    -----------------------

    Doubly Occupied:                                                      

       1A    -19.123614     2A    -19.123571     3A    -10.227002  
       4A    -10.226811     5A     -1.016439     6A     -0.996465  
       7A     -0.733987     8A     -0.600783     9A     -0.523858  
      10A     -0.491313    11A     -0.448369    12A     -0.414234  
      13A     -0.398870    14A     -0.335087    15A     -0.320396  
      16A     -0.261213    17A     -0.253319  

    Virtual:                                                              

      18A      0.042493    19A      0.073311    20A      0.092517  
      21A      0.109329    22A      0.135300    23A      0.161778  
      24A      0.179944    25A      0.234663    26A      0.249473  
      27A      0.456865    28A      0.461694    29A      0.498289  
      30A      0.522871    31A      0.550570    32A      0.552577  
      33A      0.614920    34A      0.627362    35A      0.643921  
      36A      0.649225    37A      0.674174    38A      0.696951  
      39A      0.854844    40A      0.890863    41A      0.919336  
      42A      0.989716    43A      1.005968    44A      1.042006  
      45A      1.067145    46A      1.175902    47A      1.194999  
      48A      1.246159    49A      1.251448    50A      1.341979  
      51A      1.347101    52A      1.404495    53A      1.489063  
      54A      1.529955    55A      1.605859    56A      1.610574  
      57A      1.612029    58A      1.621794    59A      1.630552  
      60A      1.714671    61A      1.740346    62A      1.743368  
      63A      1.860207    64A      1.883621    65A      1.960367  
      66A      1.990832    67A      2.016286    68A      2.018477  
      69A      2.134138    70A      2.180046    71A      2.189917  
      72A      2.287100    73A      2.406960    74A      2.414640  
      75A      2.518755    76A      2.527851    77A      2.912879  
      78A      2.969513    79A      3.002970    80A      3.015910  
      81A      3.050984    82A      3.167976    83A      3.204242  
      84A      3.212639    85A      3.665784    86A      3.736781  

    Final Occupation by Irrep:
              A 
    DOCC [    17 ]

  Energy converged.

  @DF-RKS Final Energy:  -230.25165414276555

   => Energetics <=

    Nuclear Repulsion Energy =            132.5265673942415106
    One-Electron Energy =                -576.9349078125150072
    Two-Electron Energy =                 238.6979435628090016
    DFT Exchange-Correlation Energy =     -24.5370714073010525
    Empirical Dispersion Energy =          -0.0041858800000000
    PCM Polarization Energy =               0.0000000000000000
    EFP Energy =                            0.0000000000000000
    Total Energy =                       -230.2516541427655454



Properties will be evaluated at   0.000000,   0.000000,   0.000000 Bohr

Properties computed using the SCF density matrix

  Nuclear Dipole Moment: (a.u.)
     X:   151.5799      Y:   -42.4198      Z:    37.5221

  Electronic Dipole Moment: (a.u.)
     X:  -150.8687      Y:    42.8462      Z:   -37.5954

  Dipole Moment: (a.u.)
     X:     0.7112      Y:     0.4264      Z:    -0.0734     Total:     0.8325

  Dipole Moment: (Debye)
     X:     1.8078      Y:     1.0839      Z:    -0.1865     Total:     2.1160


*** tstop() called on computer06 at Tue Dec 12 10:56:07 2017
Module time:
	user time   =      19.52 seconds =       0.33 minutes
	system time =       0.15 seconds =       0.00 minutes
	total time  =         20 seconds =       0.33 minutes
Total time:
	user time   =      19.52 seconds =       0.33 minutes
	system time =       0.15 seconds =       0.00 minutes
	total time  =         20 seconds =       0.33 minutes


Properties will be evaluated at   0.000000,   0.000000,   0.000000 Bohr

Properties computed using the  density matrix

  Nuclear Dipole Moment: (a.u.)
     X:   151.5799      Y:   -42.4198      Z:    37.5221

  Electronic Dipole Moment: (a.u.)
     X:  -150.8687      Y:    42.8462      Z:   -37.5954

  Dipole Moment: (a.u.)
     X:     0.7112      Y:     0.4264      Z:    -0.0734     Total:     0.8325

  Dipole Moment: (Debye)
     X:     1.8078      Y:     1.0839      Z:    -0.1865     Total:     2.1160

  Quadrupole Moment: (Debye Ang)
    XX:   -15.7304     YY:   -23.6098     ZZ:   -21.0529
    XY:    -1.5472     XZ:     3.6807     YZ:    -3.4147

  Traceless Quadrupole Moment: (Debye Ang)
    XX:     4.4006     YY:    -3.4787     ZZ:    -0.9219
    XY:    -1.5472     XZ:     3.6807     YZ:    -3.4147

  Mulliken Charges: (a.u.)
   Center  Symbol    Alpha    Beta     Spin     Total
       1     O     4.13185  4.13185  0.00000 -0.26370
       2     C     2.93413  2.93413  0.00000  0.13174
       3     C     2.93430  2.93430  0.00000  0.13140
       4     O     4.13207  4.13207  0.00000 -0.26414
       5     H     0.43078  0.43078  0.00000  0.13844
       6     H     0.50300  0.50300  0.00000 -0.00600
       7     H     0.50019  0.50019  0.00000 -0.00038
       8     H     0.50007  0.50007  0.00000 -0.00014
       9     H     0.50289  0.50289  0.00000 -0.00578
      10     H     0.43073  0.43073  0.00000  0.13854

   Total alpha = 17.00000, Total beta = 17.00000, Total charge = -0.00000


*** Psi4 exiting successfully. Buy a developer a beer!
