    -----------------------------------------------------------------------
          Psi4: An Open-Source Ab Initio Electronic Structure Package
                              Psi4 (no tag) Driver

                          Git: Rev {detached?}  

    J. M. Turney, A. C. Simmonett, R. M. Parrish, E. G. Hohenstein,
    F. A. Evangelista, J. T. Fermann, B. J. Mintz, L. A. Burns, J. J. Wilke,
    M. L. Abrams, N. J. Russ, M. L. Leininger, C. L. Janssen, E. T. Seidl,
    W. D. Allen, H. F. Schaefer, R. A. King, E. F. Valeev, C. D. Sherrill,
    and T. D. Crawford, WIREs Comput. Mol. Sci. 2, 556-565 (2012)
    (doi: 10.1002/wcms.93)

                         Additional Contributions by
    A. E. DePrince, M. Saitow, U. Bozkaya, A. Yu. Sokolov
    -----------------------------------------------------------------------


    Psi4 started on: Tue Jul  5 16:37:55 2016

    Process ID:  17115
    PSI4DATADIR: /export131/home/mjharvey/miniconda3/share
    Memory level set to 256.000 MB

  ==> Input File <==

--------------------------------------------------------------------------
set {
	reference rhf
	basis 6-31G*
}


set_num_threads( 1 )
memory 2 gb

molecule MOL {
0 1

O	 -1.276010	 1.052711	 -0.768302
C	 -1.204840	 0.067374	 -0.106123
C	 -2.388195	 -0.672128	 0.458071
O	 -0.067104	 -0.527208	 0.221609
H	 -2.388023	 -1.694060	 0.097175
H	 -3.300579	 -0.174919	 0.164318
H	 -2.315377	 -0.706351	 1.539059
C	 -0.107932	 -1.713527	 1.027157
C	 -1.080759	 -2.652986	 0.336785
C	 -0.527932	 -1.357709	 2.444774
H	 0.883261	 -2.142427	 1.036544
H	 -0.753436	 -2.867935	 -0.674108
H	 -1.147250	 -3.588809	 0.881895
H	 -2.070885	 -2.212488	 0.289195
H	 -0.583071	 -2.254419	 3.053779
H	 0.187341	 -0.684239	 2.899527
H	 -1.504858	 -0.884821	 2.443366

	symmetry c1
}
set optking {
	frozen_dihedral = ("
		11 8 4 2
	")
}

ee = energy('scf')
oeprop('DIPOLE', 'QUADRUPOLE', 'MULLIKEN_CHARGES')
f=open( 'psi4out.xyz', 'w' )
f.write( "17  " )
f.write( str(ee) + "\n" )
f.write( MOL.save_string_xyz() )
f.close()
--------------------------------------------------------------------------

  Memory set to   2.000 GiB by Python script.

*** tstart() called on cx1-1-3-4.cx1.hpc.ic.ac.uk
*** at Tue Jul  5 16:37:55 2016


         ---------------------------------------------------------
                                   SCF
            by Justin Turney, Rob Parrish, and Andy Simmonett
                              RHF Reference
                        1 Threads,   2000 MiB Core
         ---------------------------------------------------------

  ==> Geometry <==

    Molecular point group: c1
    Full point group: C1

    Geometry (in Angstrom), charge = 0, multiplicity = 1:

       Center              X                  Y                   Z               Mass       
    ------------   -----------------  -----------------  -----------------  -----------------
           O         -0.312991621899     1.884386066415    -1.287624043340    15.994914619560
           C         -0.241821621899     0.899049066415    -0.625445043340    12.000000000000
           C         -1.425176621899     0.159547066415    -0.061251043340    12.000000000000
           O          0.895914378101     0.304467066415    -0.297713043340    15.994914619560
           H         -1.425004621899    -0.862384933585    -0.422147043340     1.007825032070
           H         -2.337560621899     0.656756066415    -0.355004043340     1.007825032070
           H         -1.352358621899     0.125324066415     1.019736956660     1.007825032070
           C          0.855086378101    -0.881851933585     0.507834956660    12.000000000000
           C         -0.117740621899    -1.821310933585    -0.182537043340    12.000000000000
           C          0.435086378101    -0.526033933585     1.925451956660    12.000000000000
           H          1.846279378101    -1.310751933585     0.517221956660     1.007825032070
           H          0.209582378101    -2.036259933585    -1.193430043340     1.007825032070
           H         -0.184231621899    -2.757133933585     0.362572956660     1.007825032070
           H         -1.107866621899    -1.380812933585    -0.230127043340     1.007825032070
           H          0.379947378101    -1.422743933585     2.534456956660     1.007825032070
           H          1.150359378101     0.147436066415     2.380204956660     1.007825032070
           H         -0.541839621899    -0.053145933585     1.924043956660     1.007825032070

  Running in c1 symmetry.

  Rotational constants: A =      0.14962  B =      0.06954  C =      0.06565 [cm^-1]
  Rotational constants: A =   4485.51292  B =   2084.74533  C =   1968.11558 [MHz]
  Nuclear repulsion =  340.026968904394437

  Charge       = 0
  Multiplicity = 1
  Electrons    = 56
  Nalpha       = 28
  Nbeta        = 28

  ==> Algorithm <==

  SCF Algorithm Type is DF.
  DIIS enabled.
  MOM disabled.
  Fractional occupation disabled.
  Guess Type is CORE.
  Energy threshold   = 1.00e-06
  Density threshold  = 1.00e-06
  Integral threshold = 0.00e+00

  ==> Primary Basis <==

  Basis Set: 6-31G*
    Number of shells: 62
    Number of basis function: 125
    Number of Cartesian functions: 125
    Spherical Harmonics?: false
    Max angular momentum: 2

  ==> Pre-Iterations <==

   -------------------------------------------------------
    Irrep   Nso     Nmo     Nalpha   Nbeta   Ndocc  Nsocc
   -------------------------------------------------------
     A        125     125       0       0       0       0
   -------------------------------------------------------
    Total     125     125      28      28      28       0
   -------------------------------------------------------

 OEINTS: Overlap, kinetic, potential, dipole, and quadrupole integrals
         stored in file 35.

  ==> Integral Setup <==

  ==> DFJK: Density-Fitted J/K Matrices <==

    J tasked:                  Yes
    K tasked:                  Yes
    wK tasked:                  No
    OpenMP threads:              1
    Integrals threads:           1
    Memory (MB):              1430
    Algorithm:                Core
    Integral Cache:           NONE
    Schwarz Cutoff:          1E-12
    Fitting Condition:       1E-12

   => Auxiliary Basis Set <=

  Basis Set: 
    Number of shells: 258
    Number of basis function: 817
    Number of Cartesian functions: 817
    Spherical Harmonics?: false
    Max angular momentum: 3

  Minimum eigenvalue in the overlap matrix is 2.3565402202E-03.
  Using Symmetric Orthogonalization.
  SCF Guess: Core (One-Electron) Hamiltonian.

  ==> Iterations <==

                           Total Energy        Delta E     RMS |[F,P]|

   @DF-RHF iter   1:  -264.58852415391567   -2.64589e+02   7.40702e-02 
   @DF-RHF iter   2:  -223.98593316622458    4.06026e+01   6.56259e-02 DIIS
   @DF-RHF iter   3:  -286.60623653777321   -6.26203e+01   5.59777e-02 DIIS
   @DF-RHF iter   4:  -321.95957719821143   -3.53533e+01   4.04116e-02 DIIS
   @DF-RHF iter   5:  -333.94020285196774   -1.19806e+01   3.21998e-02 DIIS
   @DF-RHF iter   6:  -342.62454239340724   -8.68434e+00   1.38253e-02 DIIS
   @DF-RHF iter   7:  -344.26618866544760   -1.64165e+00   5.46131e-03 DIIS
   @DF-RHF iter   8:  -344.58578983593958   -3.19601e-01   1.92214e-03 DIIS
   @DF-RHF iter   9:  -344.62397851987663   -3.81887e-02   5.30270e-04 DIIS
   @DF-RHF iter  10:  -344.62880928904013   -4.83077e-03   2.40720e-04 DIIS
   @DF-RHF iter  11:  -344.62984548921469   -1.03620e-03   1.30728e-04 DIIS
   @DF-RHF iter  12:  -344.63013679924330   -2.91310e-04   3.61653e-05 DIIS
   @DF-RHF iter  13:  -344.63015559959837   -1.88004e-05   2.02639e-05 DIIS
   @DF-RHF iter  14:  -344.63016023238157   -4.63278e-06   3.13507e-06 DIIS
   @DF-RHF iter  15:  -344.63016045324304   -2.20861e-07   1.14072e-06 DIIS
   @DF-RHF iter  16:  -344.63016047576872   -2.25257e-08   3.74873e-07 DIIS

  ==> Post-Iterations <==

    Orbital Energies (a.u.)
    -----------------------

    Doubly Occupied:                                                      

       1A    -20.602324     2A    -20.540855     3A    -11.376841  
       4A    -11.313229     5A    -11.233866     6A    -11.212619  
       7A    -11.212306     8A     -1.466931     9A     -1.367274  
      10A     -1.129032    11A     -1.054809    12A     -0.980014  
      13A     -0.868924    14A     -0.813349    15A     -0.720615  
      16A     -0.707750    17A     -0.684702    18A     -0.658346  
      19A     -0.636789    20A     -0.603977    21A     -0.571117  
      22A     -0.558234    23A     -0.525270    24A     -0.508023  
      25A     -0.491295    26A     -0.448494    27A     -0.436300  
      28A     -0.386154  

    Virtual:                                                              

      29A      0.179083    30A      0.227796    31A      0.234439  
      32A      0.265351    33A      0.292936    34A      0.303379  
      35A      0.308778    36A      0.327863    37A      0.337335  
      38A      0.341500    39A      0.366526    40A      0.391994  
      41A      0.409897    42A      0.421282    43A      0.499472  
      44A      0.512004    45A      0.608081    46A      0.671728  
      47A      0.712988    48A      0.730119    49A      0.736896  
      50A      0.767845    51A      0.770255    52A      0.825825  
      53A      0.852535    54A      0.892852    55A      0.905380  
      56A      0.930419    57A      0.932680    58A      0.971081  
      59A      0.997391    60A      1.034324    61A      1.093919  
      62A      1.111866    63A      1.124558    64A      1.139438  
      65A      1.155699    66A      1.167021    67A      1.201854  
      68A      1.214035    69A      1.243100    70A      1.274937  
      71A      1.290905    72A      1.328880    73A      1.344496  
      74A      1.365420    75A      1.391599    76A      1.425555  
      77A      1.545750    78A      1.583922    79A      1.620502  
      80A      1.644743    81A      1.737861    82A      1.766693  
      83A      1.787477    84A      1.807532    85A      1.884690  
      86A      1.910049    87A      2.034955    88A      2.061434  
      89A      2.079383    90A      2.100832    91A      2.112040  
      92A      2.142350    93A      2.175188    94A      2.197829  
      95A      2.229971    96A      2.296243    97A      2.317424  
      98A      2.363047    99A      2.430878   100A      2.483326  
     101A      2.492403   102A      2.559844   103A      2.572283  
     104A      2.615137   105A      2.626225   106A      2.737427  
     107A      2.743775   108A      2.801786   109A      2.862900  
     110A      2.866028   111A      2.973641   112A      3.042778  
     113A      3.078550   114A      3.134637   115A      3.161697  
     116A      3.303898   117A      3.421643   118A      3.576735  
     119A      4.400819   120A      4.573106   121A      4.754748  
     122A      4.766776   123A      4.789281   124A      4.968509  
     125A      5.021860  

    Final Occupation by Irrep:
              A 
    DOCC [    28 ]

  Energy converged.

  @DF-RHF Final Energy:  -344.63016047576872

   => Energetics <=

    Nuclear Repulsion Energy =            340.0269689043944368
    One-Electron Energy =               -1143.0954291002515220
    Two-Electron Energy =                 458.4382997200885370
    DFT Exchange-Correlation Energy =       0.0000000000000000
    Empirical Dispersion Energy =           0.0000000000000000
    PCM Polarization Energy =               0.0000000000000000
    EFP Energy =                            0.0000000000000000
    Total Energy =                       -344.6301604757686050

    Alert: EFP and PCM quantities not currently incorporated into SCF psivars.

Properties will be evaluated at   0.000000,   0.000000,   0.000000 Bohr
  ==> Properties <==


Properties computed using the SCF density matrix

  Nuclear Dipole Moment: (a.u.)
     X:    -3.1496      Y:    -8.3271      Z:     6.1211

  Electronic Dipole Moment: (a.u.)
     X:     2.8324      Y:     6.6799      Z:    -4.9773

  Dipole Moment: (a.u.)
     X:    -0.3172      Y:    -1.6472      Z:     1.1439     Total:     2.0304

  Dipole Moment: (Debye)
     X:    -0.8063      Y:    -4.1868      Z:     2.9074     Total:     5.1607


  Saving occupied orbitals to File 180.

*** tstop() called on cx1-1-3-4.cx1.hpc.ic.ac.uk at Tue Jul  5 16:38:06 2016
Module time:
	user time   =      10.34 seconds =       0.17 minutes
	system time =       0.08 seconds =       0.00 minutes
	total time  =         11 seconds =       0.18 minutes
Total time:
	user time   =      10.34 seconds =       0.17 minutes
	system time =       0.08 seconds =       0.00 minutes
	total time  =         11 seconds =       0.18 minutes


Properties will be evaluated at   0.000000,   0.000000,   0.000000 Bohr

Properties computed using the  density matrix

  Nuclear Dipole Moment: (a.u.)
     X:    -3.1496      Y:    -8.3271      Z:     6.1211

  Electronic Dipole Moment: (a.u.)
     X:     2.8324      Y:     6.6799      Z:    -4.9773

  Dipole Moment: (a.u.)
     X:    -0.3172      Y:    -1.6472      Z:     1.1439     Total:     2.0304

  Dipole Moment: (Debye)
     X:    -0.8063      Y:    -4.1868      Z:     2.9074     Total:     5.1607

  Quadrupole Moment: (Debye Ang)
    XX:   -42.7677     YY:   -49.4939     ZZ:   -44.9947
    XY:    -0.2169     XZ:     0.8598     YZ:     4.6308

  Traceless Quadrupole Moment: (Debye Ang)
    XX:     2.9844     YY:    -3.7418     ZZ:     0.7574
    XY:    -0.2169     XZ:     0.8598     YZ:     4.6308

  Mulliken Charges: (a.u.)
   Center  Symbol    Alpha    Beta     Spin     Total
       1     O     4.27399  4.27399  0.00000 -0.54797
       2     C     2.59588  2.59588  0.00000  0.80825
       3     C     3.34456  3.34456  0.00000 -0.68913
       4     O     4.30802  4.30802  0.00000 -0.61604
       5     H     0.38258  0.38258  0.00000  0.23485
       6     H     0.39199  0.39199  0.00000  0.21601
       7     H     0.40099  0.40099  0.00000  0.19802
       8     C     2.93614  2.93614  0.00000  0.12772
       9     C     3.27422  3.27422  0.00000 -0.54844
      10     C     3.25240  3.25240  0.00000 -0.50480
      11     H     0.38950  0.38950  0.00000  0.22101
      12     H     0.40310  0.40310  0.00000  0.19379
      13     H     0.41562  0.41562  0.00000  0.16875
      14     H     0.40237  0.40237  0.00000  0.19526
      15     H     0.41228  0.41228  0.00000  0.17544
      16     H     0.40164  0.40164  0.00000  0.19672
      17     H     0.41471  0.41471  0.00000  0.17057

   Total alpha = 28.00000, Total beta = 28.00000, Total charge = -0.00000


*** PSI4 exiting successfully. Buy a developer a beer!
