    -----------------------------------------------------------------------
          Psi4: An Open-Source Ab Initio Electronic Structure Package
                              Psi4 (no tag) Driver

                          Git: Rev {detached?}  

    J. M. Turney, A. C. Simmonett, R. M. Parrish, E. G. Hohenstein,
    F. A. Evangelista, J. T. Fermann, B. J. Mintz, L. A. Burns, J. J. Wilke,
    M. L. Abrams, N. J. Russ, M. L. Leininger, C. L. Janssen, E. T. Seidl,
    W. D. Allen, H. F. Schaefer, R. A. King, E. F. Valeev, C. D. Sherrill,
    and T. D. Crawford, WIREs Comput. Mol. Sci. 2, 556-565 (2012)
    (doi: 10.1002/wcms.93)

                         Additional Contributions by
    A. E. DePrince, M. Saitow, U. Bozkaya, A. Yu. Sokolov
    -----------------------------------------------------------------------


    Psi4 started on: Tue Jul  5 17:07:52 2016

    Process ID:  16711
    PSI4DATADIR: /export131/home/mjharvey/miniconda3/share
    Memory level set to 256.000 MB

  ==> Input File <==

--------------------------------------------------------------------------
set {
	reference rhf
	basis 6-31G*
}


set_num_threads( 1 )
memory 2 gb

molecule MOL {
0 1

H	 -1.018332	 -2.892157	 0.826841
C	 -1.680663	 -2.055750	 0.938207
C	 -1.271134	 -0.975404	 1.562018
H	 -2.671550	 -2.127774	 0.530939
O	 -0.088820	 -0.934487	 2.230837
H	 -1.832896	 -0.058011	 1.565237
C	 1.075857	 -0.772473	 1.496583
C	 1.375804	 -1.987551	 0.648108
H	 1.936994	 -0.579740	 2.126657
H	 0.932799	 0.067601	 0.833035
F	 0.270940	 -2.376022	 0.028292
F	 2.284988	 -1.727844	 -0.276970
F	 1.813767	 -2.998844	 1.369125

	symmetry c1
}
set optking {
	frozen_dihedral = ("
		11 8 7 9,
		3 5 7 9,
		6 3 2 1
	")
}

ee = energy('scf')
oeprop('DIPOLE', 'QUADRUPOLE', 'MULLIKEN_CHARGES')
f=open( 'psi4out.xyz', 'w' )
f.write( "13  " )
f.write( str(ee) + "\n" )
f.write( MOL.save_string_xyz() )
f.close()
--------------------------------------------------------------------------

  Memory set to   2.000 GiB by Python script.

*** tstart() called on cx1-3-14-4.cx1.hpc.ic.ac.uk
*** at Tue Jul  5 17:07:52 2016


         ---------------------------------------------------------
                                   SCF
            by Justin Turney, Rob Parrish, and Andy Simmonett
                              RHF Reference
                        1 Threads,   2000 MiB Core
         ---------------------------------------------------------

  ==> Geometry <==

    Molecular point group: c1
    Full point group: C1

    Geometry (in Angstrom), charge = 0, multiplicity = 1:

       Center              X                  Y                   Z               Mass       
    ------------   -----------------  -----------------  -----------------  -----------------
           H         -1.596937227626    -1.106736957566    -0.114499880350     1.007825032070
           C         -2.259268227626    -0.270329957566    -0.003133880350    12.000000000000
           C         -1.849739227626     0.810016042434     0.620677119650    12.000000000000
           H         -3.250155227626    -0.342353957566    -0.410401880350     1.007825032070
           O         -0.667425227626     0.850933042434     1.289496119650    15.994914619560
           H         -2.411501227626     1.727409042434     0.623896119650     1.007825032070
           C          0.497251772374     1.012947042434     0.555242119650    12.000000000000
           C          0.797198772374    -0.202130957566    -0.293232880350    12.000000000000
           H          1.358388772374     1.205680042434     1.185316119650     1.007825032070
           H          0.354193772374     1.853021042434    -0.108305880350     1.007825032070
           F         -0.307665227626    -0.590601957566    -0.913048880350    18.998403224000
           F          1.706382772374     0.057576042434    -1.218310880350    18.998403224000
           F          1.235161772374    -1.213423957566     0.427784119650    18.998403224000

  Running in c1 symmetry.

  Rotational constants: A =      0.12485  B =      0.05566  C =      0.04935 [cm^-1]
  Rotational constants: A =   3743.01405  B =   1668.58467  C =   1479.48911 [MHz]
  Nuclear repulsion =  431.907829087602238

  Charge       = 0
  Multiplicity = 1
  Electrons    = 64
  Nalpha       = 32
  Nbeta        = 32

  ==> Algorithm <==

  SCF Algorithm Type is DF.
  DIIS enabled.
  MOM disabled.
  Fractional occupation disabled.
  Guess Type is CORE.
  Energy threshold   = 1.00e-06
  Density threshold  = 1.00e-06
  Integral threshold = 0.00e+00

  ==> Primary Basis <==

  Basis Set: 6-31G*
    Number of shells: 58
    Number of basis function: 130
    Number of Cartesian functions: 130
    Spherical Harmonics?: false
    Max angular momentum: 2

  ==> Pre-Iterations <==

   -------------------------------------------------------
    Irrep   Nso     Nmo     Nalpha   Nbeta   Ndocc  Nsocc
   -------------------------------------------------------
     A        130     130       0       0       0       0
   -------------------------------------------------------
    Total     130     130      32      32      32       0
   -------------------------------------------------------

 OEINTS: Overlap, kinetic, potential, dipole, and quadrupole integrals
         stored in file 35.

  ==> Integral Setup <==

  ==> DFJK: Density-Fitted J/K Matrices <==

    J tasked:                  Yes
    K tasked:                  Yes
    wK tasked:                  No
    OpenMP threads:              1
    Integrals threads:           1
    Memory (MB):              1430
    Algorithm:                Core
    Integral Cache:           NONE
    Schwarz Cutoff:          1E-12
    Fitting Condition:       1E-12

   => Auxiliary Basis Set <=

  Basis Set: 
    Number of shells: 237
    Number of basis function: 773
    Number of Cartesian functions: 773
    Spherical Harmonics?: false
    Max angular momentum: 3

  Minimum eigenvalue in the overlap matrix is 1.8122936465E-03.
  Using Symmetric Orthogonalization.
  SCF Guess: Core (One-Electron) Hamiltonian.

  ==> Iterations <==

                           Total Energy        Delta E     RMS |[F,P]|

   @DF-RHF iter   1:  -441.29114539555434   -4.41291e+02   7.77390e-02 
   @DF-RHF iter   2:  -233.37583578246205    2.07915e+02   1.01805e-01 DIIS
   @DF-RHF iter   3:  -486.47026016364481   -2.53094e+02   4.72771e-02 DIIS
   @DF-RHF iter   4:  -446.08061521859923    4.03896e+01   6.18112e-02 DIIS
   @DF-RHF iter   5:  -526.45845875356235   -8.03778e+01   1.14918e-02 DIIS
   @DF-RHF iter   6:  -527.31200631838237   -8.53548e-01   5.08352e-03 DIIS
   @DF-RHF iter   7:  -527.47061434866760   -1.58608e-01   8.35082e-04 DIIS
   @DF-RHF iter   8:  -527.47762994017899   -7.01559e-03   2.96655e-04 DIIS
   @DF-RHF iter   9:  -527.47866518520414   -1.03525e-03   1.12813e-04 DIIS
   @DF-RHF iter  10:  -527.47877839634270   -1.13211e-04   5.81009e-05 DIIS
   @DF-RHF iter  11:  -527.47881185020469   -3.34539e-05   1.05569e-05 DIIS
   @DF-RHF iter  12:  -527.47881353099910   -1.68079e-06   3.64395e-06 DIIS
   @DF-RHF iter  13:  -527.47881370335745   -1.72358e-07   1.39935e-06 DIIS
   @DF-RHF iter  14:  -527.47881373262567   -2.92682e-08   4.64259e-07 DIIS

  ==> Post-Iterations <==

    Orbital Energies (a.u.)
    -----------------------

    Doubly Occupied:                                                      

       1A    -26.347539     2A    -26.345940     3A    -26.343653  
       4A    -20.591965     5A    -11.505460     6A    -11.314384  
       7A    -11.276958     8A    -11.209591     9A     -1.748798  
      10A     -1.650464    11A     -1.643088    12A     -1.426553  
      13A     -1.079681    14A     -1.011953    15A     -0.942860  
      16A     -0.849054    17A     -0.837107    18A     -0.812370  
      19A     -0.781110    20A     -0.732107    21A     -0.722140  
      22A     -0.688983    23A     -0.672344    24A     -0.664595  
      25A     -0.658749    26A     -0.649396    27A     -0.644660  
      28A     -0.592766    29A     -0.538719    30A     -0.511516  
      31A     -0.458637    32A     -0.356991  

    Virtual:                                                              

      33A      0.185370    34A      0.257034    35A      0.273872  
      36A      0.283279    37A      0.305041    38A      0.321423  
      39A      0.348942    40A      0.408460    41A      0.425102  
      42A      0.452998    43A      0.486416    44A      0.504229  
      45A      0.520619    46A      0.680221    47A      0.715372  
      48A      0.748156    49A      0.767110    50A      0.786480  
      51A      0.797230    52A      0.801399    53A      0.810397  
      54A      0.880454    55A      0.904375    56A      0.919067  
      57A      1.011543    58A      1.075817    59A      1.119873  
      60A      1.124772    61A      1.148799    62A      1.155416  
      63A      1.194532    64A      1.224572    65A      1.310238  
      66A      1.336669    67A      1.345788    68A      1.400068  
      69A      1.435696    70A      1.437985    71A      1.472135  
      72A      1.490393    73A      1.586191    74A      1.623571  
      75A      1.632106    76A      1.644921    77A      1.659364  
      78A      1.673563    79A      1.691499    80A      1.721299  
      81A      1.784604    82A      1.801888    83A      1.872627  
      84A      1.928252    85A      1.958188    86A      1.973789  
      87A      2.078822    88A      2.102855    89A      2.118216  
      90A      2.124551    91A      2.149878    92A      2.176586  
      93A      2.248080    94A      2.251880    95A      2.283695  
      96A      2.308572    97A      2.356679    98A      2.362037  
      99A      2.383618   100A      2.405946   101A      2.418400  
     102A      2.449961   103A      2.503879   104A      2.524984  
     105A      2.530086   106A      2.605488   107A      2.677855  
     108A      2.707198   109A      2.776367   110A      2.826905  
     111A      2.842377   112A      2.925876   113A      3.077883  
     114A      3.104708   115A      3.151459   116A      3.163784  
     117A      3.229746   118A      3.325098   119A      3.368502  
     120A      3.421905   121A      3.428479   122A      3.490779  
     123A      4.358387   124A      4.585835   125A      4.626536  
     126A      4.764141   127A      4.884769   128A      4.952513  
     129A      5.204978   130A      5.850408  

    Final Occupation by Irrep:
              A 
    DOCC [    32 ]

  Energy converged.

  @DF-RHF Final Energy:  -527.47881373262567

   => Energetics <=

    Nuclear Repulsion Energy =            431.9078290876022379
    One-Electron Energy =               -1587.5531917644216264
    Two-Electron Energy =                 628.1665489441941190
    DFT Exchange-Correlation Energy =       0.0000000000000000
    Empirical Dispersion Energy =           0.0000000000000000
    PCM Polarization Energy =               0.0000000000000000
    EFP Energy =                            0.0000000000000000
    Total Energy =                       -527.4788137326252127

    Alert: EFP and PCM quantities not currently incorporated into SCF psivars.

Properties will be evaluated at   0.000000,   0.000000,   0.000000 Bohr
  ==> Properties <==


Properties computed using the SCF density matrix

  Nuclear Dipole Moment: (a.u.)
     X:    -7.6871      Y:     4.7800      Z:     2.7157

  Electronic Dipole Moment: (a.u.)
     X:     7.7158      Y:    -4.2020      Z:    -2.9522

  Dipole Moment: (a.u.)
     X:     0.0287      Y:     0.5780      Z:    -0.2365     Total:     0.6251

  Dipole Moment: (Debye)
     X:     0.0730      Y:     1.4690      Z:    -0.6010     Total:     1.5889


  Saving occupied orbitals to File 180.

*** tstop() called on cx1-3-14-4.cx1.hpc.ic.ac.uk at Tue Jul  5 17:08:02 2016
Module time:
	user time   =       9.40 seconds =       0.16 minutes
	system time =       0.05 seconds =       0.00 minutes
	total time  =         10 seconds =       0.17 minutes
Total time:
	user time   =       9.40 seconds =       0.16 minutes
	system time =       0.05 seconds =       0.00 minutes
	total time  =         10 seconds =       0.17 minutes


Properties will be evaluated at   0.000000,   0.000000,   0.000000 Bohr

Properties computed using the  density matrix

  Nuclear Dipole Moment: (a.u.)
     X:    -7.6871      Y:     4.7800      Z:     2.7157

  Electronic Dipole Moment: (a.u.)
     X:     7.7158      Y:    -4.2020      Z:    -2.9522

  Dipole Moment: (a.u.)
     X:     0.0287      Y:     0.5780      Z:    -0.2365     Total:     0.6251

  Dipole Moment: (Debye)
     X:     0.0730      Y:     1.4690      Z:    -0.6010     Total:     1.5889

  Quadrupole Moment: (Debye Ang)
    XX:   -42.9224     YY:   -42.1315     ZZ:   -48.7147
    XY:     1.1986     XZ:     3.3578     YZ:     0.3752

  Traceless Quadrupole Moment: (Debye Ang)
    XX:     1.6672     YY:     2.4580     ZZ:    -4.1252
    XY:     1.1986     XZ:     3.3578     YZ:     0.3752

  Mulliken Charges: (a.u.)
   Center  Symbol    Alpha    Beta     Spin     Total
       1     H     0.38346  0.38346  0.00000  0.23308
       2     C     3.20587  3.20587  0.00000 -0.41173
       3     C     2.93851  2.93851  0.00000  0.12299
       4     H     0.40861  0.40861  0.00000  0.18278
       5     O     4.30767  4.30767  0.00000 -0.61534
       6     H     0.40945  0.40945  0.00000  0.18111
       7     C     3.05140  3.05140  0.00000 -0.10279
       8     C     2.45763  2.45763  0.00000  1.08473
       9     H     0.39256  0.39256  0.00000  0.21489
      10     H     0.40819  0.40819  0.00000  0.18362
      11     F     4.68005  4.68005  0.00000 -0.36010
      12     F     4.68018  4.68018  0.00000 -0.36037
      13     F     4.67643  4.67643  0.00000 -0.35285

   Total alpha = 32.00000, Total beta = 32.00000, Total charge = -0.00000


*** PSI4 exiting successfully. Buy a developer a beer!
