    -----------------------------------------------------------------------
          Psi4: An Open-Source Ab Initio Electronic Structure Package
                              Psi4 (no tag) Driver

                          Git: Rev {detached?}  

    J. M. Turney, A. C. Simmonett, R. M. Parrish, E. G. Hohenstein,
    F. A. Evangelista, J. T. Fermann, B. J. Mintz, L. A. Burns, J. J. Wilke,
    M. L. Abrams, N. J. Russ, M. L. Leininger, C. L. Janssen, E. T. Seidl,
    W. D. Allen, H. F. Schaefer, R. A. King, E. F. Valeev, C. D. Sherrill,
    and T. D. Crawford, WIREs Comput. Mol. Sci. 2, 556-565 (2012)
    (doi: 10.1002/wcms.93)

                         Additional Contributions by
    A. E. DePrince, M. Saitow, U. Bozkaya, A. Yu. Sokolov
    -----------------------------------------------------------------------


    Psi4 started on: Tue Jul  5 16:33:54 2016

    Process ID:  22308
    PSI4DATADIR: /export131/home/mjharvey/miniconda3/share
    Memory level set to 256.000 MB

  ==> Input File <==

--------------------------------------------------------------------------
set {
	reference rhf
	basis 6-31G*
}


set_num_threads( 1 )
memory 2 gb

molecule MOL {
0 1

H	 1.994625	 -0.187877	 0.458793
C	 1.156413	 -0.206753	 -0.224103
O	 0.000000	 0.000000	 0.521119
H	 1.293668	 0.572826	 -0.971837
H	 1.137015	 -1.170072	 -0.731379
C	 -1.165642	 0.000000	 -0.238270
H	 -1.228672	 0.883184	 -0.872070
H	 -2.003012	 0.000000	 0.445920
H	 -1.228672	 -0.883184	 -0.872070

	symmetry c1
}
ee = energy('scf')
oeprop('DIPOLE', 'QUADRUPOLE', 'MULLIKEN_CHARGES')
f=open( 'psi4out.xyz', 'w' )
f.write( "9  " )
f.write( str(ee) + "\n" )
f.write( MOL.save_string_xyz() )
f.close()
--------------------------------------------------------------------------

  Memory set to   2.000 GiB by Python script.

*** tstart() called on cx1-3-15-2.cx1.hpc.ic.ac.uk
*** at Tue Jul  5 16:33:54 2016


         ---------------------------------------------------------
                                   SCF
            by Justin Turney, Rob Parrish, and Andy Simmonett
                              RHF Reference
                        1 Threads,   2000 MiB Core
         ---------------------------------------------------------

  ==> Geometry <==

    Molecular point group: c1
    Full point group: C1

    Geometry (in Angstrom), charge = 0, multiplicity = 1:

       Center              X                  Y                   Z               Mass       
    ------------   -----------------  -----------------  -----------------  -----------------
           H          1.997797552900    -0.116804669937     0.453922679271     1.007825032070
           C          1.159585552900    -0.135680669937    -0.228973320729    12.000000000000
           O          0.003172552900     0.071072330063     0.516248679271    15.994914619560
           H          1.296840552900     0.643898330063    -0.976707320729     1.007825032070
           H          1.140187552900    -1.098999669937    -0.736249320729     1.007825032070
           C         -1.162469447100     0.071072330063    -0.243140320729    12.000000000000
           H         -1.225499447100     0.954256330063    -0.876940320729     1.007825032070
           H         -1.999839447100     0.071072330063     0.441049679271     1.007825032070
           H         -1.225499447100    -0.812111669937    -0.876940320729     1.007825032070

  Running in c1 symmetry.

  Rotational constants: A =      1.36868  B =      0.33765  C =      0.30127 [cm^-1]
  Rotational constants: A =  41031.86293  B =  10122.46714  C =   9031.95582 [MHz]
  Nuclear repulsion =   84.769719324298819

  Charge       = 0
  Multiplicity = 1
  Electrons    = 26
  Nalpha       = 13
  Nbeta        = 13

  ==> Algorithm <==

  SCF Algorithm Type is DF.
  DIIS enabled.
  MOM disabled.
  Fractional occupation disabled.
  Guess Type is CORE.
  Energy threshold   = 1.00e-06
  Density threshold  = 1.00e-06
  Integral threshold = 0.00e+00

  ==> Primary Basis <==

  Basis Set: 6-31G*
    Number of shells: 30
    Number of basis function: 57
    Number of Cartesian functions: 57
    Spherical Harmonics?: false
    Max angular momentum: 2

  ==> Pre-Iterations <==

   -------------------------------------------------------
    Irrep   Nso     Nmo     Nalpha   Nbeta   Ndocc  Nsocc
   -------------------------------------------------------
     A         57      57       0       0       0       0
   -------------------------------------------------------
    Total      57      57      13      13      13       0
   -------------------------------------------------------

 OEINTS: Overlap, kinetic, potential, dipole, and quadrupole integrals
         stored in file 35.

  ==> Integral Setup <==

  ==> DFJK: Density-Fitted J/K Matrices <==

    J tasked:                  Yes
    K tasked:                  Yes
    wK tasked:                  No
    OpenMP threads:              1
    Integrals threads:           1
    Memory (MB):              1430
    Algorithm:                Core
    Integral Cache:           NONE
    Schwarz Cutoff:          1E-12
    Fitting Condition:       1E-12

   => Auxiliary Basis Set <=

  Basis Set: 
    Number of shells: 126
    Number of basis function: 393
    Number of Cartesian functions: 393
    Spherical Harmonics?: false
    Max angular momentum: 3

  Minimum eigenvalue in the overlap matrix is 7.6328966302E-03.
  Using Symmetric Orthogonalization.
  SCF Guess: Core (One-Electron) Hamiltonian.

  ==> Iterations <==

                           Total Energy        Delta E     RMS |[F,P]|

   @DF-RHF iter   1:  -129.87095731212926   -1.29871e+02   9.38016e-02 
   @DF-RHF iter   2:  -129.99395647864245   -1.22999e-01   6.06630e-02 DIIS
   @DF-RHF iter   3:  -149.56096473639681   -1.95670e+01   5.57470e-02 DIIS
   @DF-RHF iter   4:  -152.13898296997792   -2.57802e+00   3.64115e-02 DIIS
   @DF-RHF iter   5:  -153.71545938704401   -1.57648e+00   1.56359e-02 DIIS
   @DF-RHF iter   6:  -154.04145817498173   -3.25999e-01   4.50130e-03 DIIS
   @DF-RHF iter   7:  -154.06383296648866   -2.23748e-02   4.33567e-04 DIIS
   @DF-RHF iter   8:  -154.06436710737069   -5.34141e-04   9.28970e-05 DIIS
   @DF-RHF iter   9:  -154.06439011509488   -2.30077e-05   1.58063e-05 DIIS
   @DF-RHF iter  10:  -154.06439119165861   -1.07656e-06   3.53474e-06 DIIS
   @DF-RHF iter  11:  -154.06439123495596   -4.32973e-08   8.78463e-07 DIIS

  ==> Post-Iterations <==

    Orbital Energies (a.u.)
    -----------------------

    Doubly Occupied:                                                      

       1A    -20.556204     2A    -11.265326     3A    -11.265234  
       4A     -1.379506     5A     -0.974865     6A     -0.873020  
       7A     -0.661667     8A     -0.654334     9A     -0.645165  
      10A     -0.552230    11A     -0.529420    12A     -0.474929  
      13A     -0.417093  

    Virtual:                                                              

      14A      0.236723    15A      0.298544    16A      0.304465  
      17A      0.319368    18A      0.320522    19A      0.346578  
      20A      0.349259    21A      0.434581    22A      0.721096  
      23A      0.767213    24A      0.782214    25A      0.790129  
      26A      0.812011    27A      0.952909    28A      1.093243  
      29A      1.115363    30A      1.135789    31A      1.147576  
      32A      1.160682    33A      1.203942    34A      1.239807  
      35A      1.320939    36A      1.365273    37A      1.383826  
      38A      1.676912    39A      1.697351    40A      1.770603  
      41A      1.779953    42A      1.912803    43A      2.206468  
      44A      2.403104    45A      2.410160    46A      2.449831  
      47A      2.501689    48A      2.532213    49A      2.574813  
      50A      2.661555    51A      2.879192    52A      2.895989  
      53A      3.096595    54A      3.283223    55A      4.329956  
      56A      4.635548    57A      4.705820  

    Final Occupation by Irrep:
              A 
    DOCC [    13 ]

  Energy converged.

  @DF-RHF Final Energy:  -154.06439123495596

   => Energetics <=

    Nuclear Repulsion Energy =             84.7697193242988192
    One-Electron Energy =                -377.1704165697339022
    Two-Electron Energy =                 138.3363060104790918
    DFT Exchange-Correlation Energy =       0.0000000000000000
    Empirical Dispersion Energy =           0.0000000000000000
    PCM Polarization Energy =               0.0000000000000000
    EFP Energy =                            0.0000000000000000
    Total Energy =                       -154.0643912349559912

    Alert: EFP and PCM quantities not currently incorporated into SCF psivars.

Properties will be evaluated at   0.000000,   0.000000,   0.000000 Bohr
  ==> Properties <==


Properties computed using the SCF density matrix

  Nuclear Dipole Moment: (a.u.)
     X:    -0.0150      Y:    -0.3359      Z:    -2.4086

  Electronic Dipole Moment: (a.u.)
     X:     0.0115      Y:     0.2474      Z:     1.8318

  Dipole Moment: (a.u.)
     X:    -0.0035      Y:    -0.0885      Z:    -0.5768     Total:     0.5835

  Dipole Moment: (Debye)
     X:    -0.0090      Y:    -0.2249      Z:    -1.4660     Total:     1.4832


  Saving occupied orbitals to File 180.

*** tstop() called on cx1-3-15-2.cx1.hpc.ic.ac.uk at Tue Jul  5 16:33:56 2016
Module time:
	user time   =       1.54 seconds =       0.03 minutes
	system time =       0.01 seconds =       0.00 minutes
	total time  =          2 seconds =       0.03 minutes
Total time:
	user time   =       1.54 seconds =       0.03 minutes
	system time =       0.01 seconds =       0.00 minutes
	total time  =          2 seconds =       0.03 minutes


Properties will be evaluated at   0.000000,   0.000000,   0.000000 Bohr

Properties computed using the  density matrix

  Nuclear Dipole Moment: (a.u.)
     X:    -0.0150      Y:    -0.3359      Z:    -2.4086

  Electronic Dipole Moment: (a.u.)
     X:     0.0115      Y:     0.2474      Z:     1.8318

  Dipole Moment: (a.u.)
     X:    -0.0035      Y:    -0.0885      Z:    -0.5768     Total:     0.5835

  Dipole Moment: (Debye)
     X:    -0.0090      Y:    -0.2249      Z:    -1.4660     Total:     1.4832

  Quadrupole Moment: (Debye Ang)
    XX:   -16.9082     YY:   -20.1562     ZZ:   -20.9522
    XY:    -0.2455     XZ:     0.0169     YZ:    -0.1222

  Traceless Quadrupole Moment: (Debye Ang)
    XX:     2.4306     YY:    -0.8173     ZZ:    -1.6133
    XY:    -0.2455     XZ:     0.0169     YZ:    -0.1222

  Mulliken Charges: (a.u.)
   Center  Symbol    Alpha    Beta     Spin     Total
       1     H     0.41177  0.41177  0.00000  0.17647
       2     C     3.08037  3.08037  0.00000 -0.16075
       3     O     4.29515  4.29515  0.00000 -0.59030
       4     H     0.43042  0.43042  0.00000  0.13917
       5     H     0.42996  0.42996  0.00000  0.14008
       6     C     3.08016  3.08016  0.00000 -0.16031
       7     H     0.42918  0.42918  0.00000  0.14164
       8     H     0.41197  0.41197  0.00000  0.17606
       9     H     0.43103  0.43103  0.00000  0.13794

   Total alpha = 13.00000, Total beta = 13.00000, Total charge = -0.00000


*** PSI4 exiting successfully. Buy a developer a beer!
