    -----------------------------------------------------------------------
          Psi4: An Open-Source Ab Initio Electronic Structure Package
                              Psi4 (no tag) Driver

                          Git: Rev {detached?}  

    J. M. Turney, A. C. Simmonett, R. M. Parrish, E. G. Hohenstein,
    F. A. Evangelista, J. T. Fermann, B. J. Mintz, L. A. Burns, J. J. Wilke,
    M. L. Abrams, N. J. Russ, M. L. Leininger, C. L. Janssen, E. T. Seidl,
    W. D. Allen, H. F. Schaefer, R. A. King, E. F. Valeev, C. D. Sherrill,
    and T. D. Crawford, WIREs Comput. Mol. Sci. 2, 556-565 (2012)
    (doi: 10.1002/wcms.93)

                         Additional Contributions by
    A. E. DePrince, M. Saitow, U. Bozkaya, A. Yu. Sokolov
    -----------------------------------------------------------------------


    Psi4 started on: Tue Jul  5 18:03:01 2016

    Process ID:   3995
    PSI4DATADIR: /export131/home/mjharvey/miniconda3/share
    Memory level set to 256.000 MB

  ==> Input File <==

--------------------------------------------------------------------------
set {
	reference rhf
	basis 6-31G*
}


set_num_threads( 1 )
memory 2 gb

molecule MOL {
0 1

O	 -2.515526	 -1.986307	 1.221968
C	 -1.514987	 -1.440192	 0.882411
C	 -0.146641	 -1.792358	 1.406698
O	 -1.481751	 -0.454642	 0.000584
H	 0.049903	 -2.836127	 1.192739
H	 0.623992	 -1.176019	 0.967734
H	 -0.145258	 -1.672683	 2.483524
C	 -0.334255	 0.388708	 0.000906
C	 0.891947	 -0.504646	 0.000751
H	 -0.365390	 1.025305	 -0.873475
H	 -0.365484	 1.024911	 0.875569
C	 0.838286	 -1.556101	 -1.109219
H	 0.972990	 -0.989855	 0.969484
H	 1.777328	 0.114301	 -0.115286
C	 -0.165550	 -2.674382	 -0.822711
H	 0.580561	 -1.076907	 -2.052106
H	 1.827151	 -1.989778	 -1.247612
C	 -1.569591	 -2.151369	 -0.522723
H	 0.186978	 -3.266682	 0.018705
H	 -0.205447	 -3.348458	 -1.675412
H	 -1.568128	 -1.500106	 0.346683
H	 -2.257858	 -2.966803	 -0.323744
H	 -1.963632	 -1.582803	 -1.360264

	symmetry c1
}
set optking {
	frozen_dihedral = ("
		13 9 8 10,
		2 4 8 10,
		16 12 9 13,
		19 15 12 16
	")
}

ee = energy('scf')
oeprop('DIPOLE', 'QUADRUPOLE', 'MULLIKEN_CHARGES')
f=open( 'psi4out.xyz', 'w' )
f.write( "23  " )
f.write( str(ee) + "\n" )
f.write( MOL.save_string_xyz() )
f.close()
--------------------------------------------------------------------------

  Memory set to   2.000 GiB by Python script.

*** tstart() called on cx1-3-4-2.cx1.hpc.ic.ac.uk
*** at Tue Jul  5 18:03:01 2016


         ---------------------------------------------------------
                                   SCF
            by Justin Turney, Rob Parrish, and Andy Simmonett
                              RHF Reference
                        1 Threads,   2000 MiB Core
         ---------------------------------------------------------

  ==> Geometry <==

    Molecular point group: c1
    Full point group: C1

    Geometry (in Angstrom), charge = 0, multiplicity = 1:

       Center              X                  Y                   Z               Mass       
    ------------   -----------------  -----------------  -----------------  -----------------
           O         -1.832935815738    -0.631904332969     1.092925870511    15.994914619560
           C         -0.832396815738    -0.085789332969     0.753368870511    12.000000000000
           C          0.535949184262    -0.437955332969     1.277655870511    12.000000000000
           O         -0.799160815738     0.899760667031    -0.128458129489    15.994914619560
           H          0.732493184262    -1.481724332969     1.063696870511     1.007825032070
           H          1.306582184262     0.178383667031     0.838691870511     1.007825032070
           H          0.537332184262    -0.318280332969     2.354481870511     1.007825032070
           C          0.348335184262     1.743110667031    -0.128136129489    12.000000000000
           C          1.574537184262     0.849756667031    -0.128291129489    12.000000000000
           H          0.317200184262     2.379707667031    -1.002517129489     1.007825032070
           H          0.317106184262     2.379313667031     0.746526870511     1.007825032070
           C          1.520876184262    -0.201698332969    -1.238261129489    12.000000000000
           H          1.655580184262     0.364547667031     0.840441870511     1.007825032070
           H          2.459918184262     1.468703667031    -0.244328129489     1.007825032070
           C          0.517040184262    -1.319979332969    -0.951753129489    12.000000000000
           H          1.263151184262     0.277495667031    -2.181148129489     1.007825032070
           H          2.509741184262    -0.635375332969    -1.376654129489     1.007825032070
           C         -0.887000815738    -0.796966332969    -0.651765129489    12.000000000000
           H          0.869568184262    -1.912279332969    -0.110337129489     1.007825032070
           H          0.477143184262    -1.994055332969    -1.804454129489     1.007825032070
           H         -0.885537815738    -0.145703332969     0.217640870511     1.007825032070
           H         -1.575267815738    -1.612400332969    -0.452786129489     1.007825032070
           H         -1.281041815738    -0.228400332969    -1.489306129489     1.007825032070

  Running in c1 symmetry.

  Rotational constants: A =      0.08946  B =      0.06073  C =      0.05095 [cm^-1]
  Rotational constants: A =   2681.80366  B =   1820.71727  C =   1527.41084 [MHz]
  Nuclear repulsion =  571.280140261070187

  Charge       = 0
  Multiplicity = 1
  Electrons    = 72
  Nalpha       = 36
  Nbeta        = 36

  ==> Algorithm <==

  SCF Algorithm Type is DF.
  DIIS enabled.
  MOM disabled.
  Fractional occupation disabled.
  Guess Type is CORE.
  Energy threshold   = 1.00e-06
  Density threshold  = 1.00e-06
  Integral threshold = 0.00e+00

  ==> Primary Basis <==

  Basis Set: 6-31G*
    Number of shells: 82
    Number of basis function: 163
    Number of Cartesian functions: 163
    Spherical Harmonics?: false
    Max angular momentum: 2

  ==> Pre-Iterations <==

   -------------------------------------------------------
    Irrep   Nso     Nmo     Nalpha   Nbeta   Ndocc  Nsocc
   -------------------------------------------------------
     A        163     163       0       0       0       0
   -------------------------------------------------------
    Total     163     163      36      36      36       0
   -------------------------------------------------------

 OEINTS: Overlap, kinetic, potential, dipole, and quadrupole integrals
         stored in file 35.

  ==> Integral Setup <==

  ==> DFJK: Density-Fitted J/K Matrices <==

    J tasked:                  Yes
    K tasked:                  Yes
    wK tasked:                  No
    OpenMP threads:              1
    Integrals threads:           1
    Memory (MB):              1430
    Algorithm:                Core
    Integral Cache:           NONE
    Schwarz Cutoff:          1E-12
    Fitting Condition:       1E-12

   => Auxiliary Basis Set <=

  Basis Set: 
    Number of shells: 342
    Number of basis function: 1079
    Number of Cartesian functions: 1079
    Spherical Harmonics?: false
    Max angular momentum: 3

  Minimum eigenvalue in the overlap matrix is 1.3170639717E-04.
  Using Symmetric Orthogonalization.
  SCF Guess: Core (One-Electron) Hamiltonian.

  ==> Iterations <==

                           Total Energy        Delta E     RMS |[F,P]|

   @DF-RHF iter   1:  -290.47063947538516   -2.90471e+02   8.30238e-02 
   @DF-RHF iter   2:  -187.29627132602866    1.03174e+02   6.73763e-02 DIIS
   @DF-RHF iter   3:  -309.67408461899572   -1.22378e+02   6.46805e-02 DIIS
   @DF-RHF iter   4:  -397.08883753352518   -8.74148e+01   3.59230e-02 DIIS
   @DF-RHF iter   5:  -399.03740525881426   -1.94857e+00   3.47130e-02 DIIS
   @DF-RHF iter   6:  -420.49314786970206   -2.14557e+01   6.67792e-03 DIIS
   @DF-RHF iter   7:  -420.93574074097705   -4.42593e-01   2.71139e-03 DIIS
   @DF-RHF iter   8:  -421.01754717799270   -8.18064e-02   6.09828e-04 DIIS
   @DF-RHF iter   9:  -421.02377259982222   -6.22542e-03   1.71561e-04 DIIS
   @DF-RHF iter  10:  -421.02429112074401   -5.18521e-04   6.33526e-05 DIIS
   @DF-RHF iter  11:  -421.02437715428903   -8.60335e-05   1.91111e-05 DIIS
   @DF-RHF iter  12:  -421.02438835336682   -1.11991e-05   6.38432e-06 DIIS
   @DF-RHF iter  13:  -421.02438981915668   -1.46579e-06   2.29244e-06 DIIS
   @DF-RHF iter  14:  -421.02439001542882   -1.96272e-07   8.41182e-07 DIIS

  ==> Post-Iterations <==

    Orbital Energies (a.u.)
    -----------------------

    Doubly Occupied:                                                      

       1A    -20.576706     2A    -20.403668     3A    -11.377249  
       4A    -11.305857     5A    -11.298637     6A    -11.254968  
       7A    -11.243120     8A    -11.241562     9A    -11.151191  
      10A     -1.640192    11A     -1.344268    12A     -1.257805  
      13A     -1.155062    14A     -1.075160    15A     -0.974779  
      16A     -0.950909    17A     -0.907227    18A     -0.811247  
      19A     -0.746612    20A     -0.730527    21A     -0.724947  
      22A     -0.697919    23A     -0.631252    24A     -0.615470  
      25A     -0.608818    26A     -0.582455    27A     -0.574032  
      28A     -0.546518    29A     -0.516121    30A     -0.502966  
      31A     -0.497210    32A     -0.469787    33A     -0.411881  
      34A     -0.370984    35A     -0.323541    36A     -0.288266  

    Virtual:                                                              

      37A      0.208482    38A      0.220044    39A      0.241602  
      40A      0.256443    41A      0.259258    42A      0.268622  
      43A      0.285632    44A      0.292497    45A      0.309272  
      46A      0.315555    47A      0.332321    48A      0.335826  
      49A      0.345754    50A      0.374238    51A      0.379173  
      52A      0.411584    53A      0.425339    54A      0.441996  
      55A      0.460671    56A      0.480721    57A      0.528506  
      58A      0.602820    59A      0.651430    60A      0.698325  
      61A      0.699880    62A      0.703689    63A      0.734750  
      64A      0.768822    65A      0.782895    66A      0.807032  
      67A      0.836697    68A      0.855225    69A      0.879519  
      70A      0.893765    71A      0.922693    72A      0.937892  
      73A      0.951044    74A      0.975595    75A      0.982525  
      76A      1.020977    77A      1.051850    78A      1.077182  
      79A      1.093079    80A      1.112408    81A      1.122958  
      82A      1.128903    83A      1.144588    84A      1.175867  
      85A      1.181835    86A      1.203601    87A      1.212395  
      88A      1.228981    89A      1.249553    90A      1.262614  
      91A      1.283997    92A      1.320707    93A      1.340949  
      94A      1.407341    95A      1.423562    96A      1.457143  
      97A      1.467738    98A      1.517939    99A      1.555121  
     100A      1.589928   101A      1.626268   102A      1.701011  
     103A      1.705292   104A      1.754565   105A      1.782316  
     106A      1.840780   107A      1.872738   108A      1.946872  
     109A      1.953563   110A      2.008441   111A      2.031680  
     112A      2.051050   113A      2.080323   114A      2.105529  
     115A      2.145652   116A      2.175419   117A      2.213481  
     118A      2.234456   119A      2.243274   120A      2.274380  
     121A      2.285872   122A      2.326424   123A      2.342918  
     124A      2.364860   125A      2.408274   126A      2.424130  
     127A      2.450416   128A      2.471831   129A      2.526702  
     130A      2.553122   131A      2.585531   132A      2.624921  
     133A      2.639929   134A      2.675548   135A      2.684420  
     136A      2.716966   137A      2.747316   138A      2.796680  
     139A      2.813190   140A      2.824113   141A      2.894785  
     142A      2.932449   143A      2.971290   144A      3.017919  
     145A      3.037167   146A      3.072081   147A      3.116815  
     148A      3.171198   149A      3.231520   150A      3.354133  
     151A      3.425445   152A      3.530009   153A      3.646908  
     154A      4.593300   155A      4.688334   156A      4.765494  
     157A      4.892772   158A      4.905619   159A      4.969162  
     160A      5.008125   161A      5.081270   162A      5.230764  
     163A      5.986082  

    Final Occupation by Irrep:
              A 
    DOCC [    36 ]

  Energy converged.

  @DF-RHF Final Energy:  -421.02439001542882

   => Energetics <=

    Nuclear Repulsion Energy =            571.2801402610701871
    One-Electron Energy =               -1704.9911676851127140
    Two-Electron Energy =                 712.6866374086139331
    DFT Exchange-Correlation Energy =       0.0000000000000000
    Empirical Dispersion Energy =           0.0000000000000000
    PCM Polarization Energy =               0.0000000000000000
    EFP Energy =                            0.0000000000000000
    Total Energy =                       -421.0243900154287076

    Alert: EFP and PCM quantities not currently incorporated into SCF psivars.

Properties will be evaluated at   0.000000,   0.000000,   0.000000 Bohr
  ==> Properties <==


Properties computed using the SCF density matrix

  Nuclear Dipole Moment: (a.u.)
     X:     8.1471      Y:    -1.1987      Z:    -2.4328

  Electronic Dipole Moment: (a.u.)
     X:    -5.9009      Y:     1.7749      Z:     0.9865

  Dipole Moment: (a.u.)
     X:     2.2461      Y:     0.5761      Z:    -1.4463     Total:     2.7329

  Dipole Moment: (Debye)
     X:     5.7091      Y:     1.4643      Z:    -3.6762     Total:     6.9464


  Saving occupied orbitals to File 180.

*** tstop() called on cx1-3-4-2.cx1.hpc.ic.ac.uk at Tue Jul  5 18:03:27 2016
Module time:
	user time   =      25.12 seconds =       0.42 minutes
	system time =       0.25 seconds =       0.00 minutes
	total time  =         26 seconds =       0.43 minutes
Total time:
	user time   =      25.12 seconds =       0.42 minutes
	system time =       0.25 seconds =       0.00 minutes
	total time  =         26 seconds =       0.43 minutes


Properties will be evaluated at   0.000000,   0.000000,   0.000000 Bohr

Properties computed using the  density matrix

  Nuclear Dipole Moment: (a.u.)
     X:     8.1471      Y:    -1.1987      Z:    -2.4328

  Electronic Dipole Moment: (a.u.)
     X:    -5.9009      Y:     1.7749      Z:     0.9865

  Dipole Moment: (a.u.)
     X:     2.2461      Y:     0.5761      Z:    -1.4463     Total:     2.7329

  Dipole Moment: (Debye)
     X:     5.7091      Y:     1.4643      Z:    -3.6762     Total:     6.9464

  Quadrupole Moment: (Debye Ang)
    XX:   -64.7437     YY:   -53.0633     ZZ:   -57.9771
    XY:    -1.3325     XZ:     7.7106     YZ:     3.8286

  Traceless Quadrupole Moment: (Debye Ang)
    XX:    -6.1490     YY:     5.5314     ZZ:     0.6176
    XY:    -1.3325     XZ:     7.7106     YZ:     3.8286

  Mulliken Charges: (a.u.)
   Center  Symbol    Alpha    Beta     Spin     Total
       1     O     4.39500  4.39500  0.00000 -0.79000
       2     C     2.78082  2.78082  0.00000  0.43836
       3     C     3.45616  3.45616  0.00000 -0.91232
       4     O     4.30900  4.30900  0.00000 -0.61799
       5     H     0.40649  0.40649  0.00000  0.18703
       6     H     0.16230  0.16230  0.00000  0.67540
       7     H     0.40447  0.40447  0.00000  0.19106
       8     C     3.01728  3.01728  0.00000 -0.03456
       9     C     3.22875  3.22875  0.00000 -0.45750
      10     H     0.39484  0.39484  0.00000  0.21031
      11     H     0.40395  0.40395  0.00000  0.19209
      12     C     3.16349  3.16349  0.00000 -0.32699
      13     H     0.49772  0.49772  0.00000  0.00457
      14     H     0.40970  0.40970  0.00000  0.18059
      15     C     3.20025  3.20025  0.00000 -0.40049
      16     H     0.40494  0.40494  0.00000  0.19013
      17     H     0.40444  0.40444  0.00000  0.19111
      18     C     3.13797  3.13797  0.00000 -0.27594
      19     H     0.39841  0.39841  0.00000  0.20319
      20     H     0.40214  0.40214  0.00000  0.19572
      21     H     0.27692  0.27692  0.00000  0.44617
      22     H     0.36683  0.36683  0.00000  0.26634
      23     H     0.37814  0.37814  0.00000  0.24372

   Total alpha = 36.00000, Total beta = 36.00000, Total charge =  0.00000


*** PSI4 exiting successfully. Buy a developer a beer!
