    -----------------------------------------------------------------------
          Psi4: An Open-Source Ab Initio Electronic Structure Package
                              Psi4 (no tag) Driver

                          Git: Rev {detached?}  

    J. M. Turney, A. C. Simmonett, R. M. Parrish, E. G. Hohenstein,
    F. A. Evangelista, J. T. Fermann, B. J. Mintz, L. A. Burns, J. J. Wilke,
    M. L. Abrams, N. J. Russ, M. L. Leininger, C. L. Janssen, E. T. Seidl,
    W. D. Allen, H. F. Schaefer, R. A. King, E. F. Valeev, C. D. Sherrill,
    and T. D. Crawford, WIREs Comput. Mol. Sci. 2, 556-565 (2012)
    (doi: 10.1002/wcms.93)

                         Additional Contributions by
    A. E. DePrince, M. Saitow, U. Bozkaya, A. Yu. Sokolov
    -----------------------------------------------------------------------


    Psi4 started on: Tue Jul  5 16:43:34 2016

    Process ID:   3225
    PSI4DATADIR: /export131/home/mjharvey/miniconda3/share
    Memory level set to 256.000 MB

  ==> Input File <==

--------------------------------------------------------------------------
set {
	reference rhf
	basis 6-31G*
}


set_num_threads( 1 )
memory 2 gb

molecule MOL {
0 1

H	 2.682400	 -0.656981	 -0.446236
O	 2.569891	 -0.615414	 -1.385386
C	 2.081869	 -1.842755	 -1.857039
C	 0.920348	 -2.335415	 -1.012158
H	 1.776064	 -1.779717	 -2.897648
H	 2.897597	 -2.549387	 -1.796132
O	 -0.043959	 -1.331029	 -0.978982
H	 1.264339	 -2.570275	 -0.002955
H	 0.519358	 -3.251770	 -1.441209
C	 -0.381609	 -0.813417	 -2.226865
H	 0.366496	 -0.106062	 -2.579876
H	 -0.435693	 -1.641239	 -2.920182
H	 -1.346371	 -0.311084	 -2.200645

	symmetry c1
}
set optking {
	frozen_dihedral = ("
		8 4 3 5,
		1 2 3 5,
		10 7 4 8
	")
}

ee = energy('scf')
oeprop('DIPOLE', 'QUADRUPOLE', 'MULLIKEN_CHARGES')
f=open( 'psi4out.xyz', 'w' )
f.write( "13  " )
f.write( str(ee) + "\n" )
f.write( MOL.save_string_xyz() )
f.close()
--------------------------------------------------------------------------

  Memory set to   2.000 GiB by Python script.

*** tstart() called on cx1-49-4-2.cx1.hpc.ic.ac.uk
*** at Tue Jul  5 16:43:35 2016


         ---------------------------------------------------------
                                   SCF
            by Justin Turney, Rob Parrish, and Andy Simmonett
                              RHF Reference
                        1 Threads,   2000 MiB Core
         ---------------------------------------------------------

  ==> Geometry <==

    Molecular point group: c1
    Full point group: C1

    Geometry (in Angstrom), charge = 0, multiplicity = 1:

       Center              X                  Y                   Z               Mass       
    ------------   -----------------  -----------------  -----------------  -----------------
           H          1.635306629843     0.710489180492     1.044410277950     1.007825032070
           O          1.522797629843     0.752056180492     0.105260277950    15.994914619560
           C          1.034775629843    -0.475284819508    -0.366392722050    12.000000000000
           C         -0.126745370157    -0.967944819508     0.478488277950    12.000000000000
           H          0.728970629843    -0.412246819508    -1.407001722050     1.007825032070
           H          1.850503629843    -1.181916819508    -0.305485722050     1.007825032070
           O         -1.091052370157     0.036441180492     0.511664277950    15.994914619560
           H          0.217245629843    -1.202804819508     1.487691277950     1.007825032070
           H         -0.527735370157    -1.884299819508     0.049437277950     1.007825032070
           C         -1.428702370157     0.554053180492    -0.736218722050    12.000000000000
           H         -0.680597370157     1.261408180492    -1.089229722050     1.007825032070
           H         -1.482786370157    -0.273768819508    -1.429535722050     1.007825032070
           H         -2.393464370157     1.056386180492    -0.709998722050     1.007825032070

  Running in c1 symmetry.

  Rotational constants: A =      0.27808  B =      0.13059  C =      0.11190 [cm^-1]
  Rotational constants: A =   8336.74043  B =   3915.01539  C =   3354.65629 [MHz]
  Nuclear repulsion =  200.956883758087571

  Charge       = 0
  Multiplicity = 1
  Electrons    = 42
  Nalpha       = 21
  Nbeta        = 21

  ==> Algorithm <==

  SCF Algorithm Type is DF.
  DIIS enabled.
  MOM disabled.
  Fractional occupation disabled.
  Guess Type is CORE.
  Energy threshold   = 1.00e-06
  Density threshold  = 1.00e-06
  Integral threshold = 0.00e+00

  ==> Primary Basis <==

  Basis Set: 6-31G*
    Number of shells: 46
    Number of basis function: 91
    Number of Cartesian functions: 91
    Spherical Harmonics?: false
    Max angular momentum: 2

  ==> Pre-Iterations <==

   -------------------------------------------------------
    Irrep   Nso     Nmo     Nalpha   Nbeta   Ndocc  Nsocc
   -------------------------------------------------------
     A         91      91       0       0       0       0
   -------------------------------------------------------
    Total      91      91      21      21      21       0
   -------------------------------------------------------

 OEINTS: Overlap, kinetic, potential, dipole, and quadrupole integrals
         stored in file 35.

  ==> Integral Setup <==

  ==> DFJK: Density-Fitted J/K Matrices <==

    J tasked:                  Yes
    K tasked:                  Yes
    wK tasked:                  No
    OpenMP threads:              1
    Integrals threads:           1
    Memory (MB):              1430
    Algorithm:                Core
    Integral Cache:           NONE
    Schwarz Cutoff:          1E-12
    Fitting Condition:       1E-12

   => Auxiliary Basis Set <=

  Basis Set: 
    Number of shells: 192
    Number of basis function: 605
    Number of Cartesian functions: 605
    Spherical Harmonics?: false
    Max angular momentum: 3

  Minimum eigenvalue in the overlap matrix is 4.4758350939E-03.
  Using Symmetric Orthogonalization.
  SCF Guess: Core (One-Electron) Hamiltonian.

  ==> Iterations <==

                           Total Energy        Delta E     RMS |[F,P]|

   @DF-RHF iter   1:  -224.23980408296822   -2.24240e+02   7.95126e-02 
   @DF-RHF iter   2:  -183.89453614262166    4.03453e+01   7.24909e-02 DIIS
   @DF-RHF iter   3:  -248.14964711968165   -6.42551e+01   4.62850e-02 DIIS
   @DF-RHF iter   4:  -262.91397026793038   -1.47643e+01   3.07440e-02 DIIS
   @DF-RHF iter   5:  -267.62340028698645   -4.70943e+00   9.74078e-03 DIIS
   @DF-RHF iter   6:  -267.90580348189246   -2.82403e-01   2.60681e-03 DIIS
   @DF-RHF iter   7:  -267.92995323952846   -2.41498e-02   1.25587e-03 DIIS
   @DF-RHF iter   8:  -267.93617906215786   -6.22582e-03   3.90650e-04 DIIS
   @DF-RHF iter   9:  -267.93688985303140   -7.10791e-04   1.64521e-04 DIIS
   @DF-RHF iter  10:  -267.93701594677987   -1.26094e-04   4.67646e-05 DIIS
   @DF-RHF iter  11:  -267.93702731197595   -1.13652e-05   1.21153e-05 DIIS
   @DF-RHF iter  12:  -267.93702815824304   -8.46267e-07   3.35586e-06 DIIS
   @DF-RHF iter  13:  -267.93702824228149   -8.40384e-08   6.11082e-07 DIIS

  ==> Post-Iterations <==

    Orbital Energies (a.u.)
    -----------------------

    Doubly Occupied:                                                      

       1A    -20.556333     2A    -20.554687     3A    -11.277318  
       4A    -11.271756     5A    -11.262588     6A     -1.390902  
       7A     -1.356892     8A     -1.013190     9A     -0.935460  
      10A     -0.827459    11A     -0.699726    12A     -0.679603  
      13A     -0.672148    14A     -0.622672    15A     -0.607329  
      16A     -0.571453    17A     -0.535888    18A     -0.507045  
      19A     -0.467069    20A     -0.444956    21A     -0.407541  

    Virtual:                                                              

      22A      0.221650    23A      0.252595    24A      0.284725  
      25A      0.292817    26A      0.308989    27A      0.315370  
      28A      0.333189    29A      0.352010    30A      0.373304  
      31A      0.402821    32A      0.433360    33A      0.459248  
      34A      0.750607    35A      0.760556    36A      0.794184  
      37A      0.797924    38A      0.816292    39A      0.822737  
      40A      0.890410    41A      0.948343    42A      1.061623  
      43A      1.075081    44A      1.091876    45A      1.118235  
      46A      1.135436    47A      1.143158    48A      1.174036  
      49A      1.178502    50A      1.207536    51A      1.234307  
      52A      1.254451    53A      1.299391    54A      1.338324  
      55A      1.384990    56A      1.445254    57A      1.484142  
      58A      1.592287    59A      1.621748    60A      1.695536  
      61A      1.733515    62A      1.819809    63A      1.866211  
      64A      1.883672    65A      1.982767    66A      2.107082  
      67A      2.166119    68A      2.183212    69A      2.262387  
      70A      2.395127    71A      2.413700    72A      2.448556  
      73A      2.474619    74A      2.484722    75A      2.548601  
      76A      2.614497    77A      2.685063    78A      2.744672  
      79A      2.757836    80A      2.813842    81A      2.896785  
      82A      2.916614    83A      3.022416    84A      3.159173  
      85A      3.220494    86A      3.303964    87A      4.175834  
      88A      4.400197    89A      4.659911    90A      4.687361  
      91A      4.879558  

    Final Occupation by Irrep:
              A 
    DOCC [    21 ]

  Energy converged.

  @DF-RHF Final Energy:  -267.93702824228149

   => Energetics <=

    Nuclear Repulsion Energy =            200.9568837580875709
    One-Electron Energy =                -764.4638032043192197
    Two-Electron Energy =                 295.5698912039499078
    DFT Exchange-Correlation Energy =       0.0000000000000000
    Empirical Dispersion Energy =           0.0000000000000000
    PCM Polarization Energy =               0.0000000000000000
    EFP Energy =                            0.0000000000000000
    Total Energy =                       -267.9370282422817695

    Alert: EFP and PCM quantities not currently incorporated into SCF psivars.

Properties will be evaluated at   0.000000,   0.000000,   0.000000 Bohr
  ==> Properties <==


Properties computed using the SCF density matrix

  Nuclear Dipole Moment: (a.u.)
     X:    -0.6097      Y:    -1.8025      Z:    -2.2092

  Electronic Dipole Moment: (a.u.)
     X:     0.7123      Y:     1.1073      Z:     2.1089

  Dipole Moment: (a.u.)
     X:     0.1026      Y:    -0.6952      Z:    -0.1003     Total:     0.7099

  Dipole Moment: (Debye)
     X:     0.2607      Y:    -1.7671      Z:    -0.2550     Total:     1.8043


  Saving occupied orbitals to File 180.

*** tstop() called on cx1-49-4-2.cx1.hpc.ic.ac.uk at Tue Jul  5 16:43:39 2016
Module time:
	user time   =       4.26 seconds =       0.07 minutes
	system time =       0.03 seconds =       0.00 minutes
	total time  =          4 seconds =       0.07 minutes
Total time:
	user time   =       4.26 seconds =       0.07 minutes
	system time =       0.03 seconds =       0.00 minutes
	total time  =          4 seconds =       0.07 minutes


Properties will be evaluated at   0.000000,   0.000000,   0.000000 Bohr

Properties computed using the  density matrix

  Nuclear Dipole Moment: (a.u.)
     X:    -0.6097      Y:    -1.8025      Z:    -2.2092

  Electronic Dipole Moment: (a.u.)
     X:     0.7123      Y:     1.1073      Z:     2.1089

  Dipole Moment: (a.u.)
     X:     0.1026      Y:    -0.6952      Z:    -0.1003     Total:     0.7099

  Dipole Moment: (Debye)
     X:     0.2607      Y:    -1.7671      Z:    -0.2550     Total:     1.8043

  Quadrupole Moment: (Debye Ang)
    XX:   -33.2292     YY:   -31.4769     ZZ:   -28.9688
    XY:    -2.7217     XZ:     5.0257     YZ:     0.0674

  Traceless Quadrupole Moment: (Debye Ang)
    XX:    -2.0043     YY:    -0.2519     ZZ:     2.2562
    XY:    -2.7217     XZ:     5.0257     YZ:     0.0674

  Mulliken Charges: (a.u.)
   Center  Symbol    Alpha    Beta     Spin     Total
       1     H     0.27889  0.27889  0.00000  0.44221
       2     O     4.36714  4.36714  0.00000 -0.73427
       3     C     3.01551  3.01551  0.00000 -0.03101
       4     C     3.01011  3.01011  0.00000 -0.02022
       5     H     0.41160  0.41160  0.00000  0.17680
       6     H     0.42451  0.42451  0.00000  0.15097
       7     O     4.29971  4.29971  0.00000 -0.59942
       8     H     0.41812  0.41812  0.00000  0.16376
       9     H     0.42706  0.42706  0.00000  0.14589
      10     C     3.09320  3.09320  0.00000 -0.18640
      11     H     0.41040  0.41040  0.00000  0.17921
      12     H     0.43294  0.43294  0.00000  0.13411
      13     H     0.41081  0.41081  0.00000  0.17838

   Total alpha = 21.00000, Total beta = 21.00000, Total charge = -0.00000


*** PSI4 exiting successfully. Buy a developer a beer!
