    -----------------------------------------------------------------------
          Psi4: An Open-Source Ab Initio Electronic Structure Package
                              Psi4 (no tag) Driver

                          Git: Rev {detached?}  

    J. M. Turney, A. C. Simmonett, R. M. Parrish, E. G. Hohenstein,
    F. A. Evangelista, J. T. Fermann, B. J. Mintz, L. A. Burns, J. J. Wilke,
    M. L. Abrams, N. J. Russ, M. L. Leininger, C. L. Janssen, E. T. Seidl,
    W. D. Allen, H. F. Schaefer, R. A. King, E. F. Valeev, C. D. Sherrill,
    and T. D. Crawford, WIREs Comput. Mol. Sci. 2, 556-565 (2012)
    (doi: 10.1002/wcms.93)

                         Additional Contributions by
    A. E. DePrince, M. Saitow, U. Bozkaya, A. Yu. Sokolov
    -----------------------------------------------------------------------


    Psi4 started on: Tue Jul  5 16:35:59 2016

    Process ID:  13345
    PSI4DATADIR: /export131/home/mjharvey/miniconda3/share
    Memory level set to 256.000 MB

  ==> Input File <==

--------------------------------------------------------------------------
set {
	reference rhf
	basis 6-31G*
}


set_num_threads( 1 )
memory 2 gb

molecule MOL {
0 1

H	 2.332609	 0.878551	 -1.051851
C	 2.357710	 0.000000	 -0.417167
C	 1.175432	 0.000000	 0.532082
H	 3.291263	 0.000000	 0.136880
H	 2.332609	 -0.878551	 -1.051851
O	 0.000000	 0.000000	 -0.221444
H	 1.206604	 0.877321	 1.177902
H	 1.206604	 -0.877321	 1.177902
C	 -1.175432	 0.000000	 0.532082
C	 -1.595426	 1.436988	 0.771927
H	 -1.012643	 -0.511685	 1.480462
H	 -1.959463	 -0.541899	 0.003510
H	 -0.820037	 1.972811	 1.307624
H	 -2.509144	 1.474378	 1.356913
H	 -1.768184	 1.942554	 -0.171399

	symmetry c1
}
ee = energy('scf')
oeprop('DIPOLE', 'QUADRUPOLE', 'MULLIKEN_CHARGES')
f=open( 'psi4out.xyz', 'w' )
f.write( "15  " )
f.write( str(ee) + "\n" )
f.write( MOL.save_string_xyz() )
f.close()
--------------------------------------------------------------------------

  Memory set to   2.000 GiB by Python script.

*** tstart() called on cx1-3-15-4.cx1.hpc.ic.ac.uk
*** at Tue Jul  5 16:35:59 2016


         ---------------------------------------------------------
                                   SCF
            by Justin Turney, Rob Parrish, and Andy Simmonett
                              RHF Reference
                        1 Threads,   2000 MiB Core
         ---------------------------------------------------------

  ==> Geometry <==

    Molecular point group: c1
    Full point group: C1

    Geometry (in Angstrom), charge = 0, multiplicity = 1:

       Center              X                  Y                   Z               Mass       
    ------------   -----------------  -----------------  -----------------  -----------------
           H          2.177821158967     0.586759153376    -1.293306417105     1.007825032070
           C          2.202922158967    -0.291791846624    -0.658622417105    12.000000000000
           C          1.020644158967    -0.291791846624     0.290626582895    12.000000000000
           H          3.136475158967    -0.291791846624    -0.104575417105     1.007825032070
           H          2.177821158967    -1.170342846624    -1.293306417105     1.007825032070
           O         -0.154787841033    -0.291791846624    -0.462899417105    15.994914619560
           H          1.051816158967     0.585529153376     0.936446582895     1.007825032070
           H          1.051816158967    -1.169112846624     0.936446582895     1.007825032070
           C         -1.330219841033    -0.291791846624     0.290626582895    12.000000000000
           C         -1.750213841033     1.145196153376     0.530471582895    12.000000000000
           H         -1.167430841033    -0.803476846624     1.239006582895     1.007825032070
           H         -2.114250841033    -0.833690846624    -0.237945417105     1.007825032070
           H         -0.974824841033     1.681019153376     1.066168582895     1.007825032070
           H         -2.663931841033     1.182586153376     1.115457582895     1.007825032070
           H         -1.922971841033     1.650762153376    -0.412854417105     1.007825032070

  Running in c1 symmetry.

  Rotational constants: A =      0.46182  B =      0.08372  C =      0.08026 [cm^-1]
  Rotational constants: A =  13845.16168  B =   2509.99757  C =   2406.00920 [MHz]
  Nuclear repulsion =  193.430687081738938

  Charge       = 0
  Multiplicity = 1
  Electrons    = 42
  Nalpha       = 21
  Nbeta        = 21

  ==> Algorithm <==

  SCF Algorithm Type is DF.
  DIIS enabled.
  MOM disabled.
  Fractional occupation disabled.
  Guess Type is CORE.
  Energy threshold   = 1.00e-06
  Density threshold  = 1.00e-06
  Integral threshold = 0.00e+00

  ==> Primary Basis <==

  Basis Set: 6-31G*
    Number of shells: 50
    Number of basis function: 95
    Number of Cartesian functions: 95
    Spherical Harmonics?: false
    Max angular momentum: 2

  ==> Pre-Iterations <==

   -------------------------------------------------------
    Irrep   Nso     Nmo     Nalpha   Nbeta   Ndocc  Nsocc
   -------------------------------------------------------
     A         95      95       0       0       0       0
   -------------------------------------------------------
    Total      95      95      21      21      21       0
   -------------------------------------------------------

 OEINTS: Overlap, kinetic, potential, dipole, and quadrupole integrals
         stored in file 35.

  ==> Integral Setup <==

  ==> DFJK: Density-Fitted J/K Matrices <==

    J tasked:                  Yes
    K tasked:                  Yes
    wK tasked:                  No
    OpenMP threads:              1
    Integrals threads:           1
    Memory (MB):              1430
    Algorithm:                Core
    Integral Cache:           NONE
    Schwarz Cutoff:          1E-12
    Fitting Condition:       1E-12

   => Auxiliary Basis Set <=

  Basis Set: 
    Number of shells: 210
    Number of basis function: 655
    Number of Cartesian functions: 655
    Spherical Harmonics?: false
    Max angular momentum: 3

  Minimum eigenvalue in the overlap matrix is 4.8603515764E-03.
  Using Symmetric Orthogonalization.
  SCF Guess: Core (One-Electron) Hamiltonian.

  ==> Iterations <==

                           Total Energy        Delta E     RMS |[F,P]|

   @DF-RHF iter   1:  -168.64315962713499   -1.68643e+02   8.42426e-02 
   @DF-RHF iter   2:  -169.36635095451936   -7.23191e-01   5.97237e-02 DIIS
   @DF-RHF iter   3:  -200.94363536289796   -3.15773e+01   6.06706e-02 DIIS
   @DF-RHF iter   4:  -228.20832825383548   -2.72647e+01   2.54302e-02 DIIS
   @DF-RHF iter   5:  -231.70024268962476   -3.49191e+00   9.42064e-03 DIIS
   @DF-RHF iter   6:  -232.09702142413278   -3.96779e-01   2.75067e-03 DIIS
   @DF-RHF iter   7:  -232.13768042608058   -4.06590e-02   6.06471e-04 DIIS
   @DF-RHF iter   8:  -232.14021195798921   -2.53153e-03   2.27827e-04 DIIS
   @DF-RHF iter   9:  -232.14049333581522   -2.81378e-04   6.77409e-05 DIIS
   @DF-RHF iter  10:  -232.14052389521089   -3.05594e-05   2.32217e-05 DIIS
   @DF-RHF iter  11:  -232.14052768114573   -3.78593e-06   5.67615e-06 DIIS
   @DF-RHF iter  12:  -232.14052791232410   -2.31178e-07   1.71621e-06 DIIS
   @DF-RHF iter  13:  -232.14052793265432   -2.03302e-08   3.76146e-07 DIIS

  ==> Post-Iterations <==

    Orbital Energies (a.u.)
    -----------------------

    Doubly Occupied:                                                      

       1A    -20.549566     2A    -11.268993     3A    -11.268168  
       4A    -11.209001     5A    -11.207551     6A     -1.378072  
       7A     -1.041425     8A     -0.984884     9A     -0.857775  
      10A     -0.818190    11A     -0.674357    12A     -0.650707  
      13A     -0.642723    14A     -0.571347    15A     -0.551151  
      16A     -0.542379    17A     -0.522587    18A     -0.503914  
      19A     -0.486608    20A     -0.460466    21A     -0.405574  

    Virtual:                                                              

      22A      0.235723    23A      0.261090    24A      0.279223  
      25A      0.293838    26A      0.317816    27A      0.322281  
      28A      0.326165    29A      0.340709    30A      0.346530  
      31A      0.360111    32A      0.388392    33A      0.412642  
      34A      0.434243    35A      0.457298    36A      0.707309  
      37A      0.734462    38A      0.755484    39A      0.763034  
      40A      0.785248    41A      0.787999    42A      0.846027  
      43A      0.875592    44A      0.923296    45A      0.952692  
      46A      0.971646    47A      1.051818    48A      1.103208  
      49A      1.125701    50A      1.137787    51A      1.167929  
      52A      1.181045    53A      1.189472    54A      1.198373  
      55A      1.216809    56A      1.231936    57A      1.251837  
      58A      1.274303    59A      1.321277    60A      1.402733  
      61A      1.429237    62A      1.582611    63A      1.636494  
      64A      1.696588    65A      1.746644    66A      1.759852  
      67A      1.868811    68A      1.981906    69A      2.018045  
      70A      2.128858    71A      2.196568    72A      2.229962  
      73A      2.274194    74A      2.285247    75A      2.326445  
      76A      2.437097    77A      2.476403    78A      2.504187  
      79A      2.563749    80A      2.586973    81A      2.650329  
      82A      2.655071    83A      2.689932    84A      2.774565  
      85A      2.808848    86A      2.876834    87A      2.995946  
      88A      3.046002    89A      3.198676    90A      3.350368  
      91A      4.394383    92A      4.619577    93A      4.624641  
      94A      4.817699    95A      4.890035  

    Final Occupation by Irrep:
              A 
    DOCC [    21 ]

  Energy converged.

  @DF-RHF Final Energy:  -232.14052793265432

   => Energetics <=

    Nuclear Repulsion Energy =            193.4306870817389381
    One-Electron Energy =                -697.9514829448401088
    Two-Electron Energy =                 272.3802679304479284
    DFT Exchange-Correlation Energy =       0.0000000000000000
    Empirical Dispersion Energy =           0.0000000000000000
    PCM Polarization Energy =               0.0000000000000000
    EFP Energy =                            0.0000000000000000
    Total Energy =                       -232.1405279326532423

    Alert: EFP and PCM quantities not currently incorporated into SCF psivars.

Properties will be evaluated at   0.000000,   0.000000,   0.000000 Bohr
  ==> Properties <==


Properties computed using the SCF density matrix

  Nuclear Dipole Moment: (a.u.)
     X:     0.7046      Y:     1.3282      Z:     1.8273

  Electronic Dipole Moment: (a.u.)
     X:    -0.6904      Y:    -1.3266      Z:    -1.3033

  Dipole Moment: (a.u.)
     X:     0.0141      Y:     0.0016      Z:     0.5240     Total:     0.5242

  Dipole Moment: (Debye)
     X:     0.0359      Y:     0.0040      Z:     1.3319     Total:     1.3324


  Saving occupied orbitals to File 180.

*** tstop() called on cx1-3-15-4.cx1.hpc.ic.ac.uk at Tue Jul  5 16:36:04 2016
Module time:
	user time   =       4.78 seconds =       0.08 minutes
	system time =       0.04 seconds =       0.00 minutes
	total time  =          5 seconds =       0.08 minutes
Total time:
	user time   =       4.78 seconds =       0.08 minutes
	system time =       0.04 seconds =       0.00 minutes
	total time  =          5 seconds =       0.08 minutes


Properties will be evaluated at   0.000000,   0.000000,   0.000000 Bohr

Properties computed using the  density matrix

  Nuclear Dipole Moment: (a.u.)
     X:     0.7046      Y:     1.3282      Z:     1.8273

  Electronic Dipole Moment: (a.u.)
     X:    -0.6904      Y:    -1.3266      Z:    -1.3033

  Dipole Moment: (a.u.)
     X:     0.0141      Y:     0.0016      Z:     0.5240     Total:     0.5242

  Dipole Moment: (Debye)
     X:     0.0359      Y:     0.0040      Z:     1.3319     Total:     1.3324

  Quadrupole Moment: (Debye Ang)
    XX:   -30.6605     YY:   -33.4242     ZZ:   -34.0172
    XY:     0.2249     XZ:    -0.0601     YZ:    -0.5754

  Traceless Quadrupole Moment: (Debye Ang)
    XX:     2.0401     YY:    -0.7235     ZZ:    -1.3166
    XY:     0.2249     XZ:    -0.0601     YZ:    -0.5754

  Mulliken Charges: (a.u.)
   Center  Symbol    Alpha    Beta     Spin     Total
       1     H     0.41341  0.41341  0.00000  0.17317
       2     C     3.24378  3.24378  0.00000 -0.48756
       3     C     2.99025  2.99025  0.00000  0.01950
       4     H     0.42263  0.42263  0.00000  0.15475
       5     H     0.41307  0.41307  0.00000  0.17386
       6     O     4.30778  4.30778  0.00000 -0.61555
       7     H     0.43280  0.43280  0.00000  0.13440
       8     H     0.43078  0.43078  0.00000  0.13843
       9     C     2.99692  2.99692  0.00000  0.00616
      10     C     3.24326  3.24326  0.00000 -0.48653
      11     H     0.43131  0.43131  0.00000  0.13737
      12     H     0.41636  0.41636  0.00000  0.16728
      13     H     0.41977  0.41977  0.00000  0.16046
      14     H     0.42489  0.42489  0.00000  0.15022
      15     H     0.41298  0.41298  0.00000  0.17404

   Total alpha = 21.00000, Total beta = 21.00000, Total charge =  0.00000


*** PSI4 exiting successfully. Buy a developer a beer!
