    -----------------------------------------------------------------------
          Psi4: An Open-Source Ab Initio Electronic Structure Package
                              Psi4 (no tag) Driver

                          Git: Rev {detached?}  

    J. M. Turney, A. C. Simmonett, R. M. Parrish, E. G. Hohenstein,
    F. A. Evangelista, J. T. Fermann, B. J. Mintz, L. A. Burns, J. J. Wilke,
    M. L. Abrams, N. J. Russ, M. L. Leininger, C. L. Janssen, E. T. Seidl,
    W. D. Allen, H. F. Schaefer, R. A. King, E. F. Valeev, C. D. Sherrill,
    and T. D. Crawford, WIREs Comput. Mol. Sci. 2, 556-565 (2012)
    (doi: 10.1002/wcms.93)

                         Additional Contributions by
    A. E. DePrince, M. Saitow, U. Bozkaya, A. Yu. Sokolov
    -----------------------------------------------------------------------


    Psi4 started on: Tue Jul  5 16:43:09 2016

    Process ID:  29893
    PSI4DATADIR: /export131/home/mjharvey/miniconda3/share
    Memory level set to 256.000 MB

  ==> Input File <==

--------------------------------------------------------------------------
set {
	reference rhf
	basis 6-31G*
}


set_num_threads( 1 )
memory 2 gb

molecule MOL {
0 1

H	 0.075655	 1.724700	 0.560390
N	 -0.456516	 0.876527	 0.541107
C	 0.411825	 -0.271767	 0.350028
H	 -1.096509	 0.942907	 -0.226429
C	 0.971803	 -0.268062	 -1.056935
H	 1.245876	 -0.313000	 1.051925
H	 -0.173567	 -1.175924	 0.486406
O	 -0.088814	 -0.446451	 -1.951562
H	 1.476952	 0.676258	 -1.258733
H	 1.695616	 -1.072886	 -1.164576
C	 -0.952239	 0.641544	 -2.042868
H	 -0.350958	 1.524050	 -2.214165
H	 -1.651101	 0.526750	 -2.869545
H	 -1.521813	 0.775163	 -1.125513

	symmetry c1
}
set optking {
	frozen_dihedral = ("
		8 5 3 6,
		6 3 2 4,
		5 8 11 13
	")
}

ee = energy('scf')
oeprop('DIPOLE', 'QUADRUPOLE', 'MULLIKEN_CHARGES')
f=open( 'psi4out.xyz', 'w' )
f.write( "14  " )
f.write( str(ee) + "\n" )
f.write( MOL.save_string_xyz() )
f.close()
--------------------------------------------------------------------------

  Memory set to   2.000 GiB by Python script.

*** tstart() called on cx1-3-6-4.cx1.hpc.ic.ac.uk
*** at Tue Jul  5 16:43:09 2016


         ---------------------------------------------------------
                                   SCF
            by Justin Turney, Rob Parrish, and Andy Simmonett
                              RHF Reference
                        1 Threads,   2000 MiB Core
         ---------------------------------------------------------

  ==> Geometry <==

    Molecular point group: c1
    Full point group: C1

    Geometry (in Angstrom), charge = 0, multiplicity = 1:

       Center              X                  Y                   Z               Mass       
    ------------   -----------------  -----------------  -----------------  -----------------
           H          0.114802317150     1.591621956157     1.405596951723     1.007825032070
           N         -0.417368682850     0.743448956157     1.386313951723    14.003074004780
           C          0.450972317150    -0.404845043843     1.195234951723    12.000000000000
           H         -1.057361682850     0.809828956157     0.618777951723     1.007825032070
           C          1.010950317150    -0.401140043843    -0.211728048277    12.000000000000
           H          1.285023317150    -0.446078043843     1.897131951723     1.007825032070
           H         -0.134419682850    -1.309002043843     1.331612951723     1.007825032070
           O         -0.049666682850    -0.579529043843    -1.106355048277    15.994914619560
           H          1.516099317150     0.543179956157    -0.413526048277     1.007825032070
           H          1.734763317150    -1.205964043843    -0.319369048277     1.007825032070
           C         -0.913091682850     0.508465956157    -1.197661048277    12.000000000000
           H         -0.311810682850     1.390971956157    -1.368958048277     1.007825032070
           H         -1.611953682850     0.393671956157    -2.024338048277     1.007825032070
           H         -1.482665682850     0.642084956157    -0.280306048277     1.007825032070

  Running in c1 symmetry.

  Rotational constants: A =      0.25586  B =      0.15396  C =      0.10850 [cm^-1]
  Rotational constants: A =   7670.40232  B =   4615.55361  C =   3252.61831 [MHz]
  Nuclear repulsion =  204.221977165492859

  Charge       = 0
  Multiplicity = 1
  Electrons    = 42
  Nalpha       = 21
  Nbeta        = 21

  ==> Algorithm <==

  SCF Algorithm Type is DF.
  DIIS enabled.
  MOM disabled.
  Fractional occupation disabled.
  Guess Type is CORE.
  Energy threshold   = 1.00e-06
  Density threshold  = 1.00e-06
  Integral threshold = 0.00e+00

  ==> Primary Basis <==

  Basis Set: 6-31G*
    Number of shells: 48
    Number of basis function: 93
    Number of Cartesian functions: 93
    Spherical Harmonics?: false
    Max angular momentum: 2

  ==> Pre-Iterations <==

   -------------------------------------------------------
    Irrep   Nso     Nmo     Nalpha   Nbeta   Ndocc  Nsocc
   -------------------------------------------------------
     A         93      93       0       0       0       0
   -------------------------------------------------------
    Total      93      93      21      21      21       0
   -------------------------------------------------------

 OEINTS: Overlap, kinetic, potential, dipole, and quadrupole integrals
         stored in file 35.

  ==> Integral Setup <==

  ==> DFJK: Density-Fitted J/K Matrices <==

    J tasked:                  Yes
    K tasked:                  Yes
    wK tasked:                  No
    OpenMP threads:              1
    Integrals threads:           1
    Memory (MB):              1430
    Algorithm:                Core
    Integral Cache:           NONE
    Schwarz Cutoff:          1E-12
    Fitting Condition:       1E-12

   => Auxiliary Basis Set <=

  Basis Set: 
    Number of shells: 201
    Number of basis function: 630
    Number of Cartesian functions: 630
    Spherical Harmonics?: false
    Max angular momentum: 3

  Minimum eigenvalue in the overlap matrix is 4.6804545858E-03.
  Using Symmetric Orthogonalization.
  SCF Guess: Core (One-Electron) Hamiltonian.

  ==> Iterations <==

                           Total Energy        Delta E     RMS |[F,P]|

   @DF-RHF iter   1:  -203.26913050981446   -2.03269e+02   7.89311e-02 
   @DF-RHF iter   2:  -178.98382332494086    2.42853e+01   7.79649e-02 DIIS
   @DF-RHF iter   3:  -232.53795364746955   -5.35541e+01   3.49046e-02 DIIS
   @DF-RHF iter   4:  -224.56606059721511    7.97189e+00   5.32876e-02 DIIS
   @DF-RHF iter   5:  -247.66488628700617   -2.30988e+01   9.29592e-03 DIIS
   @DF-RHF iter   6:  -247.97951851011365   -3.14632e-01   3.90826e-03 DIIS
   @DF-RHF iter   7:  -248.02957739395654   -5.00589e-02   2.13389e-03 DIIS
   @DF-RHF iter   8:  -248.05208655047952   -2.25092e-02   5.74803e-04 DIIS
   @DF-RHF iter   9:  -248.05408684177760   -2.00029e-03   1.69708e-04 DIIS
   @DF-RHF iter  10:  -248.05429689725477   -2.10055e-04   3.81463e-05 DIIS
   @DF-RHF iter  11:  -248.05430681117852   -9.91392e-06   1.34377e-05 DIIS
   @DF-RHF iter  12:  -248.05430791670702   -1.10553e-06   4.08571e-06 DIIS
   @DF-RHF iter  13:  -248.05430805048687   -1.33780e-07   7.31659e-07 DIIS

  ==> Post-Iterations <==

    Orbital Energies (a.u.)
    -----------------------

    Doubly Occupied:                                                      

       1A    -20.564593     2A    -15.521609     3A    -11.277988  
       4A    -11.270040     5A    -11.241941     6A     -1.393136  
       7A     -1.186337     8A     -1.019364     9A     -0.912285  
      10A     -0.837990    11A     -0.741208    12A     -0.675203  
      13A     -0.647273    14A     -0.615454    15A     -0.595238  
      16A     -0.564519    17A     -0.525234    18A     -0.517259  
      19A     -0.471391    20A     -0.433505    21A     -0.361229  

    Virtual:                                                              

      22A      0.225967    23A      0.270525    24A      0.277079  
      25A      0.291058    26A      0.303840    27A      0.320495  
      28A      0.332319    29A      0.334521    30A      0.342680  
      31A      0.416491    32A      0.430811    33A      0.451383  
      34A      0.528463    35A      0.751889    36A      0.753974  
      37A      0.774534    38A      0.793364    39A      0.811038  
      40A      0.835460    41A      0.861192    42A      0.904945  
      43A      0.951252    44A      1.038385    45A      1.077361  
      46A      1.098786    47A      1.105387    48A      1.129508  
      49A      1.149925    50A      1.174472    51A      1.177449  
      52A      1.216738    53A      1.228226    54A      1.230748  
      55A      1.255268    56A      1.326380    57A      1.371459  
      58A      1.427898    59A      1.519186    60A      1.593232  
      61A      1.660793    62A      1.715377    63A      1.765508  
      64A      1.798762    65A      1.870116    66A      1.934661  
      67A      2.001418    68A      2.025500    69A      2.216540  
      70A      2.240353    71A      2.343035    72A      2.364228  
      73A      2.372119    74A      2.440046    75A      2.468030  
      76A      2.500726    77A      2.514128    78A      2.581206  
      79A      2.669944    80A      2.714770    81A      2.778623  
      82A      2.815955    83A      2.895560    84A      2.946353  
      85A      3.023193    86A      3.104816    87A      3.135621  
      88A      3.293926    89A      4.303496    90A      4.428848  
      91A      4.650739    92A      4.760442    93A      4.895009  

    Final Occupation by Irrep:
              A 
    DOCC [    21 ]

  Energy converged.

  @DF-RHF Final Energy:  -248.05430805048687

   => Energetics <=

    Nuclear Repulsion Energy =            204.2219771654928593
    One-Electron Energy =                -741.8068915192643544
    Two-Electron Energy =                 289.5306063032840598
    DFT Exchange-Correlation Energy =       0.0000000000000000
    Empirical Dispersion Energy =           0.0000000000000000
    PCM Polarization Energy =               0.0000000000000000
    EFP Energy =                            0.0000000000000000
    Total Energy =                       -248.0543080504874638

    Alert: EFP and PCM quantities not currently incorporated into SCF psivars.

Properties will be evaluated at   0.000000,   0.000000,   0.000000 Bohr
  ==> Properties <==


Properties computed using the SCF density matrix

  Nuclear Dipole Moment: (a.u.)
     X:     0.0502      Y:     2.2547      Z:     0.7843

  Electronic Dipole Moment: (a.u.)
     X:     0.2875      Y:    -1.7194      Z:    -1.0735

  Dipole Moment: (a.u.)
     X:     0.3377      Y:     0.5352      Z:    -0.2892     Total:     0.6958

  Dipole Moment: (Debye)
     X:     0.8583      Y:     1.3604      Z:    -0.7350     Total:     1.7685


  Saving occupied orbitals to File 180.

*** tstop() called on cx1-3-6-4.cx1.hpc.ic.ac.uk at Tue Jul  5 16:43:14 2016
Module time:
	user time   =       4.91 seconds =       0.08 minutes
	system time =       0.05 seconds =       0.00 minutes
	total time  =          5 seconds =       0.08 minutes
Total time:
	user time   =       4.91 seconds =       0.08 minutes
	system time =       0.05 seconds =       0.00 minutes
	total time  =          5 seconds =       0.08 minutes


Properties will be evaluated at   0.000000,   0.000000,   0.000000 Bohr

Properties computed using the  density matrix

  Nuclear Dipole Moment: (a.u.)
     X:     0.0502      Y:     2.2547      Z:     0.7843

  Electronic Dipole Moment: (a.u.)
     X:     0.2875      Y:    -1.7194      Z:    -1.0735

  Dipole Moment: (a.u.)
     X:     0.3377      Y:     0.5352      Z:    -0.2892     Total:     0.6958

  Dipole Moment: (Debye)
     X:     0.8583      Y:     1.3604      Z:    -0.7350     Total:     1.7685

  Quadrupole Moment: (Debye Ang)
    XX:   -30.1514     YY:   -31.2118     ZZ:   -38.3542
    XY:    -0.5652     XZ:     3.8332     YZ:    -3.2234

  Traceless Quadrupole Moment: (Debye Ang)
    XX:     3.0877     YY:     2.0273     ZZ:    -5.1151
    XY:    -0.5652     XZ:     3.8332     YZ:    -3.2234

  Mulliken Charges: (a.u.)
   Center  Symbol    Alpha    Beta     Spin     Total
       1     H     0.33842  0.33842  0.00000  0.32316
       2     N     3.92655  3.92655  0.00000 -0.85309
       3     C     3.07525  3.07525  0.00000 -0.15051
       4     H     0.32060  0.32060  0.00000  0.35879
       5     C     3.00560  3.00560  0.00000 -0.01120
       6     H     0.42068  0.42068  0.00000  0.15863
       7     H     0.40959  0.40959  0.00000  0.18081
       8     O     4.30157  4.30157  0.00000 -0.60315
       9     H     0.43356  0.43356  0.00000  0.13288
      10     H     0.41412  0.41412  0.00000  0.17176
      11     C     3.08999  3.08999  0.00000 -0.17997
      12     H     0.42565  0.42565  0.00000  0.14869
      13     H     0.40711  0.40711  0.00000  0.18578
      14     H     0.43129  0.43129  0.00000  0.13742

   Total alpha = 21.00000, Total beta = 21.00000, Total charge = -0.00000


*** PSI4 exiting successfully. Buy a developer a beer!
