
    -----------------------------------------------------------------------
          Psi4: An Open-Source Ab Initio Electronic Structure Package
                               Psi4 1.1 release

                         Git: Rev {HEAD} add49b9 


    R. M. Parrish, L. A. Burns, D. G. A. Smith, A. C. Simmonett,
    A. E. DePrince III, E. G. Hohenstein, U. Bozkaya, A. Yu. Sokolov,
    R. Di Remigio, R. M. Richard, J. F. Gonthier, A. M. James,
    H. R. McAlexander, A. Kumar, M. Saitow, X. Wang, B. P. Pritchard,
    P. Verma, H. F. Schaefer III, K. Patkowski, R. A. King, E. F. Valeev,
    F. A. Evangelista, J. M. Turney, T. D. Crawford, and C. D. Sherrill,
    J. Chem. Theory Comput. in press (2017).
    (doi: 10.1021/acs.jctc.7b00174)

    -----------------------------------------------------------------------


    Psi4 started on: Friday, 11 August 2017 02:07PM

    Process ID:   7446
    PSIDATADIR: /home/raimis/opt/miniconda3/envs/htmd/share/psi4
    Memory:     500.0 MiB
    Threads:    1
    
  ==> Input File <==

--------------------------------------------------------------------------
set {
	reference rks
	basis cc-pvdz
}


set_num_threads( 8 )
memory 2 gb

molecule MOL {
0 1

O	 1.014300	 -0.002300	 0.060500
O	 2.462400	 -0.107500	 -0.002400
H	 0.973826	 0.475157	 0.911028
H	 2.655500	 0.713700	 0.488700

	symmetry c1
}
set optking { dynamic_level = 1 }
set optking {
	frozen_dihedral = ("
		3 1 2 4
	")
}

ee,wfn = optimize('b3lyp-d3', return_wfn=True)
oeprop( wfn, 'DIPOLE', 'QUADRUPOLE', 'MULLIKEN_CHARGES')
f=open( 'psi4out.xyz', 'w' )
f.write( "4  " )
f.write( str(ee) + "\n" )
f.write( MOL.save_string_xyz() )
f.close()
--------------------------------------------------------------------------
  Threads set to 8 by Python driver.

  Memory set to   1.863 GiB by Python driver.
gradient() will perform analytic gradient computation.

*** tstart() called on computer03
*** at Fri Aug 11 14:07:35 2017

   => Loading Basis Set <=

    Name: CC-PVDZ
    Role: ORBITAL
    Keyword: BASIS
    atoms 1-2 entry O          line   190 file /home/raimis/opt/miniconda3/envs/htmd/share/psi4/basis/cc-pvdz.gbs 
    atoms 3-4 entry H          line    20 file /home/raimis/opt/miniconda3/envs/htmd/share/psi4/basis/cc-pvdz.gbs 


         ---------------------------------------------------------
                                   SCF
            by Justin Turney, Rob Parrish, and Andy Simmonett
                              RKS Reference
                        8 Threads,   1907 MiB Core
         ---------------------------------------------------------

  ==> Geometry <==

    Molecular point group: c1
    Full point group: C1

    Geometry (in Angstrom), charge = 0, multiplicity = 1:

       Center              X                  Y                   Z               Mass       
    ------------   -----------------  -----------------  -----------------  -----------------
           O         -0.728573397596     0.014111525216    -0.008312012177    15.994914619560
           O          0.719526602404    -0.091088474784    -0.071212012177    15.994914619560
           H         -0.769047397596     0.491568525216     0.842215987823     1.007825032070
           H          0.912626602404     0.730111525216     0.419887987823     1.007825032070

  Running in c1 symmetry.

  Rotational constants: A =      9.46592  B =      0.91447  C =      0.84368 [cm^-1]
  Rotational constants: A = 283781.21077  B =  27415.00058  C =  25292.86594 [MHz]
  Nuclear repulsion =   36.878738205629638

  Charge       = 0
  Multiplicity = 1
  Electrons    = 18
  Nalpha       = 9
  Nbeta        = 9

  ==> Algorithm <==

  SCF Algorithm Type is DF.
  DIIS enabled.
  MOM disabled.
  Fractional occupation disabled.
  Guess Type is SAD.
  Energy threshold   = 1.00e-08
  Density threshold  = 1.00e-08
  Integral threshold = 0.00e+00

  ==> Primary Basis <==

  Basis Set: CC-PVDZ
    Blend: CC-PVDZ
    Number of shells: 18
    Number of basis function: 38
    Number of Cartesian functions: 40
    Spherical Harmonics?: true
    Max angular momentum: 2

  ==> DFT Potential <==

   => B3LYP Composite Functional <= 

    B3LYP Hybrid-GGA Exchange-Correlation Functional (VWN1-RPA)

    P.J. Stephens et. al., J. Phys. Chem., 98, 11623-11627, 1994

    Points   =           5000
    Deriv    =              1
    GGA      =           TRUE
    Meta     =          FALSE

    X_LRC        =          FALSE
    X_Hybrid     =           TRUE
    X_Alpha      =   2.000000E-01
    X_Omega      =   0.000000E+00
    C_LRC        =          FALSE
    C_Hybrid     =          FALSE
    C_Alpha      =   0.000000E+00
    C_Omega      =   0.000000E+00

   => Exchange Functionals <=

    0.8000    B3_X
    0.2000      HF 

   => Correlation Functionals <=

    0.1900 VWN3RPA_C
    0.8100   LYP_C

   => Molecular Quadrature <=

    Radial Scheme    =       TREUTLER
    Pruning Scheme   =           FLAT
    Nuclear Scheme   =       TREUTLER

    BS radius alpha  =              1
    Pruning alpha    =              1
    Radial Points    =             75
    Spherical Points =            302
    Total Points     =          88270
    Total Blocks     =             88
    Max Points       =           4581
    Max Functions    =             38

   => -D3ZERO: Empirical Dispersion <=

    Grimme's -D3 (zero-damping) Dispersion Correction
    Grimme S.; Antony J.; Ehrlich S.; Krieg H. (2010), J. Chem. Phys., 132: 154104

        S6 =   1.000000E+00
        S8 =   1.703000E+00
       SR6 =   1.261000E+00
    ALPHA6 =   1.400000E+01

   => Loading Basis Set <=

    Name: (CC-PVDZ AUX)
    Role: JKFIT
    Keyword: DF_BASIS_SCF
    atoms 1-2 entry O          line   220 file /home/raimis/opt/miniconda3/envs/htmd/share/psi4/basis/cc-pvdz-jkfit.gbs 
    atoms 3-4 entry H          line    50 file /home/raimis/opt/miniconda3/envs/htmd/share/psi4/basis/cc-pvdz-jkfit.gbs 

  ==> Pre-Iterations <==

   -------------------------------------------------------
    Irrep   Nso     Nmo     Nalpha   Nbeta   Ndocc  Nsocc
   -------------------------------------------------------
     A         38      38       0       0       0       0
   -------------------------------------------------------
    Total      38      38       9       9       9       0
   -------------------------------------------------------

  ==> Integral Setup <==

  ==> DFJK: Density-Fitted J/K Matrices <==

    J tasked:                  Yes
    K tasked:                  Yes
    wK tasked:                  No
    OpenMP threads:              8
    Integrals threads:           8
    Memory (MB):              1430
    Algorithm:                Core
    Integral Cache:           NONE
    Schwarz Cutoff:          1E-12
    Fitting Condition:       1E-12

   => Auxiliary Basis Set <=

  Basis Set: (CC-PVDZ AUX)
    Blend: CC-PVDZ-JKFIT
    Number of shells: 66
    Number of basis function: 186
    Number of Cartesian functions: 212
    Spherical Harmonics?: true
    Max angular momentum: 3

  Minimum eigenvalue in the overlap matrix is 2.4360940296E-02.
  Using Symmetric Orthogonalization.

  SCF Guess: Superposition of Atomic Densities via on-the-fly atomic UHF.

  ==> Iterations <==

                           Total Energy        Delta E     RMS |[F,P]|

   @DF-RKS iter   0:  -151.61460200319070   -1.51615e+02   6.44172e-02 
   @DF-RKS iter   1:  -151.50401550902544    1.10586e-01   1.23894e-02 
   @DF-RKS iter   2:  -151.50413194343361   -1.16434e-04   1.51437e-02 DIIS
   @DF-RKS iter   3:  -151.53651545253467   -3.23835e-02   1.63030e-03 DIIS
   @DF-RKS iter   4:  -151.53696524649351   -4.49794e-04   2.44390e-04 DIIS
   @DF-RKS iter   5:  -151.53696229618615    2.95031e-06   2.95791e-04 DIIS
   @DF-RKS iter   6:  -151.53697566109426   -1.33649e-05   1.20909e-05 DIIS
   @DF-RKS iter   7:  -151.53697571725871   -5.61645e-08   2.51794e-06 DIIS
   @DF-RKS iter   8:  -151.53697571879488   -1.53616e-09   3.29148e-07 DIIS
   @DF-RKS iter   9:  -151.53697571883293   -3.80567e-11   6.71980e-08 DIIS
   @DF-RKS iter  10:  -151.53697571883444   -1.50635e-12   9.65929e-09 DIIS

  ==> Post-Iterations <==

    Orbital Energies (a.u.)
    -----------------------

    Doubly Occupied:                                                      

       1A    -19.191949     2A    -19.191918     3A     -1.121267  
       4A     -0.887470     5A     -0.557549     6A     -0.427760  
       7A     -0.421391     8A     -0.354517     9A     -0.252372  

    Virtual:                                                              

      10A      0.014134    11A      0.020732    12A      0.128361  
      13A      0.554917    14A      0.572789    15A      0.863229  
      16A      0.865071    17A      0.914853    18A      0.925469  
      19A      1.002967    20A      1.044907    21A      1.173656  
      22A      1.277166    23A      1.299106    24A      1.562259  
      25A      1.582913    26A      1.780542    27A      2.023299  
      28A      2.092190    29A      2.335203    30A      2.379367  
      31A      2.628758    32A      2.880171    33A      2.902853  
      34A      3.002908    35A      3.165150    36A      3.473393  
      37A      3.559016    38A      3.821176  

    Final Occupation by Irrep:
              A 
    DOCC [     9 ]

  Energy converged.

  @DF-RKS Final Energy:  -151.53697571883444

   => Energetics <=

    Nuclear Repulsion Energy =             36.8787382056296380
    One-Electron Energy =                -281.6346010570082399
    Two-Electron Energy =                 107.6817308917310925
    DFT Exchange-Correlation Energy =     -14.4626606191869413
    Empirical Dispersion Energy =          -0.0001831400000000
    PCM Polarization Energy =               0.0000000000000000
    EFP Energy =                            0.0000000000000000
    Total Energy =                       -151.5369757188344408



Properties will be evaluated at   0.000000,   0.000000,   0.000000 Bohr

Properties computed using the SCF density matrix

  Nuclear Dipole Moment: (a.u.)
     X:     0.1346      Y:     1.1449      Z:     1.1828

  Electronic Dipole Moment: (a.u.)
     X:    -0.0370      Y:    -0.3147      Z:    -0.3251

  Dipole Moment: (a.u.)
     X:     0.0976      Y:     0.8303      Z:     0.8577     Total:     1.1977

  Dipole Moment: (Debye)
     X:     0.2480      Y:     2.1103      Z:     2.1801     Total:     3.0443


*** tstop() called on computer03 at Fri Aug 11 14:07:41 2017
Module time:
	user time   =      18.97 seconds =       0.32 minutes
	system time =       0.64 seconds =       0.01 minutes
	total time  =          6 seconds =       0.10 minutes
Total time:
	user time   =      18.97 seconds =       0.32 minutes
	system time =       0.64 seconds =       0.01 minutes
	total time  =          6 seconds =       0.10 minutes

*** tstart() called on computer03
*** at Fri Aug 11 14:07:41 2017


         ------------------------------------------------------------
                                   SCF GRAD                          
                          Rob Parrish, Justin Turney,                
                       Andy Simmonett, and Alex Sokolov              
         ------------------------------------------------------------

  ==> Geometry <==

    Molecular point group: c1
    Full point group: C1

    Geometry (in Angstrom), charge = 0, multiplicity = 1:

       Center              X                  Y                   Z               Mass       
    ------------   -----------------  -----------------  -----------------  -----------------
           O         -0.728573397596     0.014111525216    -0.008312012177    15.994914619560
           O          0.719526602404    -0.091088474784    -0.071212012177    15.994914619560
           H         -0.769047397596     0.491568525216     0.842215987823     1.007825032070
           H          0.912626602404     0.730111525216     0.419887987823     1.007825032070

  Nuclear repulsion =   36.878738205629638

  ==> Basis Set <==

  Basis Set: CC-PVDZ
    Blend: CC-PVDZ
    Number of shells: 18
    Number of basis function: 38
    Number of Cartesian functions: 40
    Spherical Harmonics?: true
    Max angular momentum: 2

  ==> DFJKGrad: Density-Fitted SCF Gradients <==

    Gradient:                    1
    J tasked:                  Yes
    K tasked:                  Yes
    wK tasked:                  No
    OpenMP threads:              8
    Integrals threads:           8
    Memory (MB):              1430
    Schwarz Cutoff:          0E+00
    Fitting Condition:       1E-12

   => Auxiliary Basis Set <=

  Basis Set: (CC-PVDZ AUX)
    Blend: CC-PVDZ-JKFIT
    Number of shells: 66
    Number of basis function: 186
    Number of Cartesian functions: 212
    Spherical Harmonics?: true
    Max angular momentum: 3

  ==> DFT Potential <==

   => B3LYP Composite Functional <= 

    B3LYP Hybrid-GGA Exchange-Correlation Functional (VWN1-RPA)

    P.J. Stephens et. al., J. Phys. Chem., 98, 11623-11627, 1994

    Points   =           5000
    Deriv    =              1
    GGA      =           TRUE
    Meta     =          FALSE

    X_LRC        =          FALSE
    X_Hybrid     =           TRUE
    X_Alpha      =   2.000000E-01
    X_Omega      =   0.000000E+00
    C_LRC        =          FALSE
    C_Hybrid     =          FALSE
    C_Alpha      =   0.000000E+00
    C_Omega      =   0.000000E+00

   => Exchange Functionals <=

    0.8000    B3_X
    0.2000      HF 

   => Correlation Functionals <=

    0.1900 VWN3RPA_C
    0.8100   LYP_C

   => Molecular Quadrature <=

    Radial Scheme    =       TREUTLER
    Pruning Scheme   =           FLAT
    Nuclear Scheme   =       TREUTLER

    BS radius alpha  =              1
    Pruning alpha    =              1
    Radial Points    =             75
    Spherical Points =            302
    Total Points     =          88270
    Total Blocks     =             88
    Max Points       =           4581
    Max Functions    =             38


  -Total Gradient:
     Atom            X                  Y                   Z
    ------   -----------------  -----------------  -----------------
       1        0.004353496786    -0.005515477992    -0.006082695123
       2       -0.005614905428    -0.005265844608    -0.005083591265
       3        0.017271067012     0.007554030045     0.001656411706
       4       -0.016008507967     0.003237109282     0.009520015519


*** tstop() called on computer03 at Fri Aug 11 14:07:42 2017
Module time:
	user time   =       4.66 seconds =       0.08 minutes
	system time =       0.23 seconds =       0.00 minutes
	total time  =          1 seconds =       0.02 minutes
Total time:
	user time   =      23.76 seconds =       0.40 minutes
	system time =       0.87 seconds =       0.01 minutes
	total time  =          7 seconds =       0.12 minutes

			-----------------------------------------
			 OPTKING 2.0: for geometry optimizations 
			  - R.A. King,  Bethel University        
			-----------------------------------------
	At level 1: Red. Int., RFO, no backsteps, dynamic trust

	Internal coordinates to be generated automatically.
	Detected frag 1 with atoms:  1 2 3 4
	---Fragment 1 Bond Connectivity---
	 1 : 2 3
	 2 : 1 4
	 3 : 1
	 4 : 2

	Assuming in current code that numbering for constraints corresponds to unified fragment.
	Frozen dihedral atom list: 
	     3     1     2     4
	---Fragment 1 Geometry and Gradient---
	 O          -1.3768041892        0.0266669180       -0.0157074266
	 O           1.3597082239       -0.1721322712       -0.1345712004
	 H          -1.4532889647        0.9289298882        1.5915575617
	 H           1.7246143401        1.3797108291        0.7934733035
	             0.0043534968       -0.0055154780       -0.0060826951
	            -0.0056149054       -0.0052658446       -0.0050835913
	             0.0172710670        0.0075540300        0.0016564117
	            -0.0160085080        0.0032371093        0.0095200155

	Previous optimization step data not found.  Starting new optimization.

	---Fragment 1 Intrafragment Coordinates---
	 - Coordinate -           - BOHR/RAD -       - ANG/DEG -
	 R(1,2)           =         2.746297	       1.453278
	 R(1,3)           =         1.844784	       0.976218
	 R(2,4)           =         1.844625	       0.976133
	 B(1,2,4)         =         1.685490	      96.571484
	 B(2,1,3)         =         1.685473	      96.570482
	*D(3,1,2,4)       =        -0.523599	     -29.999995

	Current energy   :      -151.5369757188

	Generating empirical Hessian (Schlegel '84) for each fragment.
	Taking RFO optimization step.
	Going to follow RFO solution 1.
	Using RFO vector 1.
	Norm of target step-size    0.26568
	Projected energy change by RFO approximation:        -0.0164781913

	Back-transformation to cartesian coordinates...
	Successfully converged to displaced geometry.

	Back-transformation to cartesian coordinates to adjust frozen coordinates...
	Successfully converged to displaced geometry.

	--- Internal Coordinate Step in ANG or DEG, aJ/ANG or AJ/DEG ---
	 ---------------------------------------------------------------------------
	   Coordinate                Previous        Force       Change         New 
	   ----------                --------       ------       ------       ------
	    1 R(1,2)          =      1.453278     0.177887     0.029214     1.482492
	    2 R(1,3)          =      0.976218    -0.036401    -0.004377     0.971841
	    3 R(2,4)          =      0.976133    -0.035778    -0.004301     0.971833
	    4 B(1,2,4)        =     96.571484     0.002415    10.491951   107.063435
	    5 B(2,1,3)        =     96.570482     0.002416    10.493944   107.064426
	    6 *D(3,1,2,4)     =    -29.999995     0.000000     0.000000   -29.999995
	 ---------------------------------------------------------------------------
	Successfully symmetrized geometry.

  ==> Convergence Check <==

  Measures of convergence in internal coordinates in au.
  Criteria marked as inactive (o), active & met (*), and active & unmet ( ).
  --------------------------------------------------------------------------------------------- ~
   Step     Total Energy     Delta E     MAX Force     RMS Force      MAX Disp      RMS Disp    ~
  --------------------------------------------------------------------------------------------- ~
    Convergence Criteria    1.00e-06 *    3.00e-04 *             o    1.20e-03 *             o  ~
  --------------------------------------------------------------------------------------------- ~
      1    -151.53697572   -1.52e+02      3.17e-02      2.05e-02 o    1.83e-01      1.08e-01 o  ~
  ---------------------------------------------------------------------------------------------

	Writing optimization data to binary file.
	Structure for next step:
	Cartesian Geometry (in Angstrom)
	    O    -0.7416087200   0.0084234195   0.0261580772
	    O     0.7357545807  -0.0581492124  -0.0775156889
	    H    -0.9487521002   0.4703365328   0.8557378631
	    H     1.0891386491   0.7240923609   0.3781996998
			--------------------------
			 OPTKING Finished Execution 
			--------------------------

    Structure for next step:
    Molecular point group: c1
    Full point group: C1

    Geometry (in Angstrom), charge = 0, multiplicity = 1:

    O           -0.743015805612    -0.003586866338     0.013744414505
    O            0.734347495133    -0.070159498226    -0.089929351588
    H           -0.950159185743     0.458326247003     0.843324200428
    H            1.087731563490     0.712082075047     0.365786037130

gradient() will perform analytic gradient computation.

*** tstart() called on computer03
*** at Fri Aug 11 14:07:42 2017

   => Loading Basis Set <=

    Name: CC-PVDZ
    Role: ORBITAL
    Keyword: BASIS
    atoms 1-2 entry O          line   190 file /home/raimis/opt/miniconda3/envs/htmd/share/psi4/basis/cc-pvdz.gbs 
    atoms 3-4 entry H          line    20 file /home/raimis/opt/miniconda3/envs/htmd/share/psi4/basis/cc-pvdz.gbs 


         ---------------------------------------------------------
                                   SCF
            by Justin Turney, Rob Parrish, and Andy Simmonett
                              RKS Reference
                        8 Threads,   1907 MiB Core
         ---------------------------------------------------------

  ==> Geometry <==

    Molecular point group: c1
    Full point group: C1

    Geometry (in Angstrom), charge = 0, multiplicity = 1:

       Center              X                  Y                   Z               Mass       
    ------------   -----------------  -----------------  -----------------  -----------------
           O         -0.743015805612    -0.003586866338     0.013744414505    15.994914619560
           O          0.734347495133    -0.070159498226    -0.089929351588    15.994914619560
           H         -0.950159185743     0.458326247003     0.843324200428     1.007825032070
           H          1.087731563490     0.712082075047     0.365786037130     1.007825032070

  Running in c1 symmetry.

  Rotational constants: A =     10.33610  B =      0.85067  C =      0.79368 [cm^-1]
  Rotational constants: A = 309868.52842  B =  25502.57788  C =  23793.85223 [MHz]
  Nuclear repulsion =   36.047950509554447

  Charge       = 0
  Multiplicity = 1
  Electrons    = 18
  Nalpha       = 9
  Nbeta        = 9

  ==> Algorithm <==

  SCF Algorithm Type is DF.
  DIIS enabled.
  MOM disabled.
  Fractional occupation disabled.
  Guess Type is READ.
  Energy threshold   = 1.00e-08
  Density threshold  = 1.00e-08
  Integral threshold = 0.00e+00

  ==> Primary Basis <==

  Basis Set: CC-PVDZ
    Blend: CC-PVDZ
    Number of shells: 18
    Number of basis function: 38
    Number of Cartesian functions: 40
    Spherical Harmonics?: true
    Max angular momentum: 2

  ==> DFT Potential <==

   => B3LYP Composite Functional <= 

    B3LYP Hybrid-GGA Exchange-Correlation Functional (VWN1-RPA)

    P.J. Stephens et. al., J. Phys. Chem., 98, 11623-11627, 1994

    Points   =           5000
    Deriv    =              1
    GGA      =           TRUE
    Meta     =          FALSE

    X_LRC        =          FALSE
    X_Hybrid     =           TRUE
    X_Alpha      =   2.000000E-01
    X_Omega      =   0.000000E+00
    C_LRC        =          FALSE
    C_Hybrid     =          FALSE
    C_Alpha      =   0.000000E+00
    C_Omega      =   0.000000E+00

   => Exchange Functionals <=

    0.8000    B3_X
    0.2000      HF 

   => Correlation Functionals <=

    0.1900 VWN3RPA_C
    0.8100   LYP_C

   => Molecular Quadrature <=

    Radial Scheme    =       TREUTLER
    Pruning Scheme   =           FLAT
    Nuclear Scheme   =       TREUTLER

    BS radius alpha  =              1
    Pruning alpha    =              1
    Radial Points    =             75
    Spherical Points =            302
    Total Points     =          88310
    Total Blocks     =             89
    Max Points       =           4575
    Max Functions    =             38

   => -D3ZERO: Empirical Dispersion <=

    Grimme's -D3 (zero-damping) Dispersion Correction
    Grimme S.; Antony J.; Ehrlich S.; Krieg H. (2010), J. Chem. Phys., 132: 154104

        S6 =   1.000000E+00
        S8 =   1.703000E+00
       SR6 =   1.261000E+00
    ALPHA6 =   1.400000E+01

   => Loading Basis Set <=

    Name: (CC-PVDZ AUX)
    Role: JKFIT
    Keyword: DF_BASIS_SCF
    atoms 1-2 entry O          line   220 file /home/raimis/opt/miniconda3/envs/htmd/share/psi4/basis/cc-pvdz-jkfit.gbs 
    atoms 3-4 entry H          line    50 file /home/raimis/opt/miniconda3/envs/htmd/share/psi4/basis/cc-pvdz-jkfit.gbs 

  Reading orbitals from file 180, no projection.

  ==> Pre-Iterations <==

   -------------------------------------------------------
    Irrep   Nso     Nmo     Nalpha   Nbeta   Ndocc  Nsocc
   -------------------------------------------------------
     A         38      38       0       0       0       0
   -------------------------------------------------------
    Total      38      38       9       9       9       0
   -------------------------------------------------------

  ==> Integral Setup <==

  ==> DFJK: Density-Fitted J/K Matrices <==

    J tasked:                  Yes
    K tasked:                  Yes
    wK tasked:                  No
    OpenMP threads:              8
    Integrals threads:           8
    Memory (MB):              1430
    Algorithm:                Core
    Integral Cache:           NONE
    Schwarz Cutoff:          1E-12
    Fitting Condition:       1E-12

   => Auxiliary Basis Set <=

  Basis Set: (CC-PVDZ AUX)
    Blend: CC-PVDZ-JKFIT
    Number of shells: 66
    Number of basis function: 186
    Number of Cartesian functions: 212
    Spherical Harmonics?: true
    Max angular momentum: 3

  Minimum eigenvalue in the overlap matrix is 2.6821392771E-02.
  Using Symmetric Orthogonalization.

  SCF Guess: Orbitals guess was supplied from a previous computation.

  ==> Iterations <==

                           Total Energy        Delta E     RMS |[F,P]|

   @DF-RKS iter   0:  -151.53223595415699   -1.51532e+02   5.18504e-03 
   @DF-RKS iter   1:  -151.53923576537781   -6.99981e-03   1.90945e-03 
   @DF-RKS iter   2:  -151.53958770968086   -3.51944e-04   1.14921e-03 DIIS
   @DF-RKS iter   3:  -151.53977590994270   -1.88200e-04   2.55124e-04 DIIS
   @DF-RKS iter   4:  -151.53979349594991   -1.75860e-05   3.60848e-05 DIIS
   @DF-RKS iter   5:  -151.53979386226933   -3.66319e-07   3.15974e-06 DIIS
   @DF-RKS iter   6:  -151.53979386116595    1.10339e-09   3.78526e-06 DIIS
   @DF-RKS iter   7:  -151.53979386679811   -5.63216e-09   2.68046e-07 DIIS
   @DF-RKS iter   8:  -151.53979386681311   -1.50067e-11   3.69478e-08 DIIS
   @DF-RKS iter   9:  -151.53979386681340   -2.84217e-13   4.01631e-09 DIIS

  ==> Post-Iterations <==

    Orbital Energies (a.u.)
    -----------------------

    Doubly Occupied:                                                      

       1A    -19.190936     2A    -19.190907     3A     -1.095995  
       4A     -0.900062     5A     -0.557949     6A     -0.411900  
       7A     -0.409355     8A     -0.351519     9A     -0.254601  

    Virtual:                                                              

      10A     -0.003836    11A      0.029294    12A      0.121334  
      13A      0.551680    14A      0.582054    15A      0.858106  
      16A      0.867253    17A      0.951631    18A      0.951701  
      19A      0.989751    20A      1.054359    21A      1.273246  
      22A      1.282377    23A      1.341989    24A      1.452051  
      25A      1.553251    26A      1.800131    27A      2.036327  
      28A      2.093814    29A      2.354370    30A      2.369868  
      31A      2.629028    32A      2.877509    33A      2.909820  
      34A      2.969509    35A      3.136637    36A      3.534111  
      37A      3.556294    38A      3.752241  

    Final Occupation by Irrep:
              A 
    DOCC [     9 ]

  Energy converged.

  @DF-RKS Final Energy:  -151.53979386681340

   => Energetics <=

    Nuclear Repulsion Energy =             36.0479505095544468
    One-Electron Energy =                -280.0733538601305099
    Two-Electron Energy =                 106.9345263549656551
    DFT Exchange-Correlation Energy =     -14.4485295812029779
    Empirical Dispersion Energy =          -0.0003872900000000
    PCM Polarization Energy =               0.0000000000000000
    EFP Energy =                            0.0000000000000000
    Total Energy =                       -151.5397938668133975



Properties will be evaluated at   0.000000,   0.000000,   0.000000 Bohr

Properties computed using the SCF density matrix

  Nuclear Dipole Moment: (a.u.)
     X:     0.1289      Y:     1.0969      Z:     1.1331

  Electronic Dipole Moment: (a.u.)
     X:    -0.0309      Y:    -0.2628      Z:    -0.2715

  Dipole Moment: (a.u.)
     X:     0.0980      Y:     0.8341      Z:     0.8617     Total:     1.2032

  Dipole Moment: (Debye)
     X:     0.2492      Y:     2.1201      Z:     2.1902     Total:     3.0584


*** tstop() called on computer03 at Fri Aug 11 14:07:47 2017
Module time:
	user time   =      15.00 seconds =       0.25 minutes
	system time =       0.51 seconds =       0.01 minutes
	total time  =          5 seconds =       0.08 minutes
Total time:
	user time   =      39.03 seconds =       0.65 minutes
	system time =       1.39 seconds =       0.02 minutes
	total time  =         12 seconds =       0.20 minutes

*** tstart() called on computer03
*** at Fri Aug 11 14:07:47 2017


         ------------------------------------------------------------
                                   SCF GRAD                          
                          Rob Parrish, Justin Turney,                
                       Andy Simmonett, and Alex Sokolov              
         ------------------------------------------------------------

  ==> Geometry <==

    Molecular point group: c1
    Full point group: C1

    Geometry (in Angstrom), charge = 0, multiplicity = 1:

       Center              X                  Y                   Z               Mass       
    ------------   -----------------  -----------------  -----------------  -----------------
           O         -0.743015805612    -0.003586866338     0.013744414505    15.994914619560
           O          0.734347495133    -0.070159498226    -0.089929351588    15.994914619560
           H         -0.950159185743     0.458326247003     0.843324200428     1.007825032070
           H          1.087731563490     0.712082075047     0.365786037130     1.007825032070

  Nuclear repulsion =   36.047950509554447

  ==> Basis Set <==

  Basis Set: CC-PVDZ
    Blend: CC-PVDZ
    Number of shells: 18
    Number of basis function: 38
    Number of Cartesian functions: 40
    Spherical Harmonics?: true
    Max angular momentum: 2

  ==> DFJKGrad: Density-Fitted SCF Gradients <==

    Gradient:                    1
    J tasked:                  Yes
    K tasked:                  Yes
    wK tasked:                  No
    OpenMP threads:              8
    Integrals threads:           8
    Memory (MB):              1430
    Schwarz Cutoff:          0E+00
    Fitting Condition:       1E-12

   => Auxiliary Basis Set <=

  Basis Set: (CC-PVDZ AUX)
    Blend: CC-PVDZ-JKFIT
    Number of shells: 66
    Number of basis function: 186
    Number of Cartesian functions: 212
    Spherical Harmonics?: true
    Max angular momentum: 3

  ==> DFT Potential <==

   => B3LYP Composite Functional <= 

    B3LYP Hybrid-GGA Exchange-Correlation Functional (VWN1-RPA)

    P.J. Stephens et. al., J. Phys. Chem., 98, 11623-11627, 1994

    Points   =           5000
    Deriv    =              1
    GGA      =           TRUE
    Meta     =          FALSE

    X_LRC        =          FALSE
    X_Hybrid     =           TRUE
    X_Alpha      =   2.000000E-01
    X_Omega      =   0.000000E+00
    C_LRC        =          FALSE
    C_Hybrid     =          FALSE
    C_Alpha      =   0.000000E+00
    C_Omega      =   0.000000E+00

   => Exchange Functionals <=

    0.8000    B3_X
    0.2000      HF 

   => Correlation Functionals <=

    0.1900 VWN3RPA_C
    0.8100   LYP_C

   => Molecular Quadrature <=

    Radial Scheme    =       TREUTLER
    Pruning Scheme   =           FLAT
    Nuclear Scheme   =       TREUTLER

    BS radius alpha  =              1
    Pruning alpha    =              1
    Radial Points    =             75
    Spherical Points =            302
    Total Points     =          88310
    Total Blocks     =             89
    Max Points       =           4575
    Max Functions    =             38


  -Total Gradient:
     Atom            X                  Y                   Z
    ------   -----------------  -----------------  -----------------
       1       -0.012472700858    -0.002975103790     0.010569325299
       2        0.013208710842     0.009204090139    -0.004136936201
       3       -0.006292263172     0.000984957073    -0.006500472945
       4        0.005556876501    -0.007208620553     0.000073585126


*** tstop() called on computer03 at Fri Aug 11 14:07:48 2017
Module time:
	user time   =       5.10 seconds =       0.09 minutes
	system time =       0.23 seconds =       0.00 minutes
	total time  =          1 seconds =       0.02 minutes
Total time:
	user time   =      44.18 seconds =       0.74 minutes
	system time =       1.62 seconds =       0.03 minutes
	total time  =         13 seconds =       0.22 minutes

			-----------------------------------------
			 OPTKING 2.0: for geometry optimizations 
			  - R.A. King,  Bethel University        
			-----------------------------------------
	At level 1: Red. Int., RFO, no backsteps, dynamic trust

	Previous internal coordinate definitions found.
	---Fragment 1 Geometry and Gradient---
	 O          -1.4040963850       -0.0067781951        0.0259731793
	 O           1.3877156522       -0.1325822373       -0.1699418458
	 H          -1.7955406437        0.8661110863        1.5936517800
	 H           2.0555147611        1.3456401060        0.6912354334
	            -0.0124727009       -0.0029751038        0.0105693253
	             0.0132087108        0.0092040901       -0.0041369362
	            -0.0062922632        0.0009849571       -0.0065004729
	             0.0055568765       -0.0072086206        0.0000735851

	---Fragment 1 Intrafragment Coordinates---
	 - Coordinate -           - BOHR/RAD -       - ANG/DEG -
	 R(1,2)           =         2.801504	       1.482492
	 R(1,3)           =         1.836513	       0.971841
	 R(2,4)           =         1.836498	       0.971833
	 B(1,2,4)         =         1.868609	     107.063435
	 B(2,1,3)         =         1.868627	     107.064426
	*D(3,1,2,4)       =        -0.523599	     -29.999995

	Current energy   :      -151.5397938668

	Energy change for the previous step:
		Projected    :        -0.0164781913
		Actual       :        -0.0028181480
	Energy ratio indicates iffy step: Trust radius decreased to 1.250e-01.


	Performing BFGS update.
	Previous computed or guess Hessian on step 1.
	Steps to be used in Hessian update: 1
	Taking RFO optimization step.
	Going to follow RFO solution 1.
	Using RFO vector 1.
	Norm of target step-size    0.07881
	Projected energy change by RFO approximation:        -0.0033518778

	Back-transformation to cartesian coordinates...
	Successfully converged to displaced geometry.

	Back-transformation to cartesian coordinates to adjust frozen coordinates...
	Successfully converged to displaced geometry.

	--- Internal Coordinate Step in ANG or DEG, aJ/ANG or AJ/DEG ---
	 ---------------------------------------------------------------------------
	   Coordinate                Previous        Force       Change         New 
	   ----------                --------       ------       ------       ------
	    1 R(1,2)          =      1.482492    -0.155674    -0.017474     1.465018
	    2 R(1,3)          =      0.971841     0.030825     0.002524     0.974365
	    3 R(2,4)          =      0.971833     0.030888     0.002529     0.974362
	    4 B(1,2,4)        =    107.063435    -0.001017    -2.887476   104.175959
	    5 B(2,1,3)        =    107.064426    -0.001017    -2.888278   104.176148
	    6 *D(3,1,2,4)     =    -29.999995    -0.000000     0.000000   -29.999995
	 ---------------------------------------------------------------------------
	Successfully symmetrized geometry.

  ==> Convergence Check <==

  Measures of convergence in internal coordinates in au.
  Criteria marked as inactive (o), active & met (*), and active & unmet ( ).
  ---------------------------------------------------------------------------------------------
   Step     Total Energy     Delta E     MAX Force     RMS Force      MAX Disp      RMS Disp   
  ---------------------------------------------------------------------------------------------
    Convergence Criteria    1.00e-06 *    3.00e-04 *             o    1.20e-03 *             o
  ---------------------------------------------------------------------------------------------
      2    -151.53979387   -2.82e-03      1.89e-02      1.11e-02 o    5.04e-02      3.22e-02 o  ~
  ---------------------------------------------------------------------------------------------

	Writing optimization data to binary file.
	Structure for next step:
	Cartesian Geometry (in Angstrom)
	    O    -0.7350144096  -0.0034664756   0.0021698107
	    O     0.7251093566  -0.0807506836  -0.0891702117
	    H    -0.8971532660   0.4659182970   0.8404866600
	    H     1.0359623862   0.7149608198   0.3794390415
			--------------------------
			 OPTKING Finished Execution 
			--------------------------

    Structure for next step:
    Molecular point group: c1
    Full point group: C1

    Geometry (in Angstrom), charge = 0, multiplicity = 1:

    O           -0.734469345361     0.001148272957     0.006936463888
    O            0.725654420862    -0.076135935007    -0.084403558495
    H           -0.896608201815     0.470533045557     0.845253313225
    H            1.036507450448     0.719575568374     0.384205694667

gradient() will perform analytic gradient computation.

*** tstart() called on computer03
*** at Fri Aug 11 14:07:48 2017

   => Loading Basis Set <=

    Name: CC-PVDZ
    Role: ORBITAL
    Keyword: BASIS
    atoms 1-2 entry O          line   190 file /home/raimis/opt/miniconda3/envs/htmd/share/psi4/basis/cc-pvdz.gbs 
    atoms 3-4 entry H          line    20 file /home/raimis/opt/miniconda3/envs/htmd/share/psi4/basis/cc-pvdz.gbs 


         ---------------------------------------------------------
                                   SCF
            by Justin Turney, Rob Parrish, and Andy Simmonett
                              RKS Reference
                        8 Threads,   1907 MiB Core
         ---------------------------------------------------------

  ==> Geometry <==

    Molecular point group: c1
    Full point group: C1

    Geometry (in Angstrom), charge = 0, multiplicity = 1:

       Center              X                  Y                   Z               Mass       
    ------------   -----------------  -----------------  -----------------  -----------------
           O         -0.734469345361     0.001148272957     0.006936463888    15.994914619560
           O          0.725654420862    -0.076135935007    -0.084403558495    15.994914619560
           H         -0.896608201815     0.470533045557     0.845253313225     1.007825032070
           H          1.036507450448     0.719575568374     0.384205694667     1.007825032070

  Running in c1 symmetry.

  Rotational constants: A =      9.99098  B =      0.87863  C =      0.81609 [cm^-1]
  Rotational constants: A = 299521.97811  B =  26340.73153  C =  24465.65840 [MHz]
  Nuclear repulsion =   36.417523882227940

  Charge       = 0
  Multiplicity = 1
  Electrons    = 18
  Nalpha       = 9
  Nbeta        = 9

  ==> Algorithm <==

  SCF Algorithm Type is DF.
  DIIS enabled.
  MOM disabled.
  Fractional occupation disabled.
  Guess Type is READ.
  Energy threshold   = 1.00e-08
  Density threshold  = 1.00e-08
  Integral threshold = 0.00e+00

  ==> Primary Basis <==

  Basis Set: CC-PVDZ
    Blend: CC-PVDZ
    Number of shells: 18
    Number of basis function: 38
    Number of Cartesian functions: 40
    Spherical Harmonics?: true
    Max angular momentum: 2

  ==> DFT Potential <==

   => B3LYP Composite Functional <= 

    B3LYP Hybrid-GGA Exchange-Correlation Functional (VWN1-RPA)

    P.J. Stephens et. al., J. Phys. Chem., 98, 11623-11627, 1994

    Points   =           5000
    Deriv    =              1
    GGA      =           TRUE
    Meta     =          FALSE

    X_LRC        =          FALSE
    X_Hybrid     =           TRUE
    X_Alpha      =   2.000000E-01
    X_Omega      =   0.000000E+00
    C_LRC        =          FALSE
    C_Hybrid     =          FALSE
    C_Alpha      =   0.000000E+00
    C_Omega      =   0.000000E+00

   => Exchange Functionals <=

    0.8000    B3_X
    0.2000      HF 

   => Correlation Functionals <=

    0.1900 VWN3RPA_C
    0.8100   LYP_C

   => Molecular Quadrature <=

    Radial Scheme    =       TREUTLER
    Pruning Scheme   =           FLAT
    Nuclear Scheme   =       TREUTLER

    BS radius alpha  =              1
    Pruning alpha    =              1
    Radial Points    =             75
    Spherical Points =            302
    Total Points     =          88300
    Total Blocks     =             88
    Max Points       =           4574
    Max Functions    =             38

   => -D3ZERO: Empirical Dispersion <=

    Grimme's -D3 (zero-damping) Dispersion Correction
    Grimme S.; Antony J.; Ehrlich S.; Krieg H. (2010), J. Chem. Phys., 132: 154104

        S6 =   1.000000E+00
        S8 =   1.703000E+00
       SR6 =   1.261000E+00
    ALPHA6 =   1.400000E+01

   => Loading Basis Set <=

    Name: (CC-PVDZ AUX)
    Role: JKFIT
    Keyword: DF_BASIS_SCF
    atoms 1-2 entry O          line   220 file /home/raimis/opt/miniconda3/envs/htmd/share/psi4/basis/cc-pvdz-jkfit.gbs 
    atoms 3-4 entry H          line    50 file /home/raimis/opt/miniconda3/envs/htmd/share/psi4/basis/cc-pvdz-jkfit.gbs 

  Reading orbitals from file 180, no projection.

  ==> Pre-Iterations <==

   -------------------------------------------------------
    Irrep   Nso     Nmo     Nalpha   Nbeta   Ndocc  Nsocc
   -------------------------------------------------------
     A         38      38       0       0       0       0
   -------------------------------------------------------
    Total      38      38       9       9       9       0
   -------------------------------------------------------

  ==> Integral Setup <==

  ==> DFJK: Density-Fitted J/K Matrices <==

    J tasked:                  Yes
    K tasked:                  Yes
    wK tasked:                  No
    OpenMP threads:              8
    Integrals threads:           8
    Memory (MB):              1430
    Algorithm:                Core
    Integral Cache:           NONE
    Schwarz Cutoff:          1E-12
    Fitting Condition:       1E-12

   => Auxiliary Basis Set <=

  Basis Set: (CC-PVDZ AUX)
    Blend: CC-PVDZ-JKFIT
    Number of shells: 66
    Number of basis function: 186
    Number of Cartesian functions: 212
    Spherical Harmonics?: true
    Max angular momentum: 3

  Minimum eigenvalue in the overlap matrix is 2.5575388899E-02.
  Using Symmetric Orthogonalization.

  SCF Guess: Orbitals guess was supplied from a previous computation.

  ==> Iterations <==

                           Total Energy        Delta E     RMS |[F,P]|

   @DF-RKS iter   0:  -151.54397760856094   -1.51544e+02   2.36297e-03 
   @DF-RKS iter   1:  -151.54089902340857    3.07859e-03   7.78710e-04 
   @DF-RKS iter   2:  -151.54095673509912   -5.77117e-05   2.26611e-04 DIIS
   @DF-RKS iter   3:  -151.54097542187642   -1.86868e-05   4.96169e-05 DIIS
   @DF-RKS iter   4:  -151.54097606970450   -6.47828e-07   1.31840e-05 DIIS
   @DF-RKS iter   5:  -151.54097610579475   -3.60903e-08   5.85160e-07 DIIS
   @DF-RKS iter   6:  -151.54097610588795   -9.31948e-11   7.91826e-07 DIIS
   @DF-RKS iter   7:  -151.54097610598234   -9.43885e-11   7.91442e-08 DIIS
   @DF-RKS iter   8:  -151.54097610598478   -2.44427e-12   8.87009e-09 DIIS

  ==> Post-Iterations <==

    Orbital Energies (a.u.)
    -----------------------

    Doubly Occupied:                                                      

       1A    -19.190668     2A    -19.190638     3A     -1.105672  
       4A     -0.894690     5A     -0.559078     6A     -0.417388  
       7A     -0.413272     8A     -0.352163     9A     -0.252502  

    Virtual:                                                              

      10A      0.008401    11A      0.024655    12A      0.124393  
      13A      0.555649    14A      0.577669    15A      0.860618  
      16A      0.867019    17A      0.941189    18A      0.941551  
      19A      0.991896    20A      1.049423    21A      1.259894  
      22A      1.277978    23A      1.326010    24A      1.479877  
      25A      1.561588    26A      1.792838    27A      2.032306  
      28A      2.090993    29A      2.338851    30A      2.376034  
      31A      2.621451    32A      2.876040    33A      2.913939  
      34A      2.985172    35A      3.159521    36A      3.515243  
      37A      3.553438    38A      3.783553  

    Final Occupation by Irrep:
              A 
    DOCC [     9 ]

  Energy converged.

  @DF-RKS Final Energy:  -151.54097610598478

   => Energetics <=

    Nuclear Repulsion Energy =             36.4175238822279397
    One-Electron Energy =                -280.7854089238022652
    Two-Electron Energy =                 107.2818008665887390
    DFT Exchange-Correlation Energy =     -14.4545820909992386
    Empirical Dispersion Energy =          -0.0003098400000000
    PCM Polarization Energy =               0.0000000000000000
    EFP Energy =                            0.0000000000000000
    Total Energy =                       -151.5409761059847824



Properties will be evaluated at   0.000000,   0.000000,   0.000000 Bohr

Properties computed using the SCF density matrix

  Nuclear Dipole Moment: (a.u.)
     X:     0.1311      Y:     1.1153      Z:     1.1522

  Electronic Dipole Moment: (a.u.)
     X:    -0.0327      Y:    -0.2785      Z:    -0.2877

  Dipole Moment: (a.u.)
     X:     0.0984      Y:     0.8368      Z:     0.8645     Total:     1.2072

  Dipole Moment: (Debye)
     X:     0.2500      Y:     2.1269      Z:     2.1973     Total:     3.0683


*** tstop() called on computer03 at Fri Aug 11 14:07:52 2017
Module time:
	user time   =      14.48 seconds =       0.24 minutes
	system time =       0.49 seconds =       0.01 minutes
	total time  =          4 seconds =       0.07 minutes
Total time:
	user time   =      58.79 seconds =       0.98 minutes
	system time =       2.11 seconds =       0.04 minutes
	total time  =         17 seconds =       0.28 minutes

*** tstart() called on computer03
*** at Fri Aug 11 14:07:52 2017


         ------------------------------------------------------------
                                   SCF GRAD                          
                          Rob Parrish, Justin Turney,                
                       Andy Simmonett, and Alex Sokolov              
         ------------------------------------------------------------

  ==> Geometry <==

    Molecular point group: c1
    Full point group: C1

    Geometry (in Angstrom), charge = 0, multiplicity = 1:

       Center              X                  Y                   Z               Mass       
    ------------   -----------------  -----------------  -----------------  -----------------
           O         -0.734469345361     0.001148272957     0.006936463888    15.994914619560
           O          0.725654420862    -0.076135935007    -0.084403558495    15.994914619560
           H         -0.896608201815     0.470533045557     0.845253313225     1.007825032070
           H          1.036507450448     0.719575568374     0.384205694667     1.007825032070

  Nuclear repulsion =   36.417523882227940

  ==> Basis Set <==

  Basis Set: CC-PVDZ
    Blend: CC-PVDZ
    Number of shells: 18
    Number of basis function: 38
    Number of Cartesian functions: 40
    Spherical Harmonics?: true
    Max angular momentum: 2

  ==> DFJKGrad: Density-Fitted SCF Gradients <==

    Gradient:                    1
    J tasked:                  Yes
    K tasked:                  Yes
    wK tasked:                  No
    OpenMP threads:              8
    Integrals threads:           8
    Memory (MB):              1430
    Schwarz Cutoff:          0E+00
    Fitting Condition:       1E-12

   => Auxiliary Basis Set <=

  Basis Set: (CC-PVDZ AUX)
    Blend: CC-PVDZ-JKFIT
    Number of shells: 66
    Number of basis function: 186
    Number of Cartesian functions: 212
    Spherical Harmonics?: true
    Max angular momentum: 3

  ==> DFT Potential <==

   => B3LYP Composite Functional <= 

    B3LYP Hybrid-GGA Exchange-Correlation Functional (VWN1-RPA)

    P.J. Stephens et. al., J. Phys. Chem., 98, 11623-11627, 1994

    Points   =           5000
    Deriv    =              1
    GGA      =           TRUE
    Meta     =          FALSE

    X_LRC        =          FALSE
    X_Hybrid     =           TRUE
    X_Alpha      =   2.000000E-01
    X_Omega      =   0.000000E+00
    C_LRC        =          FALSE
    C_Hybrid     =          FALSE
    C_Alpha      =   0.000000E+00
    C_Omega      =   0.000000E+00

   => Exchange Functionals <=

    0.8000    B3_X
    0.2000      HF 

   => Correlation Functionals <=

    0.1900 VWN3RPA_C
    0.8100   LYP_C

   => Molecular Quadrature <=

    Radial Scheme    =       TREUTLER
    Pruning Scheme   =           FLAT
    Nuclear Scheme   =       TREUTLER

    BS radius alpha  =              1
    Pruning alpha    =              1
    Radial Points    =             75
    Spherical Points =            302
    Total Points     =          88300
    Total Blocks     =             88
    Max Points       =           4574
    Max Functions    =             38


  -Total Gradient:
     Atom            X                  Y                   Z
    ------   -----------------  -----------------  -----------------
       1       -0.004363574146    -0.004924756428     0.004019831100
       2        0.004219482370     0.003691359234    -0.005294859982
       3       -0.000700758864     0.003942168114    -0.002499544154
       4        0.000843979491    -0.002716186077     0.003766913517


*** tstop() called on computer03 at Fri Aug 11 14:07:54 2017
Module time:
	user time   =       5.77 seconds =       0.10 minutes
	system time =       0.23 seconds =       0.00 minutes
	total time  =          2 seconds =       0.03 minutes
Total time:
	user time   =      64.65 seconds =       1.08 minutes
	system time =       2.35 seconds =       0.04 minutes
	total time  =         19 seconds =       0.32 minutes

			-----------------------------------------
			 OPTKING 2.0: for geometry optimizations 
			  - R.A. King,  Bethel University        
			-----------------------------------------
	At level 1: Red. Int., RFO, no backsteps, dynamic trust

	Previous internal coordinate definitions found.
	---Fragment 1 Geometry and Gradient---
	 O          -1.3879459157        0.0021699214        0.0131080171
	 O           1.3712881225       -0.1438760660       -0.1594996102
	 H          -1.6943439499        0.8891785926        1.5972972749
	 H           1.9587152160        1.3598007561        0.7260435416
	            -0.0043635741       -0.0049247564        0.0040198311
	             0.0042194824        0.0036913592       -0.0052948600
	            -0.0007007589        0.0039421681       -0.0024995442
	             0.0008439795       -0.0027161861        0.0037669135

	---Fragment 1 Intrafragment Coordinates---
	 - Coordinate -           - BOHR/RAD -       - ANG/DEG -
	 R(1,2)           =         2.768482	       1.465018
	 R(1,3)           =         1.841282	       0.974365
	 R(2,4)           =         1.841277	       0.974362
	 B(1,2,4)         =         1.818213	     104.175959
	 B(2,1,3)         =         1.818217	     104.176148
	*D(3,1,2,4)       =        -0.523599	     -29.999995

	Current energy   :      -151.5409761060

	Energy change for the previous step:
		Projected    :        -0.0033518778
		Actual       :        -0.0011822392

	Performing BFGS update.
	Previous computed or guess Hessian on step 1.
	Steps to be used in Hessian update: 2 1
	Taking RFO optimization step.
	Going to follow RFO solution 1.
	Using RFO vector 1.
	Norm of target step-size    0.01202
	Projected energy change by RFO approximation:        -0.0000845588

	Back-transformation to cartesian coordinates...
	Successfully converged to displaced geometry.

	Back-transformation to cartesian coordinates to adjust frozen coordinates...
	Successfully converged to displaced geometry.

	--- Internal Coordinate Step in ANG or DEG, aJ/ANG or AJ/DEG ---
	 ---------------------------------------------------------------------------
	   Coordinate                Previous        Force       Change         New 
	   ----------                --------       ------       ------       ------
	    1 R(1,2)          =      1.465018    -0.041933    -0.005899     1.459119
	    2 R(1,3)          =      0.974365     0.001087    -0.000042     0.974322
	    3 R(2,4)          =      0.974362     0.001106    -0.000038     0.974324
	    4 B(1,2,4)        =    104.175959    -0.000113    -0.182089   103.993870
	    5 B(2,1,3)        =    104.176148    -0.000113    -0.182263   103.993886
	    6 *D(3,1,2,4)     =    -29.999995     0.000000     0.000000   -29.999995
	 ---------------------------------------------------------------------------
	Successfully symmetrized geometry.

  ==> Convergence Check <==

  Measures of convergence in internal coordinates in au.
  Criteria marked as inactive (o), active & met (*), and active & unmet ( ).
  ---------------------------------------------------------------------------------------------
   Step     Total Energy     Delta E     MAX Force     RMS Force      MAX Disp      RMS Disp   
  ---------------------------------------------------------------------------------------------
    Convergence Criteria    1.00e-06 *    3.00e-04 *             o    1.20e-03 *             o
  ---------------------------------------------------------------------------------------------
      3    -151.54097611   -1.18e-03      5.09e-03      2.25e-03 o    1.11e-02      4.91e-03 o  ~
  ---------------------------------------------------------------------------------------------

	Writing optimization data to binary file.
	Structure for next step:
	Cartesian Geometry (in Angstrom)
	    O    -0.7315628197   0.0013140958   0.0059632555
	    O     0.7226895465  -0.0767807928  -0.0839243589
	    H    -0.8908999176   0.4710800045   0.8445549349
	    H     1.0308575150   0.7195076444   0.3853980817
			--------------------------
			 OPTKING Finished Execution 
			--------------------------

    Structure for next step:
    Molecular point group: c1
    Full point group: C1

    Geometry (in Angstrom), charge = 0, multiplicity = 1:

    O           -0.731537103926     0.001525218850     0.006180977860
    O            0.722715262266    -0.076569669800    -0.083706636487
    H           -0.890874201757     0.471291127516     0.844772657291
    H            1.030883230753     0.719718767481     0.385615804097

gradient() will perform analytic gradient computation.

*** tstart() called on computer03
*** at Fri Aug 11 14:07:54 2017

   => Loading Basis Set <=

    Name: CC-PVDZ
    Role: ORBITAL
    Keyword: BASIS
    atoms 1-2 entry O          line   190 file /home/raimis/opt/miniconda3/envs/htmd/share/psi4/basis/cc-pvdz.gbs 
    atoms 3-4 entry H          line    20 file /home/raimis/opt/miniconda3/envs/htmd/share/psi4/basis/cc-pvdz.gbs 


         ---------------------------------------------------------
                                   SCF
            by Justin Turney, Rob Parrish, and Andy Simmonett
                              RKS Reference
                        8 Threads,   1907 MiB Core
         ---------------------------------------------------------

  ==> Geometry <==

    Molecular point group: c1
    Full point group: C1

    Geometry (in Angstrom), charge = 0, multiplicity = 1:

       Center              X                  Y                   Z               Mass       
    ------------   -----------------  -----------------  -----------------  -----------------
           O         -0.731537103926     0.001525218850     0.006180977860    15.994914619560
           O          0.722715262266    -0.076569669800    -0.083706636487    15.994914619560
           H         -0.890874201757     0.471291127516     0.844772657291     1.007825032070
           H          1.030883230753     0.719718767481     0.385615804097     1.007825032070

  Running in c1 symmetry.

  Rotational constants: A =      9.97560  B =      0.88607  C =      0.82241 [cm^-1]
  Rotational constants: A = 299061.07266  B =  26563.69508  C =  24655.26881 [MHz]
  Nuclear repulsion =   36.529528530167966

  Charge       = 0
  Multiplicity = 1
  Electrons    = 18
  Nalpha       = 9
  Nbeta        = 9

  ==> Algorithm <==

  SCF Algorithm Type is DF.
  DIIS enabled.
  MOM disabled.
  Fractional occupation disabled.
  Guess Type is READ.
  Energy threshold   = 1.00e-08
  Density threshold  = 1.00e-08
  Integral threshold = 0.00e+00

  ==> Primary Basis <==

  Basis Set: CC-PVDZ
    Blend: CC-PVDZ
    Number of shells: 18
    Number of basis function: 38
    Number of Cartesian functions: 40
    Spherical Harmonics?: true
    Max angular momentum: 2

  ==> DFT Potential <==

   => B3LYP Composite Functional <= 

    B3LYP Hybrid-GGA Exchange-Correlation Functional (VWN1-RPA)

    P.J. Stephens et. al., J. Phys. Chem., 98, 11623-11627, 1994

    Points   =           5000
    Deriv    =              1
    GGA      =           TRUE
    Meta     =          FALSE

    X_LRC        =          FALSE
    X_Hybrid     =           TRUE
    X_Alpha      =   2.000000E-01
    X_Omega      =   0.000000E+00
    C_LRC        =          FALSE
    C_Hybrid     =          FALSE
    C_Alpha      =   0.000000E+00
    C_Omega      =   0.000000E+00

   => Exchange Functionals <=

    0.8000    B3_X
    0.2000      HF 

   => Correlation Functionals <=

    0.1900 VWN3RPA_C
    0.8100   LYP_C

   => Molecular Quadrature <=

    Radial Scheme    =       TREUTLER
    Pruning Scheme   =           FLAT
    Nuclear Scheme   =       TREUTLER

    BS radius alpha  =              1
    Pruning alpha    =              1
    Radial Points    =             75
    Spherical Points =            302
    Total Points     =          88298
    Total Blocks     =             88
    Max Points       =           4567
    Max Functions    =             38

   => -D3ZERO: Empirical Dispersion <=

    Grimme's -D3 (zero-damping) Dispersion Correction
    Grimme S.; Antony J.; Ehrlich S.; Krieg H. (2010), J. Chem. Phys., 132: 154104

        S6 =   1.000000E+00
        S8 =   1.703000E+00
       SR6 =   1.261000E+00
    ALPHA6 =   1.400000E+01

   => Loading Basis Set <=

    Name: (CC-PVDZ AUX)
    Role: JKFIT
    Keyword: DF_BASIS_SCF
    atoms 1-2 entry O          line   220 file /home/raimis/opt/miniconda3/envs/htmd/share/psi4/basis/cc-pvdz-jkfit.gbs 
    atoms 3-4 entry H          line    50 file /home/raimis/opt/miniconda3/envs/htmd/share/psi4/basis/cc-pvdz-jkfit.gbs 

  Reading orbitals from file 180, no projection.

  ==> Pre-Iterations <==

   -------------------------------------------------------
    Irrep   Nso     Nmo     Nalpha   Nbeta   Ndocc  Nsocc
   -------------------------------------------------------
     A         38      38       0       0       0       0
   -------------------------------------------------------
    Total      38      38       9       9       9       0
   -------------------------------------------------------

  ==> Integral Setup <==

  ==> DFJK: Density-Fitted J/K Matrices <==

    J tasked:                  Yes
    K tasked:                  Yes
    wK tasked:                  No
    OpenMP threads:              8
    Integrals threads:           8
    Memory (MB):              1430
    Algorithm:                Core
    Integral Cache:           NONE
    Schwarz Cutoff:          1E-12
    Fitting Condition:       1E-12

   => Auxiliary Basis Set <=

  Basis Set: (CC-PVDZ AUX)
    Blend: CC-PVDZ-JKFIT
    Number of shells: 66
    Number of basis function: 186
    Number of Cartesian functions: 212
    Spherical Harmonics?: true
    Max angular momentum: 3

  Minimum eigenvalue in the overlap matrix is 2.5265197511E-02.
  Using Symmetric Orthogonalization.

  SCF Guess: Orbitals guess was supplied from a previous computation.

  ==> Iterations <==

                           Total Energy        Delta E     RMS |[F,P]|

   @DF-RKS iter   0:  -151.54363684198466   -1.51544e+02   5.62591e-04 
   @DF-RKS iter   1:  -151.54101476888943    2.62207e-03   1.49311e-04 
   @DF-RKS iter   2:  -151.54101733528293   -2.56639e-06   6.91499e-05 DIIS
   @DF-RKS iter   3:  -151.54101828863631   -9.53353e-07   1.15191e-05 DIIS
   @DF-RKS iter   4:  -151.54101832589731   -3.72610e-08   1.37852e-06 DIIS
   @DF-RKS iter   5:  -151.54101832625702   -3.59705e-10   2.00454e-07 DIIS
   @DF-RKS iter   6:  -151.54101832625875   -1.73372e-12   2.21874e-07 DIIS
   @DF-RKS iter   7:  -151.54101832626648   -7.73070e-12   4.19996e-08 DIIS
   @DF-RKS iter   8:  -151.54101832626679   -3.12639e-13   1.24000e-09 DIIS

  ==> Post-Iterations <==

    Orbital Energies (a.u.)
    -----------------------

    Doubly Occupied:                                                      

       1A    -19.190318     2A    -19.190287     3A     -1.108232  
       4A     -0.893515     5A     -0.560333     6A     -0.418339  
       7A     -0.413899     8A     -0.351974     9A     -0.251639  

    Virtual:                                                              

      10A      0.011731    11A      0.024226    12A      0.125618  
      13A      0.555933    14A      0.577718    15A      0.861507  
      16A      0.867329    17A      0.939308    18A      0.940046  
      19A      0.991821    20A      1.049337    21A      1.257054  
      22A      1.278402    23A      1.324796    24A      1.484095  
      25A      1.563454    26A      1.793100    27A      2.032637  
      28A      2.091763    29A      2.334673    30A      2.379894  
      31A      2.618402    32A      2.875420    33A      2.914483  
      34A      2.992066    35A      3.165681    36A      3.516083  
      37A      3.552401    38A      3.790437  

    Final Occupation by Irrep:
              A 
    DOCC [     9 ]

  Energy converged.

  @DF-RKS Final Energy:  -151.54101832626679

   => Energetics <=

    Nuclear Repulsion Energy =             36.5295285301679655
    One-Electron Energy =                -281.0030648311951609
    Two-Electron Energy =                 107.3897236348268081
    DFT Exchange-Correlation Energy =     -14.4569055500664074
    Empirical Dispersion Energy =          -0.0003001100000000
    PCM Polarization Energy =               0.0000000000000000
    EFP Energy =                            0.0000000000000000
    Total Energy =                       -151.5410183262668227



Properties will be evaluated at   0.000000,   0.000000,   0.000000 Bohr

Properties computed using the SCF density matrix

  Nuclear Dipole Moment: (a.u.)
     X:     0.1312      Y:     1.1162      Z:     1.1531

  Electronic Dipole Moment: (a.u.)
     X:    -0.0328      Y:    -0.2794      Z:    -0.2887

  Dipole Moment: (a.u.)
     X:     0.0984      Y:     0.8368      Z:     0.8644     Total:     1.2071

  Dipole Moment: (Debye)
     X:     0.2500      Y:     2.1268      Z:     2.1971     Total:     3.0681


*** tstop() called on computer03 at Fri Aug 11 14:07:58 2017
Module time:
	user time   =      14.47 seconds =       0.24 minutes
	system time =       0.50 seconds =       0.01 minutes
	total time  =          4 seconds =       0.07 minutes
Total time:
	user time   =      79.24 seconds =       1.32 minutes
	system time =       2.86 seconds =       0.05 minutes
	total time  =         23 seconds =       0.38 minutes

*** tstart() called on computer03
*** at Fri Aug 11 14:07:58 2017


         ------------------------------------------------------------
                                   SCF GRAD                          
                          Rob Parrish, Justin Turney,                
                       Andy Simmonett, and Alex Sokolov              
         ------------------------------------------------------------

  ==> Geometry <==

    Molecular point group: c1
    Full point group: C1

    Geometry (in Angstrom), charge = 0, multiplicity = 1:

       Center              X                  Y                   Z               Mass       
    ------------   -----------------  -----------------  -----------------  -----------------
           O         -0.731537103926     0.001525218850     0.006180977860    15.994914619560
           O          0.722715262266    -0.076569669800    -0.083706636487    15.994914619560
           H         -0.890874201757     0.471291127516     0.844772657291     1.007825032070
           H          1.030883230753     0.719718767481     0.385615804097     1.007825032070

  Nuclear repulsion =   36.529528530167966

  ==> Basis Set <==

  Basis Set: CC-PVDZ
    Blend: CC-PVDZ
    Number of shells: 18
    Number of basis function: 38
    Number of Cartesian functions: 40
    Spherical Harmonics?: true
    Max angular momentum: 2

  ==> DFJKGrad: Density-Fitted SCF Gradients <==

    Gradient:                    1
    J tasked:                  Yes
    K tasked:                  Yes
    wK tasked:                  No
    OpenMP threads:              8
    Integrals threads:           8
    Memory (MB):              1430
    Schwarz Cutoff:          0E+00
    Fitting Condition:       1E-12

   => Auxiliary Basis Set <=

  Basis Set: (CC-PVDZ AUX)
    Blend: CC-PVDZ-JKFIT
    Number of shells: 66
    Number of basis function: 186
    Number of Cartesian functions: 212
    Spherical Harmonics?: true
    Max angular momentum: 3

  ==> DFT Potential <==

   => B3LYP Composite Functional <= 

    B3LYP Hybrid-GGA Exchange-Correlation Functional (VWN1-RPA)

    P.J. Stephens et. al., J. Phys. Chem., 98, 11623-11627, 1994

    Points   =           5000
    Deriv    =              1
    GGA      =           TRUE
    Meta     =          FALSE

    X_LRC        =          FALSE
    X_Hybrid     =           TRUE
    X_Alpha      =   2.000000E-01
    X_Omega      =   0.000000E+00
    C_LRC        =          FALSE
    C_Hybrid     =          FALSE
    C_Alpha      =   0.000000E+00
    C_Omega      =   0.000000E+00

   => Exchange Functionals <=

    0.8000    B3_X
    0.2000      HF 

   => Correlation Functionals <=

    0.1900 VWN3RPA_C
    0.8100   LYP_C

   => Molecular Quadrature <=

    Radial Scheme    =       TREUTLER
    Pruning Scheme   =           FLAT
    Nuclear Scheme   =       TREUTLER

    BS radius alpha  =              1
    Pruning alpha    =              1
    Radial Points    =             75
    Spherical Points =            302
    Total Points     =          88298
    Total Blocks     =             88
    Max Points       =           4567
    Max Functions    =             38


  -Total Gradient:
     Atom            X                  Y                   Z
    ------   -----------------  -----------------  -----------------
       1       -0.001472823822    -0.005160925519     0.003458961284
       2        0.001273638384     0.003467937439    -0.005207573924
       3       -0.000013840019     0.004151493048    -0.002320841247
       4        0.000212066845    -0.002466659131     0.004061030035


*** tstop() called on computer03 at Fri Aug 11 14:07:59 2017
Module time:
	user time   =       4.90 seconds =       0.08 minutes
	system time =       0.21 seconds =       0.00 minutes
	total time  =          1 seconds =       0.02 minutes
Total time:
	user time   =      84.31 seconds =       1.41 minutes
	system time =       3.08 seconds =       0.05 minutes
	total time  =         24 seconds =       0.40 minutes

			-----------------------------------------
			 OPTKING 2.0: for geometry optimizations 
			  - R.A. King,  Bethel University        
			-----------------------------------------
	At level 1: Red. Int., RFO, no backsteps, dynamic trust

	Previous internal coordinate definitions found.
	---Fragment 1 Geometry and Gradient---
	 O          -1.3824047825        0.0028822459        0.0116803554
	 O           1.3657339177       -0.1446957060       -0.1581826185
	 H          -1.6835082602        0.8906111599        1.5963889668
	 H           1.9480869811        1.3600713632        0.7287082623
	            -0.0014728238       -0.0051609255        0.0034589613
	             0.0012736384        0.0034679374       -0.0052075739
	            -0.0000138400        0.0041514930       -0.0023208412
	             0.0002120668       -0.0024666591        0.0040610300

	---Fragment 1 Intrafragment Coordinates---
	 - Coordinate -           - BOHR/RAD -       - ANG/DEG -
	 R(1,2)           =         2.757335	       1.459119
	 R(1,3)           =         1.841203	       0.974322
	 R(2,4)           =         1.841205	       0.974324
	 B(1,2,4)         =         1.815035	     103.993870
	 B(2,1,3)         =         1.815036	     103.993886
	*D(3,1,2,4)       =        -0.523599	     -29.999995

	Current energy   :      -151.5410183263

	Energy change for the previous step:
		Projected    :        -0.0000845588
		Actual       :        -0.0000422203

	Performing BFGS update.
	Previous computed or guess Hessian on step 1.
	Steps to be used in Hessian update: 3 2
	Taking RFO optimization step.
	Going to follow RFO solution 1.
	Using RFO vector 1.
	Norm of target step-size    0.00510
	Projected energy change by RFO approximation:        -0.0000071518

	Back-transformation to cartesian coordinates...
	Successfully converged to displaced geometry.

	Back-transformation to cartesian coordinates to adjust frozen coordinates...
	Successfully converged to displaced geometry.

	--- Internal Coordinate Step in ANG or DEG, aJ/ANG or AJ/DEG ---
	 ---------------------------------------------------------------------------
	   Coordinate                Previous        Force       Change         New 
	   ----------                --------       ------       ------       ------
	    1 R(1,2)          =      1.459119    -0.012334    -0.002697     1.456422
	    2 R(1,3)          =      0.974322    -0.000079    -0.000061     0.974262
	    3 R(2,4)          =      0.974324    -0.000087    -0.000061     0.974263
	    4 B(1,2,4)        =    103.993870    -0.000013     0.007536   104.001406
	    5 B(2,1,3)        =    103.993886    -0.000013     0.007509   104.001394
	    6 *D(3,1,2,4)     =    -29.999995     0.000000     0.000000   -29.999995
	 ---------------------------------------------------------------------------
	Successfully symmetrized geometry.

  ==> Convergence Check <==

  Measures of convergence in internal coordinates in au.
  Criteria marked as inactive (o), active & met (*), and active & unmet ( ).
  ---------------------------------------------------------------------------------------------
   Step     Total Energy     Delta E     MAX Force     RMS Force      MAX Disp      RMS Disp   
  ---------------------------------------------------------------------------------------------
    Convergence Criteria    1.00e-06 *    3.00e-04 *             o    1.20e-03 *             o
  ---------------------------------------------------------------------------------------------
      4    -151.54101833   -4.22e-05      1.50e-03      6.19e-04 o    5.10e-03      2.08e-03 o  ~
  ---------------------------------------------------------------------------------------------

	Writing optimization data to binary file.
	Structure for next step:
	Cartesian Geometry (in Angstrom)
	    O    -0.7301903538   0.0015796242   0.0060354828
	    O     0.7213755474  -0.0765638959  -0.0834990281
	    H    -0.8896888204   0.4713417296   0.8445283054
	    H     1.0296908140   0.7196079862   0.3857980427
			--------------------------
			 OPTKING Finished Execution 
			--------------------------

    Structure for next step:
    Molecular point group: c1
    Full point group: C1

    Geometry (in Angstrom), charge = 0, multiplicity = 1:

    O           -0.730193454417     0.001553101652     0.006008107862
    O            0.721372446788    -0.076590418446    -0.083526403044
    H           -0.889691921036     0.471315207088     0.844500930458
    H            1.029687713364     0.719581463668     0.385770667720

gradient() will perform analytic gradient computation.

*** tstart() called on computer03
*** at Fri Aug 11 14:07:59 2017

   => Loading Basis Set <=

    Name: CC-PVDZ
    Role: ORBITAL
    Keyword: BASIS
    atoms 1-2 entry O          line   190 file /home/raimis/opt/miniconda3/envs/htmd/share/psi4/basis/cc-pvdz.gbs 
    atoms 3-4 entry H          line    20 file /home/raimis/opt/miniconda3/envs/htmd/share/psi4/basis/cc-pvdz.gbs 


         ---------------------------------------------------------
                                   SCF
            by Justin Turney, Rob Parrish, and Andy Simmonett
                              RKS Reference
                        8 Threads,   1907 MiB Core
         ---------------------------------------------------------

  ==> Geometry <==

    Molecular point group: c1
    Full point group: C1

    Geometry (in Angstrom), charge = 0, multiplicity = 1:

       Center              X                  Y                   Z               Mass       
    ------------   -----------------  -----------------  -----------------  -----------------
           O         -0.730193454417     0.001553101652     0.006008107862    15.994914619560
           O          0.721372446788    -0.076590418446    -0.083526403044    15.994914619560
           H         -0.889691921036     0.471315207088     0.844500930458     1.007825032070
           H          1.029687713364     0.719581463668     0.385770667720     1.007825032070

  Running in c1 symmetry.

  Rotational constants: A =      9.97757  B =      0.88923  C =      0.82515 [cm^-1]
  Rotational constants: A = 299120.12862  B =  26658.58230  C =  24737.31446 [MHz]
  Nuclear repulsion =   36.578551644102852

  Charge       = 0
  Multiplicity = 1
  Electrons    = 18
  Nalpha       = 9
  Nbeta        = 9

  ==> Algorithm <==

  SCF Algorithm Type is DF.
  DIIS enabled.
  MOM disabled.
  Fractional occupation disabled.
  Guess Type is READ.
  Energy threshold   = 1.00e-08
  Density threshold  = 1.00e-08
  Integral threshold = 0.00e+00

  ==> Primary Basis <==

  Basis Set: CC-PVDZ
    Blend: CC-PVDZ
    Number of shells: 18
    Number of basis function: 38
    Number of Cartesian functions: 40
    Spherical Harmonics?: true
    Max angular momentum: 2

  ==> DFT Potential <==

   => B3LYP Composite Functional <= 

    B3LYP Hybrid-GGA Exchange-Correlation Functional (VWN1-RPA)

    P.J. Stephens et. al., J. Phys. Chem., 98, 11623-11627, 1994

    Points   =           5000
    Deriv    =              1
    GGA      =           TRUE
    Meta     =          FALSE

    X_LRC        =          FALSE
    X_Hybrid     =           TRUE
    X_Alpha      =   2.000000E-01
    X_Omega      =   0.000000E+00
    C_LRC        =          FALSE
    C_Hybrid     =          FALSE
    C_Alpha      =   0.000000E+00
    C_Omega      =   0.000000E+00

   => Exchange Functionals <=

    0.8000    B3_X
    0.2000      HF 

   => Correlation Functionals <=

    0.1900 VWN3RPA_C
    0.8100   LYP_C

   => Molecular Quadrature <=

    Radial Scheme    =       TREUTLER
    Pruning Scheme   =           FLAT
    Nuclear Scheme   =       TREUTLER

    BS radius alpha  =              1
    Pruning alpha    =              1
    Radial Points    =             75
    Spherical Points =            302
    Total Points     =          88298
    Total Blocks     =             88
    Max Points       =           4568
    Max Functions    =             38

   => -D3ZERO: Empirical Dispersion <=

    Grimme's -D3 (zero-damping) Dispersion Correction
    Grimme S.; Antony J.; Ehrlich S.; Krieg H. (2010), J. Chem. Phys., 132: 154104

        S6 =   1.000000E+00
        S8 =   1.703000E+00
       SR6 =   1.261000E+00
    ALPHA6 =   1.400000E+01

   => Loading Basis Set <=

    Name: (CC-PVDZ AUX)
    Role: JKFIT
    Keyword: DF_BASIS_SCF
    atoms 1-2 entry O          line   220 file /home/raimis/opt/miniconda3/envs/htmd/share/psi4/basis/cc-pvdz-jkfit.gbs 
    atoms 3-4 entry H          line    50 file /home/raimis/opt/miniconda3/envs/htmd/share/psi4/basis/cc-pvdz-jkfit.gbs 

  Reading orbitals from file 180, no projection.

  ==> Pre-Iterations <==

   -------------------------------------------------------
    Irrep   Nso     Nmo     Nalpha   Nbeta   Ndocc  Nsocc
   -------------------------------------------------------
     A         38      38       0       0       0       0
   -------------------------------------------------------
    Total      38      38       9       9       9       0
   -------------------------------------------------------

  ==> Integral Setup <==

  ==> DFJK: Density-Fitted J/K Matrices <==

    J tasked:                  Yes
    K tasked:                  Yes
    wK tasked:                  No
    OpenMP threads:              8
    Integrals threads:           8
    Memory (MB):              1430
    Algorithm:                Core
    Integral Cache:           NONE
    Schwarz Cutoff:          1E-12
    Fitting Condition:       1E-12

   => Auxiliary Basis Set <=

  Basis Set: (CC-PVDZ AUX)
    Blend: CC-PVDZ-JKFIT
    Number of shells: 66
    Number of basis function: 186
    Number of Cartesian functions: 212
    Spherical Harmonics?: true
    Max angular momentum: 3

  Minimum eigenvalue in the overlap matrix is 2.5134115637E-02.
  Using Symmetric Orthogonalization.

  SCF Guess: Orbitals guess was supplied from a previous computation.

  ==> Iterations <==

                           Total Energy        Delta E     RMS |[F,P]|

   @DF-RKS iter   0:  -151.54233515145808   -1.51542e+02   2.72047e-04 
   @DF-RKS iter   1:  -151.54102160144265    1.31355e-03   4.54342e-05 
   @DF-RKS iter   2:  -151.54102202746577   -4.26023e-07   3.72184e-05 DIIS
   @DF-RKS iter   3:  -151.54102218100564   -1.53540e-07   4.59721e-06 DIIS
   @DF-RKS iter   4:  -151.54102218633855   -5.33291e-09   4.97086e-07 DIIS
   @DF-RKS iter   5:  -151.54102218638224   -4.36842e-11   5.28694e-08 DIIS
   @DF-RKS iter   6:  -151.54102218638329   -1.05160e-12   1.79203e-08 DIIS
   @DF-RKS iter   7:  -151.54102218638326    2.84217e-14   1.54236e-08 DIIS
   @DF-RKS iter   8:  -151.54102218638312    1.42109e-13   1.05621e-09 DIIS

  ==> Post-Iterations <==

    Orbital Energies (a.u.)
    -----------------------

    Doubly Occupied:                                                      

       1A    -19.190131     2A    -19.190101     3A     -1.109305  
       4A     -0.893035     5A     -0.560987     6A     -0.418670  
       7A     -0.414109     8A     -0.351835     9A     -0.251221  

    Virtual:                                                              

      10A      0.013162    11A      0.024150    12A      0.126198  
      13A      0.555940    14A      0.577860    15A      0.861913  
      16A      0.867517    17A      0.938623    18A      0.939622  
      19A      0.991675    20A      1.049423    21A      1.256467  
      22A      1.278482    23A      1.324702    24A      1.485225  
      25A      1.564260    26A      1.793489    27A      2.032860  
      28A      2.092176    29A      2.332838    30A      2.381870  
      31A      2.616897    32A      2.875063    33A      2.914731  
      34A      2.995296    35A      3.168378    36A      3.517220  
      37A      3.551841    38A      3.793158  

    Final Occupation by Irrep:
              A 
    DOCC [     9 ]

  Energy converged.

  @DF-RKS Final Energy:  -151.54102218638312

   => Energetics <=

    Nuclear Repulsion Energy =             36.5785516441028520
    One-Electron Energy =                -281.0987201698500257
    Two-Electron Energy =                 107.4373986956232869
    DFT Exchange-Correlation Energy =     -14.4579549762591899
    Empirical Dispersion Energy =          -0.0002973800000000
    PCM Polarization Energy =               0.0000000000000000
    EFP Energy =                            0.0000000000000000
    Total Energy =                       -151.5410221863830884



Properties will be evaluated at   0.000000,   0.000000,   0.000000 Bohr

Properties computed using the SCF density matrix

  Nuclear Dipole Moment: (a.u.)
     X:     0.1312      Y:     1.1161      Z:     1.1530

  Electronic Dipole Moment: (a.u.)
     X:    -0.0328      Y:    -0.2794      Z:    -0.2886

  Dipole Moment: (a.u.)
     X:     0.0984      Y:     0.8367      Z:     0.8644     Total:     1.2070

  Dipole Moment: (Debye)
     X:     0.2500      Y:     2.1267      Z:     2.1970     Total:     3.0679


*** tstop() called on computer03 at Fri Aug 11 14:08:03 2017
Module time:
	user time   =      14.21 seconds =       0.24 minutes
	system time =       0.47 seconds =       0.01 minutes
	total time  =          4 seconds =       0.07 minutes
Total time:
	user time   =      98.63 seconds =       1.64 minutes
	system time =       3.55 seconds =       0.06 minutes
	total time  =         28 seconds =       0.47 minutes

*** tstart() called on computer03
*** at Fri Aug 11 14:08:03 2017


         ------------------------------------------------------------
                                   SCF GRAD                          
                          Rob Parrish, Justin Turney,                
                       Andy Simmonett, and Alex Sokolov              
         ------------------------------------------------------------

  ==> Geometry <==

    Molecular point group: c1
    Full point group: C1

    Geometry (in Angstrom), charge = 0, multiplicity = 1:

       Center              X                  Y                   Z               Mass       
    ------------   -----------------  -----------------  -----------------  -----------------
           O         -0.730193454417     0.001553101652     0.006008107862    15.994914619560
           O          0.721372446788    -0.076590418446    -0.083526403044    15.994914619560
           H         -0.889691921036     0.471315207088     0.844500930458     1.007825032070
           H          1.029687713364     0.719581463668     0.385770667720     1.007825032070

  Nuclear repulsion =   36.578551644102852

  ==> Basis Set <==

  Basis Set: CC-PVDZ
    Blend: CC-PVDZ
    Number of shells: 18
    Number of basis function: 38
    Number of Cartesian functions: 40
    Spherical Harmonics?: true
    Max angular momentum: 2

  ==> DFJKGrad: Density-Fitted SCF Gradients <==

    Gradient:                    1
    J tasked:                  Yes
    K tasked:                  Yes
    wK tasked:                  No
    OpenMP threads:              8
    Integrals threads:           8
    Memory (MB):              1430
    Schwarz Cutoff:          0E+00
    Fitting Condition:       1E-12

   => Auxiliary Basis Set <=

  Basis Set: (CC-PVDZ AUX)
    Blend: CC-PVDZ-JKFIT
    Number of shells: 66
    Number of basis function: 186
    Number of Cartesian functions: 212
    Spherical Harmonics?: true
    Max angular momentum: 3

  ==> DFT Potential <==

   => B3LYP Composite Functional <= 

    B3LYP Hybrid-GGA Exchange-Correlation Functional (VWN1-RPA)

    P.J. Stephens et. al., J. Phys. Chem., 98, 11623-11627, 1994

    Points   =           5000
    Deriv    =              1
    GGA      =           TRUE
    Meta     =          FALSE

    X_LRC        =          FALSE
    X_Hybrid     =           TRUE
    X_Alpha      =   2.000000E-01
    X_Omega      =   0.000000E+00
    C_LRC        =          FALSE
    C_Hybrid     =          FALSE
    C_Alpha      =   0.000000E+00
    C_Omega      =   0.000000E+00

   => Exchange Functionals <=

    0.8000    B3_X
    0.2000      HF 

   => Correlation Functionals <=

    0.1900 VWN3RPA_C
    0.8100   LYP_C

   => Molecular Quadrature <=

    Radial Scheme    =       TREUTLER
    Pruning Scheme   =           FLAT
    Nuclear Scheme   =       TREUTLER

    BS radius alpha  =              1
    Pruning alpha    =              1
    Radial Points    =             75
    Spherical Points =            302
    Total Points     =          88298
    Total Blocks     =             88
    Max Points       =           4568
    Max Functions    =             38


  -Total Gradient:
     Atom            X                  Y                   Z
    ------   -----------------  -----------------  -----------------
       1       -0.000126806301    -0.005253056383     0.003338215773
       2       -0.000078950435     0.003504056730    -0.005144820708
       3        0.000132357158     0.004189633761    -0.002317688924
       4        0.000072441193    -0.002448786117     0.004115872207


*** tstop() called on computer03 at Fri Aug 11 14:08:05 2017
Module time:
	user time   =       6.07 seconds =       0.10 minutes
	system time =       0.25 seconds =       0.00 minutes
	total time  =          2 seconds =       0.03 minutes
Total time:
	user time   =     104.76 seconds =       1.75 minutes
	system time =       3.80 seconds =       0.06 minutes
	total time  =         30 seconds =       0.50 minutes

			-----------------------------------------
			 OPTKING 2.0: for geometry optimizations 
			  - R.A. King,  Bethel University        
			-----------------------------------------
	At level 1: Red. Int., RFO, no backsteps, dynamic trust

	Previous internal coordinate definitions found.
	---Fragment 1 Geometry and Gradient---
	 O          -1.3798656529        0.0029349368        0.0113536784
	 O           1.3631963642       -0.1447349153       -0.1578420266
	 H          -1.6812740734        0.8906566637        1.5958754775
	 H           1.9458277807        1.3598118966        0.7290009121
	            -0.0001268063       -0.0052530564        0.0033382158
	            -0.0000789504        0.0035040567       -0.0051448207
	             0.0001323572        0.0041896338       -0.0023176889
	             0.0000724412       -0.0024487861        0.0041158722

	---Fragment 1 Intrafragment Coordinates---
	 - Coordinate -           - BOHR/RAD -       - ANG/DEG -
	 R(1,2)           =         2.752240	       1.456422
	 R(1,3)           =         1.841088	       0.974262
	 R(2,4)           =         1.841090	       0.974263
	 B(1,2,4)         =         1.815167	     104.001406
	 B(2,1,3)         =         1.815167	     104.001394
	*D(3,1,2,4)       =        -0.523599	     -29.999995

	Current energy   :      -151.5410221864

	Energy change for the previous step:
		Projected    :        -0.0000071518
		Actual       :        -0.0000038601

	Performing BFGS update.
	Previous computed or guess Hessian on step 1.
	Steps to be used in Hessian update: 4 3
	Taking RFO optimization step.
	Going to follow RFO solution 1.
	Using RFO vector 1.
	Norm of target step-size    0.00072
	Projected energy change by RFO approximation:        -0.0000001490

	Back-transformation to cartesian coordinates...
	Successfully converged to displaced geometry.

	Back-transformation to cartesian coordinates to adjust frozen coordinates...
	Successfully converged to displaced geometry.

	--- Internal Coordinate Step in ANG or DEG, aJ/ANG or AJ/DEG ---
	 ---------------------------------------------------------------------------
	   Coordinate                Previous        Force       Change         New 
	   ----------                --------       ------       ------       ------
	    1 R(1,2)          =      1.456422     0.000004    -0.000099     1.456323
	    2 R(1,3)          =      0.974262    -0.000058    -0.000001     0.974261
	    3 R(2,4)          =      0.974263    -0.000063    -0.000002     0.974261
	    4 B(1,2,4)        =    104.001406     0.000007     0.028218   104.029625
	    5 B(2,1,3)        =    104.001394     0.000008     0.028229   104.029624
	    6 *D(3,1,2,4)     =    -29.999995     0.000000     0.000000   -29.999995
	 ---------------------------------------------------------------------------
	Successfully symmetrized geometry.

  ==> Convergence Check <==

  Measures of convergence in internal coordinates in au.
  Criteria marked as inactive (o), active & met (*), and active & unmet ( ).
  ---------------------------------------------------------------------------------------------
   Step     Total Energy     Delta E     MAX Force     RMS Force      MAX Disp      RMS Disp   
  ---------------------------------------------------------------------------------------------
    Convergence Criteria    1.00e-06 *    3.00e-04 *             o    1.20e-03 *             o
  ---------------------------------------------------------------------------------------------
      5    -151.54102219   -3.86e-06      9.86e-05 *    5.71e-05 o    4.93e-04 *    2.95e-04 o  ~
  ---------------------------------------------------------------------------------------------


  **** Optimization is complete! (in 5 steps) ****

  ==> Optimization Summary <==

  Measures of convergence in internal coordinates in au.
  --------------------------------------------------------------------------------------------------------------- ~
   Step         Total Energy             Delta E       MAX Force       RMS Force        MAX Disp        RMS Disp  ~
  --------------------------------------------------------------------------------------------------------------- ~
      1    -151.536975718834   -151.536975718834      0.03174815      0.02049427      0.18315388      0.10821287  ~
      2    -151.539793866813     -0.002818147979      0.01889538      0.01112330      0.05040997      0.03218932  ~
      3    -151.540976105985     -0.001182239171      0.00508976      0.00224917      0.01114700      0.00490725  ~
      4    -151.541018326267     -0.000042220282      0.00149713      0.00061913      0.00509589      0.00208282  ~
      5    -151.541022186383     -0.000003860116      0.00009858      0.00005706      0.00049269      0.00029454  ~
  --------------------------------------------------------------------------------------------------------------- ~

	Writing optimization data to binary file.
	Final energy is   -151.5410221863831
	Final (previous) structure:
	Cartesian Geometry (in Angstrom)
	    O    -0.7301934544   0.0015531017   0.0060081079
	    O     0.7213724468  -0.0765904184  -0.0835264030
	    H    -0.8896919210   0.4713152071   0.8445009305
	    H     1.0296877134   0.7195814637   0.3857706677
	Saving final (previous) structure.
			--------------------------
			 OPTKING Finished Execution 
			--------------------------

    Final optimized geometry and variables:
    Molecular point group: c1
    Full point group: C1

    Geometry (in Angstrom), charge = 0, multiplicity = 1:

    O           -0.730193454417     0.001553101652     0.006008107862
    O            0.721372446788    -0.076590418446    -0.083526403044
    H           -0.889691921036     0.471315207088     0.844500930458
    H            1.029687713364     0.719581463668     0.385770667720

	Cleaning optimization helper files.


Properties will be evaluated at   0.000000,   0.000000,   0.000000 Bohr

Properties computed using the  density matrix

  Nuclear Dipole Moment: (a.u.)
     X:     0.1312      Y:     1.1161      Z:     1.1530

  Electronic Dipole Moment: (a.u.)
     X:    -0.0328      Y:    -0.2794      Z:    -0.2886

  Dipole Moment: (a.u.)
     X:     0.0984      Y:     0.8367      Z:     0.8644     Total:     1.2070

  Dipole Moment: (Debye)
     X:     0.2500      Y:     2.1267      Z:     2.1970     Total:     3.0679

  Quadrupole Moment: (Debye Ang)
    XX:   -10.5412     YY:   -10.5770     ZZ:   -10.3245
    XY:     0.7514     XZ:    -0.5347     YZ:     1.5883

  Traceless Quadrupole Moment: (Debye Ang)
    XX:    -0.0603     YY:    -0.0961     ZZ:     0.1564
    XY:     0.7514     XZ:    -0.5347     YZ:     1.5883

  Mulliken Charges: (a.u.)
   Center  Symbol    Alpha    Beta     Spin     Total
       1     O     4.08150  4.08150  0.00000 -0.16300
       2     O     4.08150  4.08150  0.00000 -0.16300
       3     H     0.41850  0.41850  0.00000  0.16300
       4     H     0.41850  0.41850  0.00000  0.16300

   Total alpha =  9.00000, Total beta =  9.00000, Total charge = -0.00000


*** Psi4 exiting successfully. Buy a developer a beer!
