    -----------------------------------------------------------------------
          Psi4: An Open-Source Ab Initio Electronic Structure Package
                              Psi4 (no tag) Driver

                          Git: Rev {detached?}  

    J. M. Turney, A. C. Simmonett, R. M. Parrish, E. G. Hohenstein,
    F. A. Evangelista, J. T. Fermann, B. J. Mintz, L. A. Burns, J. J. Wilke,
    M. L. Abrams, N. J. Russ, M. L. Leininger, C. L. Janssen, E. T. Seidl,
    W. D. Allen, H. F. Schaefer, R. A. King, E. F. Valeev, C. D. Sherrill,
    and T. D. Crawford, WIREs Comput. Mol. Sci. 2, 556-565 (2012)
    (doi: 10.1002/wcms.93)

                         Additional Contributions by
    A. E. DePrince, M. Saitow, U. Bozkaya, A. Yu. Sokolov
    -----------------------------------------------------------------------


    Psi4 started on: Tue Jul  5 16:22:31 2016

    Process ID:  25792
    PSI4DATADIR: /export131/home/mjharvey/miniconda3/share
    Memory level set to 256.000 MB

  ==> Input File <==

--------------------------------------------------------------------------
set {
	reference rhf
	basis 6-31G*
}


set_num_threads( 1 )
memory 2 gb

molecule MOL {
0 1

H	 -0.367348	 2.047014	 -0.308205
C	 0.352277	 1.337084	 0.083769
N	 -0.000016	 0.000074	 -0.335546
H	 1.328359	 1.600444	 -0.307950
H	 0.381933	 1.450534	 1.172486
C	 0.615837	 -0.350634	 -1.594910
C	 0.275887	 -0.978382	 0.691420
H	 0.273296	 -1.329192	 -1.911835
H	 0.329600	 0.365974	 -2.356491
H	 1.709387	 -0.373871	 -1.545008
H	 -0.258527	 -0.720184	 1.598674
H	 -0.065741	 -1.955720	 0.369646
H	 1.340602	 -1.054595	 0.935350

	symmetry c1
}
ee = energy('scf')
oeprop('DIPOLE', 'QUADRUPOLE', 'MULLIKEN_CHARGES')
f=open( 'psi4out.xyz', 'w' )
f.write( "13  " )
f.write( str(ee) + "\n" )
f.write( MOL.save_string_xyz() )
f.close()
--------------------------------------------------------------------------

  Memory set to   2.000 GiB by Python script.

*** tstart() called on cx1-3-1-3.cx1.hpc.ic.ac.uk
*** at Tue Jul  5 16:22:31 2016


         ---------------------------------------------------------
                                   SCF
            by Justin Turney, Rob Parrish, and Andy Simmonett
                              RHF Reference
                        1 Threads,   2000 MiB Core
         ---------------------------------------------------------

  ==> Geometry <==

    Molecular point group: c1
    Full point group: C1

    Geometry (in Angstrom), charge = 0, multiplicity = 1:

       Center              X                  Y                   Z               Mass       
    ------------   -----------------  -----------------  -----------------  -----------------
           H         -0.699745848449     2.044838842928    -0.022000939322     1.007825032070
           C          0.019879151551     1.334908842928     0.369973060678    12.000000000000
           N         -0.332413848449    -0.002101157072    -0.049341939322    14.003074004780
           H          0.995961151551     1.598268842928    -0.021745939322     1.007825032070
           H          0.049535151551     1.448358842928     1.458690060678     1.007825032070
           C          0.283439151551    -0.352809157072    -1.308705939322    12.000000000000
           C         -0.056510848449    -0.980557157072     0.977624060678    12.000000000000
           H         -0.059101848449    -1.331367157072    -1.625630939322     1.007825032070
           H         -0.002797848449     0.363798842928    -2.070286939322     1.007825032070
           H          1.376989151551    -0.376046157072    -1.258803939322     1.007825032070
           H         -0.590924848449    -0.722359157072     1.884878060678     1.007825032070
           H         -0.398138848449    -1.957895157072     0.655850060678     1.007825032070
           H          1.008204151551    -1.056770157072     1.221554060678     1.007825032070

  Running in c1 symmetry.

  Rotational constants: A =      0.29363  B =      0.29345  C =      0.16557 [cm^-1]
  Rotational constants: A =   8802.72534  B =   8797.46714  C =   4963.59993 [MHz]
  Nuclear repulsion =  139.328591802345642

  Charge       = 0
  Multiplicity = 1
  Electrons    = 34
  Nalpha       = 17
  Nbeta        = 17

  ==> Algorithm <==

  SCF Algorithm Type is DF.
  DIIS enabled.
  MOM disabled.
  Fractional occupation disabled.
  Guess Type is CORE.
  Energy threshold   = 1.00e-06
  Density threshold  = 1.00e-06
  Integral threshold = 0.00e+00

  ==> Primary Basis <==

  Basis Set: 6-31G*
    Number of shells: 42
    Number of basis function: 78
    Number of Cartesian functions: 78
    Spherical Harmonics?: false
    Max angular momentum: 2

  ==> Pre-Iterations <==

   -------------------------------------------------------
    Irrep   Nso     Nmo     Nalpha   Nbeta   Ndocc  Nsocc
   -------------------------------------------------------
     A         78      78       0       0       0       0
   -------------------------------------------------------
    Total      78      78      17      17      17       0
   -------------------------------------------------------

 OEINTS: Overlap, kinetic, potential, dipole, and quadrupole integrals
         stored in file 35.

  ==> Integral Setup <==

  ==> DFJK: Density-Fitted J/K Matrices <==

    J tasked:                  Yes
    K tasked:                  Yes
    wK tasked:                  No
    OpenMP threads:              1
    Integrals threads:           1
    Memory (MB):              1430
    Algorithm:                Core
    Integral Cache:           NONE
    Schwarz Cutoff:          1E-12
    Fitting Condition:       1E-12

   => Auxiliary Basis Set <=

  Basis Set: 
    Number of shells: 177
    Number of basis function: 549
    Number of Cartesian functions: 549
    Spherical Harmonics?: false
    Max angular momentum: 3

  Minimum eigenvalue in the overlap matrix is 6.2470770307E-03.
  Using Symmetric Orthogonalization.
  SCF Guess: Core (One-Electron) Hamiltonian.

  ==> Iterations <==

                           Total Energy        Delta E     RMS |[F,P]|

   @DF-RHF iter   1:  -136.62457590021208   -1.36625e+02   8.44157e-02 
   @DF-RHF iter   2:  -146.70419818564997   -1.00796e+01   5.28147e-02 DIIS
   @DF-RHF iter   3:  -169.41244869497356   -2.27083e+01   3.71152e-02 DIIS
   @DF-RHF iter   4:  -172.17571289142776   -2.76326e+00   1.92282e-02 DIIS
   @DF-RHF iter   5:  -173.22494698104131   -1.04923e+00   3.40436e-03 DIIS
   @DF-RHF iter   6:  -173.26181437482265   -3.68674e-02   9.32928e-04 DIIS
   @DF-RHF iter   7:  -173.26405934507599   -2.24497e-03   1.03050e-04 DIIS
   @DF-RHF iter   8:  -173.26412413765897   -6.47926e-05   3.89415e-05 DIIS
   @DF-RHF iter   9:  -173.26413070733318   -6.56967e-06   8.15843e-06 DIIS
   @DF-RHF iter  10:  -173.26413115641483   -4.49082e-07   2.26674e-06 DIIS
   @DF-RHF iter  11:  -173.26413118234942   -2.59346e-08   6.97535e-07 DIIS

  ==> Post-Iterations <==

    Orbital Energies (a.u.)
    -----------------------

    Doubly Occupied:                                                      

       1A    -15.541027     2A    -11.236195     3A    -11.235117  
       4A    -11.234821     5A     -1.224701     6A     -0.951548  
       7A     -0.950846     8A     -0.806669     9A     -0.641229  
      10A     -0.629590    11A     -0.628101    12A     -0.549705  
      13A     -0.545402    14A     -0.515133    15A     -0.502173  
      16A     -0.497139    17A     -0.343572  

    Virtual:                                                              

      18A      0.226955    19A      0.294148    20A      0.301653  
      21A      0.304336    22A      0.310449    23A      0.322870  
      24A      0.335958    25A      0.340222    26A      0.356202  
      27A      0.376848    28A      0.436708    29A      0.459332  
      30A      0.723297    31A      0.754567    32A      0.754832  
      33A      0.777826    34A      0.811147    35A      0.853204  
      36A      0.928668    37A      0.939325    38A      1.015484  
      39A      1.085381    40A      1.109949    41A      1.127761  
      42A      1.139245    43A      1.160653    44A      1.162095  
      45A      1.185446    46A      1.208443    47A      1.250750  
      48A      1.259818    49A      1.263474    50A      1.275792  
      51A      1.297303    52A      1.600591    53A      1.631077  
      54A      1.657355    55A      1.734427    56A      1.751465  
      57A      2.077716    58A      2.209571    59A      2.238640  
      60A      2.277108    61A      2.351705    62A      2.366902  
      63A      2.438215    64A      2.462893    65A      2.490207  
      66A      2.569742    67A      2.594882    68A      2.616785  
      69A      2.630010    70A      2.875454    71A      2.962102  
      72A      2.974296    73A      3.151581    74A      3.170221  
      75A      4.470138    76A      4.674176    77A      4.688666  
      78A      4.789955  

    Final Occupation by Irrep:
              A 
    DOCC [    17 ]

  Energy converged.

  @DF-RHF Final Energy:  -173.26413118234942

   => Energetics <=

    Nuclear Repulsion Energy =            139.3285918023456418
    One-Electron Energy =                -509.1196625482918989
    Two-Electron Energy =                 196.5269395635967840
    DFT Exchange-Correlation Energy =       0.0000000000000000
    Empirical Dispersion Energy =           0.0000000000000000
    PCM Polarization Energy =               0.0000000000000000
    EFP Energy =                            0.0000000000000000
    Total Energy =                       -173.2641311823495016

    Alert: EFP and PCM quantities not currently incorporated into SCF psivars.

Properties will be evaluated at   0.000000,   0.000000,   0.000000 Bohr
  ==> Properties <==


Properties computed using the SCF density matrix

  Nuclear Dipole Moment: (a.u.)
     X:     1.5759      Y:     0.0102      Z:     0.2087

  Electronic Dipole Moment: (a.u.)
     X:    -1.2552      Y:    -0.0012      Z:    -0.1419

  Dipole Moment: (a.u.)
     X:     0.3207      Y:     0.0089      Z:     0.0669     Total:     0.3277

  Dipole Moment: (Debye)
     X:     0.8150      Y:     0.0227      Z:     0.1700     Total:     0.8329


  Saving occupied orbitals to File 180.

*** tstop() called on cx1-3-1-3.cx1.hpc.ic.ac.uk at Tue Jul  5 16:22:34 2016
Module time:
	user time   =       2.92 seconds =       0.05 minutes
	system time =       0.03 seconds =       0.00 minutes
	total time  =          3 seconds =       0.05 minutes
Total time:
	user time   =       2.92 seconds =       0.05 minutes
	system time =       0.03 seconds =       0.00 minutes
	total time  =          3 seconds =       0.05 minutes


Properties will be evaluated at   0.000000,   0.000000,   0.000000 Bohr

Properties computed using the  density matrix

  Nuclear Dipole Moment: (a.u.)
     X:     1.5759      Y:     0.0102      Z:     0.2087

  Electronic Dipole Moment: (a.u.)
     X:    -1.2552      Y:    -0.0012      Z:    -0.1419

  Dipole Moment: (a.u.)
     X:     0.3207      Y:     0.0089      Z:     0.0669     Total:     0.3277

  Dipole Moment: (Debye)
     X:     0.8150      Y:     0.0227      Z:     0.1700     Total:     0.8329

  Quadrupole Moment: (Debye Ang)
    XX:   -29.4775     YY:   -26.3471     ZZ:   -26.1467
    XY:     0.0447     XZ:    -0.3919     YZ:     0.2051

  Traceless Quadrupole Moment: (Debye Ang)
    XX:    -2.1537     YY:     0.9766     ZZ:     1.1771
    XY:     0.0447     XZ:    -0.3919     YZ:     0.2051

  Mulliken Charges: (a.u.)
   Center  Symbol    Alpha    Beta     Spin     Total
       1     H     0.41521  0.41521  0.00000  0.16959
       2     C     3.14517  3.14517  0.00000 -0.29035
       3     N     3.76552  3.76552  0.00000 -0.53104
       4     H     0.42968  0.42968  0.00000  0.14064
       5     H     0.41931  0.41931  0.00000  0.16138
       6     C     3.14436  3.14436  0.00000 -0.28872
       7     C     3.14306  3.14306  0.00000 -0.28612
       8     H     0.41657  0.41657  0.00000  0.16686
       9     H     0.41587  0.41587  0.00000  0.16826
      10     H     0.43483  0.43483  0.00000  0.13034
      11     H     0.41639  0.41639  0.00000  0.16723
      12     H     0.41794  0.41794  0.00000  0.16411
      13     H     0.43610  0.43610  0.00000  0.12780

   Total alpha = 17.00000, Total beta = 17.00000, Total charge = -0.00000


*** PSI4 exiting successfully. Buy a developer a beer!
