    -----------------------------------------------------------------------
          Psi4: An Open-Source Ab Initio Electronic Structure Package
                              Psi4 (no tag) Driver

                          Git: Rev {detached?}  

    J. M. Turney, A. C. Simmonett, R. M. Parrish, E. G. Hohenstein,
    F. A. Evangelista, J. T. Fermann, B. J. Mintz, L. A. Burns, J. J. Wilke,
    M. L. Abrams, N. J. Russ, M. L. Leininger, C. L. Janssen, E. T. Seidl,
    W. D. Allen, H. F. Schaefer, R. A. King, E. F. Valeev, C. D. Sherrill,
    and T. D. Crawford, WIREs Comput. Mol. Sci. 2, 556-565 (2012)
    (doi: 10.1002/wcms.93)

                         Additional Contributions by
    A. E. DePrince, M. Saitow, U. Bozkaya, A. Yu. Sokolov
    -----------------------------------------------------------------------


    Psi4 started on: Tue Jul  5 16:22:11 2016

    Process ID:  25742
    PSI4DATADIR: /export131/home/mjharvey/miniconda3/share
    Memory level set to 256.000 MB

  ==> Input File <==

--------------------------------------------------------------------------
set {
	reference rhf
	basis 6-31G*
}


set_num_threads( 1 )
memory 2 gb

molecule MOL {
0 1

H	 -0.216825	 0.021369	 -3.357402
C	 0.374198	 0.036393	 -2.447010
C	 -0.521757	 -0.028637	 -1.217342
H	 0.969602	 0.942322	 -2.434777
H	 1.053364	 -0.811668	 -2.481329
N	 0.263400	 0.031178	 0.000000
H	 -1.199035	 0.820290	 -1.219355
H	 -1.147901	 -0.924895	 -1.265384
C	 -0.521757	 -0.028637	 1.217342
H	 0.935769	 -0.712709	 0.000000
C	 0.270097	 -0.677377	 2.344796
H	 -0.780849	 0.988156	 1.497324
H	 -1.467002	 -0.562089	 1.077398
H	 1.190096	 -0.132595	 2.524174
H	 -0.308130	 -0.694706	 3.263328
H	 0.529838	 -1.704105	 2.099817

	symmetry c1
}
ee = energy('scf')
oeprop('DIPOLE', 'QUADRUPOLE', 'MULLIKEN_CHARGES')
f=open( 'psi4out.xyz', 'w' )
f.write( "16  " )
f.write( str(ee) + "\n" )
f.write( MOL.save_string_xyz() )
f.close()
--------------------------------------------------------------------------

  Memory set to   2.000 GiB by Python script.

*** tstart() called on cx1-3-1-3.cx1.hpc.ic.ac.uk
*** at Tue Jul  5 16:22:12 2016


         ---------------------------------------------------------
                                   SCF
            by Justin Turney, Rob Parrish, and Andy Simmonett
                              RHF Reference
                        1 Threads,   2000 MiB Core
         ---------------------------------------------------------

  ==> Geometry <==

    Molecular point group: c1
    Full point group: C1

    Geometry (in Angstrom), charge = 0, multiplicity = 1:

       Center              X                  Y                   Z               Mass       
    ------------   -----------------  -----------------  -----------------  -----------------
           H         -0.195662587643     0.168241942450    -3.336535813502     1.007825032070
           C          0.395360412357     0.183265942450    -2.426143813502    12.000000000000
           C         -0.500594587643     0.118235942450    -1.196475813502    12.000000000000
           H          0.990764412357     1.089194942450    -2.413910813502     1.007825032070
           H          1.074526412357    -0.664795057550    -2.460462813502     1.007825032070
           N          0.284562412357     0.178050942450     0.020866186498    14.003074004780
           H         -1.177872587643     0.967162942450    -1.198488813502     1.007825032070
           H         -1.126738587643    -0.778022057550    -1.244517813502     1.007825032070
           C         -0.500594587643     0.118235942450     1.238208186498    12.000000000000
           H          0.956931412357    -0.565836057550     0.020866186498     1.007825032070
           C          0.291259412357    -0.530504057550     2.365662186498    12.000000000000
           H         -0.759686587643     1.135028942450     1.518190186498     1.007825032070
           H         -1.445839587643    -0.415216057550     1.098264186498     1.007825032070
           H          1.211258412357     0.014277942450     2.545040186498     1.007825032070
           H         -0.286967587643    -0.547833057550     3.284194186498     1.007825032070
           H          0.551000412357    -1.557232057550     2.120683186498     1.007825032070

  Running in c1 symmetry.

  Rotational constants: A =      0.57081  B =      0.07132  C =      0.06753 [cm^-1]
  Rotational constants: A =  17112.59284  B =   2138.12627  C =   2024.60523 [MHz]
  Nuclear repulsion =  189.535720482146445

  Charge       = 0
  Multiplicity = 1
  Electrons    = 42
  Nalpha       = 21
  Nbeta        = 21

  ==> Algorithm <==

  SCF Algorithm Type is DF.
  DIIS enabled.
  MOM disabled.
  Fractional occupation disabled.
  Guess Type is CORE.
  Energy threshold   = 1.00e-06
  Density threshold  = 1.00e-06
  Integral threshold = 0.00e+00

  ==> Primary Basis <==

  Basis Set: 6-31G*
    Number of shells: 52
    Number of basis function: 97
    Number of Cartesian functions: 97
    Spherical Harmonics?: false
    Max angular momentum: 2

  ==> Pre-Iterations <==

   -------------------------------------------------------
    Irrep   Nso     Nmo     Nalpha   Nbeta   Ndocc  Nsocc
   -------------------------------------------------------
     A         97      97       0       0       0       0
   -------------------------------------------------------
    Total      97      97      21      21      21       0
   -------------------------------------------------------

 OEINTS: Overlap, kinetic, potential, dipole, and quadrupole integrals
         stored in file 35.

  ==> Integral Setup <==

  ==> DFJK: Density-Fitted J/K Matrices <==

    J tasked:                  Yes
    K tasked:                  Yes
    wK tasked:                  No
    OpenMP threads:              1
    Integrals threads:           1
    Memory (MB):              1430
    Algorithm:                Core
    Integral Cache:           NONE
    Schwarz Cutoff:          1E-12
    Fitting Condition:       1E-12

   => Auxiliary Basis Set <=

  Basis Set: 
    Number of shells: 219
    Number of basis function: 680
    Number of Cartesian functions: 680
    Spherical Harmonics?: false
    Max angular momentum: 3

  Minimum eigenvalue in the overlap matrix is 4.3222004570E-03.
  Using Symmetric Orthogonalization.
  SCF Guess: Core (One-Electron) Hamiltonian.

  ==> Iterations <==

                           Total Energy        Delta E     RMS |[F,P]|

   @DF-RHF iter   1:  -148.83122910586005   -1.48831e+02   8.51982e-02 
   @DF-RHF iter   2:  -155.94891362590468   -7.11768e+00   5.68116e-02 DIIS
   @DF-RHF iter   3:  -177.75955776073656   -2.18106e+01   5.96206e-02 DIIS
   @DF-RHF iter   4:  -211.49395316593743   -3.37344e+01   1.17532e-02 DIIS
   @DF-RHF iter   5:  -212.24627380391362   -7.52321e-01   3.22299e-03 DIIS
   @DF-RHF iter   6:  -212.30483750643370   -5.85637e-02   1.07480e-03 DIIS
   @DF-RHF iter   7:  -212.31076724647588   -5.92974e-03   2.42517e-04 DIIS
   @DF-RHF iter   8:  -212.31107748624927   -3.10240e-04   7.98326e-05 DIIS
   @DF-RHF iter   9:  -212.31111821793607   -4.07317e-05   2.99273e-05 DIIS
   @DF-RHF iter  10:  -212.31112397854346   -5.76061e-06   8.04720e-06 DIIS
   @DF-RHF iter  11:  -212.31112434753223   -3.68989e-07   1.84284e-06 DIIS
   @DF-RHF iter  12:  -212.31112437006837   -2.25361e-08   2.99761e-07 DIIS

  ==> Post-Iterations <==

    Orbital Energies (a.u.)
    -----------------------

    Doubly Occupied:                                                      

       1A    -15.532617     2A    -11.240366     3A    -11.239720  
       4A    -11.212683     5A    -11.207757     6A     -1.205374  
       7A     -1.029113     8A     -0.962948     9A     -0.833929  
      10A     -0.822880    11A     -0.653559    12A     -0.629126  
      13A     -0.609192    14A     -0.587456    15A     -0.552840  
      16A     -0.521400    17A     -0.508945    18A     -0.492080  
      19A     -0.485650    20A     -0.469802    21A     -0.358235  

    Virtual:                                                              

      22A      0.233063    23A      0.255090    24A      0.272792  
      25A      0.295140    26A      0.312229    27A      0.317278  
      28A      0.320928    29A      0.327862    30A      0.345863  
      31A      0.348981    32A      0.359404    33A      0.401588  
      34A      0.431157    35A      0.453235    36A      0.463115  
      37A      0.702085    38A      0.740223    39A      0.742383  
      40A      0.755686    41A      0.777035    42A      0.791824  
      43A      0.881749    44A      0.902091    45A      0.913358  
      46A      0.957189    47A      0.979037    48A      1.042777  
      49A      1.072958    50A      1.124448    51A      1.159670  
      52A      1.160355    53A      1.166918    54A      1.175568  
      55A      1.197376    56A      1.201295    57A      1.225153  
      58A      1.236768    59A      1.245569    60A      1.252022  
      61A      1.278264    62A      1.280606    63A      1.328898  
      64A      1.531192    65A      1.598187    66A      1.685111  
      67A      1.729169    68A      1.774687    69A      1.900051  
      70A      1.934598    71A      2.026618    72A      2.116271  
      73A      2.215495    74A      2.253756    75A      2.272019  
      76A      2.322738    77A      2.344145    78A      2.391231  
      79A      2.398544    80A      2.474149    81A      2.588866  
      82A      2.603201    83A      2.627911    84A      2.661886  
      85A      2.684527    86A      2.767538    87A      2.801696  
      88A      2.819136    89A      2.938515    90A      2.999319  
      91A      3.171845    92A      3.229823    93A      4.362305  
      94A      4.621386    95A      4.631110    96A      4.827326  
      97A      4.896361  

    Final Occupation by Irrep:
              A 
    DOCC [    21 ]

  Energy converged.

  @DF-RHF Final Energy:  -212.31112437006837

   => Energetics <=

    Nuclear Repulsion Energy =            189.5357204821464450
    One-Electron Energy =                -661.3823017366855765
    Two-Electron Energy =                 259.5354568844710457
    DFT Exchange-Correlation Energy =       0.0000000000000000
    Empirical Dispersion Energy =           0.0000000000000000
    PCM Polarization Energy =               0.0000000000000000
    EFP Energy =                            0.0000000000000000
    Total Energy =                       -212.3111243700681143

    Alert: EFP and PCM quantities not currently incorporated into SCF psivars.

Properties will be evaluated at   0.000000,   0.000000,   0.000000 Bohr
  ==> Properties <==


Properties computed using the SCF density matrix

  Nuclear Dipole Moment: (a.u.)
     X:    -0.1961      Y:    -1.0833      Z:    -0.0626

  Electronic Dipole Moment: (a.u.)
     X:     0.0345      Y:     0.6893      Z:     0.0923

  Dipole Moment: (a.u.)
     X:    -0.1615      Y:    -0.3941      Z:     0.0297     Total:     0.4269

  Dipole Moment: (Debye)
     X:    -0.4106      Y:    -1.0016      Z:     0.0755     Total:     1.0851


  Saving occupied orbitals to File 180.

*** tstop() called on cx1-3-1-3.cx1.hpc.ic.ac.uk at Tue Jul  5 16:22:17 2016
Module time:
	user time   =       4.83 seconds =       0.08 minutes
	system time =       0.06 seconds =       0.00 minutes
	total time  =          5 seconds =       0.08 minutes
Total time:
	user time   =       4.83 seconds =       0.08 minutes
	system time =       0.06 seconds =       0.00 minutes
	total time  =          5 seconds =       0.08 minutes


Properties will be evaluated at   0.000000,   0.000000,   0.000000 Bohr

Properties computed using the  density matrix

  Nuclear Dipole Moment: (a.u.)
     X:    -0.1961      Y:    -1.0833      Z:    -0.0626

  Electronic Dipole Moment: (a.u.)
     X:     0.0345      Y:     0.6893      Z:     0.0923

  Dipole Moment: (a.u.)
     X:    -0.1615      Y:    -0.3941      Z:     0.0297     Total:     0.4269

  Dipole Moment: (Debye)
     X:    -0.4106      Y:    -1.0016      Z:     0.0755     Total:     1.0851

  Quadrupole Moment: (Debye Ang)
    XX:   -34.2526     YY:   -34.5082     ZZ:   -33.1671
    XY:    -1.5181     XZ:     0.0190     YZ:    -0.0420

  Traceless Quadrupole Moment: (Debye Ang)
    XX:    -0.2767     YY:    -0.5322     ZZ:     0.8089
    XY:    -1.5181     XZ:     0.0190     YZ:    -0.0420

  Mulliken Charges: (a.u.)
   Center  Symbol    Alpha    Beta     Spin     Total
       1     H     0.42037  0.42037  0.00000  0.15926
       2     C     3.24231  3.24231  0.00000 -0.48462
       3     C     3.05489  3.05489  0.00000 -0.10978
       4     H     0.41190  0.41190  0.00000  0.17620
       5     H     0.42500  0.42500  0.00000  0.14999
       6     N     3.85148  3.85148  0.00000 -0.70297
       7     H     0.42021  0.42021  0.00000  0.15958
       8     H     0.43478  0.43478  0.00000  0.13043
       9     C     3.04524  3.04524  0.00000 -0.09047
      10     H     0.33437  0.33437  0.00000  0.33126
      11     C     3.25319  3.25319  0.00000 -0.50638
      12     H     0.41977  0.41977  0.00000  0.16045
      13     H     0.43307  0.43307  0.00000  0.13387
      14     H     0.41278  0.41278  0.00000  0.17445
      15     H     0.41693  0.41693  0.00000  0.16614
      16     H     0.42370  0.42370  0.00000  0.15259

   Total alpha = 21.00000, Total beta = 21.00000, Total charge = -0.00000


*** PSI4 exiting successfully. Buy a developer a beer!
