    -----------------------------------------------------------------------
          Psi4: An Open-Source Ab Initio Electronic Structure Package
                              Psi4 (no tag) Driver

                          Git: Rev {detached?}  

    J. M. Turney, A. C. Simmonett, R. M. Parrish, E. G. Hohenstein,
    F. A. Evangelista, J. T. Fermann, B. J. Mintz, L. A. Burns, J. J. Wilke,
    M. L. Abrams, N. J. Russ, M. L. Leininger, C. L. Janssen, E. T. Seidl,
    W. D. Allen, H. F. Schaefer, R. A. King, E. F. Valeev, C. D. Sherrill,
    and T. D. Crawford, WIREs Comput. Mol. Sci. 2, 556-565 (2012)
    (doi: 10.1002/wcms.93)

                         Additional Contributions by
    A. E. DePrince, M. Saitow, U. Bozkaya, A. Yu. Sokolov
    -----------------------------------------------------------------------


    Psi4 started on: Tue Jul  5 16:30:30 2016

    Process ID:    395
    PSI4DATADIR: /export131/home/mjharvey/miniconda3/share
    Memory level set to 256.000 MB

  ==> Input File <==

--------------------------------------------------------------------------
set {
	reference rhf
	basis 6-31G*
}


set_num_threads( 1 )
memory 2 gb

molecule MOL {
0 1

H	 2.866480	 -0.465706	 0.876907
C	 2.405773	 -0.024801	 0.000000
N	 0.988830	 -0.304158	 0.000000
H	 2.866480	 -0.465706	 -0.876907
H	 2.629928	 1.045948	 0.000000
C	 0.491012	 -0.639750	 1.321183
C	 0.627318	 -1.331114	 -0.959499
H	 0.969505	 -1.542457	 1.714455
H	 0.714542	 0.175465	 2.002142
C	 -1.012295	 -0.855990	 1.263761
H	 0.950657	 -1.022148	 -1.948558
H	 1.115743	 -2.284201	 -0.732419
C	 -0.879604	 -1.529020	 -0.956440
H	 -1.387565	 -1.193792	 2.220881
H	 -1.506011	 0.079797	 1.007795
O	 -1.340583	 -1.843687	 0.327474
H	 -1.159165	 -2.352274	 -1.600735
H	 -1.367077	 -0.624899	 -1.316864

	symmetry c1
}
ee = energy('scf')
oeprop('DIPOLE', 'QUADRUPOLE', 'MULLIKEN_CHARGES')
f=open( 'psi4out.xyz', 'w' )
f.write( "18  " )
f.write( str(ee) + "\n" )
f.write( MOL.save_string_xyz() )
f.close()
--------------------------------------------------------------------------

  Memory set to   2.000 GiB by Python script.

*** tstart() called on cx1-3-15-4.cx1.hpc.ic.ac.uk
*** at Tue Jul  5 16:30:30 2016


         ---------------------------------------------------------
                                   SCF
            by Justin Turney, Rob Parrish, and Andy Simmonett
                              RHF Reference
                        1 Threads,   2000 MiB Core
         ---------------------------------------------------------

  ==> Geometry <==

    Molecular point group: c1
    Full point group: C1

    Geometry (in Angstrom), charge = 0, multiplicity = 1:

       Center              X                  Y                   Z               Mass       
    ------------   -----------------  -----------------  -----------------  -----------------
           H          2.681124462334     0.474447360583     0.732243112914     1.007825032070
           C          2.220417462334     0.915352360583    -0.144663887086    12.000000000000
           N          0.803474462334     0.635995360583    -0.144663887086    14.003074004780
           H          2.681124462334     0.474447360583    -1.021570887086     1.007825032070
           H          2.444572462334     1.986101360583    -0.144663887086     1.007825032070
           C          0.305656462334     0.300403360583     1.176519112914    12.000000000000
           C          0.441962462334    -0.390960639417    -1.104162887086    12.000000000000
           H          0.784149462334    -0.602303639417     1.569791112914     1.007825032070
           H          0.529186462334     1.115618360583     1.857478112914     1.007825032070
           C         -1.197650537666     0.084163360583     1.119097112914    12.000000000000
           H          0.765301462334    -0.081994639417    -2.093221887086     1.007825032070
           H          0.930387462334    -1.344047639417    -0.877082887086     1.007825032070
           C         -1.064959537666    -0.588866639417    -1.101103887086    12.000000000000
           H         -1.572920537666    -0.253638639417     2.076217112914     1.007825032070
           H         -1.691366537666     1.019950360583     0.863131112914     1.007825032070
           O         -1.525938537666    -0.903533639417     0.182810112914    15.994914619560
           H         -1.344520537666    -1.412120639417    -1.745398887086     1.007825032070
           H         -1.552432537666     0.315254360583    -1.461527887086     1.007825032070

  Running in c1 symmetry.

  Rotational constants: A =      0.16249  B =      0.07909  C =      0.05781 [cm^-1]
  Rotational constants: A =   4871.39798  B =   2370.97850  C =   1733.00995 [MHz]
  Nuclear repulsion =  341.602721153905748

  Charge       = 0
  Multiplicity = 1
  Electrons    = 56
  Nalpha       = 28
  Nbeta        = 28

  ==> Algorithm <==

  SCF Algorithm Type is DF.
  DIIS enabled.
  MOM disabled.
  Fractional occupation disabled.
  Guess Type is CORE.
  Energy threshold   = 1.00e-06
  Density threshold  = 1.00e-06
  Integral threshold = 0.00e+00

  ==> Primary Basis <==

  Basis Set: 6-31G*
    Number of shells: 64
    Number of basis function: 127
    Number of Cartesian functions: 127
    Spherical Harmonics?: false
    Max angular momentum: 2

  ==> Pre-Iterations <==

   -------------------------------------------------------
    Irrep   Nso     Nmo     Nalpha   Nbeta   Ndocc  Nsocc
   -------------------------------------------------------
     A        127     127       0       0       0       0
   -------------------------------------------------------
    Total     127     127      28      28      28       0
   -------------------------------------------------------

 OEINTS: Overlap, kinetic, potential, dipole, and quadrupole integrals
         stored in file 35.

  ==> Integral Setup <==

  ==> DFJK: Density-Fitted J/K Matrices <==

    J tasked:                  Yes
    K tasked:                  Yes
    wK tasked:                  No
    OpenMP threads:              1
    Integrals threads:           1
    Memory (MB):              1430
    Algorithm:                Core
    Integral Cache:           NONE
    Schwarz Cutoff:          1E-12
    Fitting Condition:       1E-12

   => Auxiliary Basis Set <=

  Basis Set: 
    Number of shells: 267
    Number of basis function: 842
    Number of Cartesian functions: 842
    Spherical Harmonics?: false
    Max angular momentum: 3

  Minimum eigenvalue in the overlap matrix is 3.2404078777E-03.
  Using Symmetric Orthogonalization.
  SCF Guess: Core (One-Electron) Hamiltonian.

  ==> Iterations <==

                           Total Energy        Delta E     RMS |[F,P]|

   @DF-RHF iter   1:  -254.49428317309690   -2.54494e+02   7.04746e-02 
   @DF-RHF iter   2:  -175.49964389651115    7.89946e+01   7.55290e-02 DIIS
   @DF-RHF iter   3:  -269.96945942737415   -9.44698e+01   5.11961e-02 DIIS
   @DF-RHF iter   4:  -267.89245256061628    2.07701e+00   6.03461e-02 DIIS
   @DF-RHF iter   5:  -324.35286968199620   -5.64604e+01   9.33268e-03 DIIS
   @DF-RHF iter   6:  -324.93387069928627   -5.81001e-01   3.38530e-03 DIIS
   @DF-RHF iter   7:  -325.00916053092084   -7.52898e-02   1.25791e-03 DIIS
   @DF-RHF iter   8:  -325.02092245286752   -1.17619e-02   3.70933e-04 DIIS
   @DF-RHF iter   9:  -325.02258078022970   -1.65833e-03   1.04492e-04 DIIS
   @DF-RHF iter  10:  -325.02267664165544   -9.58614e-05   4.36628e-05 DIIS
   @DF-RHF iter  11:  -325.02270006987322   -2.34282e-05   6.29189e-06 DIIS
   @DF-RHF iter  12:  -325.02270059692256   -5.27049e-07   1.92595e-06 DIIS
   @DF-RHF iter  13:  -325.02270063807572   -4.11532e-08   6.27250e-07 DIIS

  ==> Post-Iterations <==

    Orbital Energies (a.u.)
    -----------------------

    Doubly Occupied:                                                      

       1A    -20.553762     2A    -15.546588     3A    -11.265737  
       4A    -11.265620     5A    -11.244224     6A    -11.244194  
       7A    -11.240092     8A     -1.383116     9A     -1.231948  
      10A     -1.038328    11A     -0.980588    12A     -0.883317  
      13A     -0.868481    14A     -0.775236    15A     -0.682861  
      16A     -0.644927    17A     -0.643334    18A     -0.632277  
      19A     -0.628108    20A     -0.569967    21A     -0.559163  
      22A     -0.544890    23A     -0.527421    24A     -0.500535  
      25A     -0.482730    26A     -0.452077    27A     -0.407110  
      28A     -0.350371  

    Virtual:                                                              

      29A      0.237964    30A      0.258593    31A      0.276827  
      32A      0.283927    33A      0.303043    34A      0.306057  
      35A      0.311085    36A      0.324398    37A      0.333528  
      38A      0.343699    39A      0.351777    40A      0.361759  
      41A      0.385244    42A      0.424325    43A      0.439743  
      44A      0.449652    45A      0.472723    46A      0.493256  
      47A      0.732189    48A      0.733657    49A      0.751947  
      50A      0.789174    51A      0.794498    52A      0.807483  
      53A      0.830573    54A      0.856204    55A      0.880154  
      56A      0.918265    57A      0.932150    58A      0.954609  
      59A      0.967276    60A      1.055391    61A      1.077710  
      62A      1.101259    63A      1.110253    64A      1.136363  
      65A      1.138818    66A      1.148212    67A      1.157886  
      68A      1.169218    69A      1.184485    70A      1.187208  
      71A      1.200759    72A      1.221854    73A      1.240856  
      74A      1.246686    75A      1.303267    76A      1.335854  
      77A      1.388748    78A      1.475704    79A      1.521526  
      80A      1.594112    81A      1.626898    82A      1.660145  
      83A      1.666999    84A      1.699631    85A      1.725235  
      86A      1.875791    87A      1.905533    88A      1.983540  
      89A      2.003559    90A      2.085198    91A      2.156542  
      92A      2.181569    93A      2.220423    94A      2.234590  
      95A      2.305873    96A      2.327936    97A      2.343919  
      98A      2.370656    99A      2.391634   100A      2.437512  
     101A      2.447289   102A      2.491320   103A      2.509864  
     104A      2.563387   105A      2.603429   106A      2.627159  
     107A      2.666482   108A      2.685706   109A      2.772913  
     110A      2.789790   111A      2.805542   112A      2.891640  
     113A      2.907537   114A      2.945156   115A      3.083732  
     116A      3.136287   117A      3.161399   118A      3.231711  
     119A      3.255434   120A      3.327607   121A      4.400603  
     122A      4.523297   123A      4.642074   124A      4.686225  
     125A      4.776707   126A      4.944253   127A      4.953203  

    Final Occupation by Irrep:
              A 
    DOCC [    28 ]

  Energy converged.

  @DF-RHF Final Energy:  -325.02270063807572

   => Energetics <=

    Nuclear Repulsion Energy =            341.6027211539057475
    One-Electron Energy =               -1118.9567362784318902
    Two-Electron Energy =                 452.3313144864503101
    DFT Exchange-Correlation Energy =       0.0000000000000000
    Empirical Dispersion Energy =           0.0000000000000000
    PCM Polarization Energy =               0.0000000000000000
    EFP Energy =                            0.0000000000000000
    Total Energy =                       -325.0227006380757757

    Alert: EFP and PCM quantities not currently incorporated into SCF psivars.

Properties will be evaluated at   0.000000,   0.000000,   0.000000 Bohr
  ==> Properties <==


Properties computed using the SCF density matrix

  Nuclear Dipole Moment: (a.u.)
     X:     4.3539      Y:     1.5797      Z:    -0.2280

  Electronic Dipole Moment: (a.u.)
     X:    -3.8209      Y:    -1.3713      Z:     0.1795

  Dipole Moment: (a.u.)
     X:     0.5330      Y:     0.2084      Z:    -0.0485     Total:     0.5743

  Dipole Moment: (Debye)
     X:     1.3546      Y:     0.5297      Z:    -0.1232     Total:     1.4597


  Saving occupied orbitals to File 180.

*** tstop() called on cx1-3-15-4.cx1.hpc.ic.ac.uk at Tue Jul  5 16:30:42 2016
Module time:
	user time   =      11.07 seconds =       0.18 minutes
	system time =       0.06 seconds =       0.00 minutes
	total time  =         12 seconds =       0.20 minutes
Total time:
	user time   =      11.07 seconds =       0.18 minutes
	system time =       0.06 seconds =       0.00 minutes
	total time  =         12 seconds =       0.20 minutes


Properties will be evaluated at   0.000000,   0.000000,   0.000000 Bohr

Properties computed using the  density matrix

  Nuclear Dipole Moment: (a.u.)
     X:     4.3539      Y:     1.5797      Z:    -0.2280

  Electronic Dipole Moment: (a.u.)
     X:    -3.8209      Y:    -1.3713      Z:     0.1795

  Dipole Moment: (a.u.)
     X:     0.5330      Y:     0.2084      Z:    -0.0485     Total:     0.5743

  Dipole Moment: (Debye)
     X:     1.3546      Y:     0.5297      Z:    -0.1232     Total:     1.4597

  Quadrupole Moment: (Debye Ang)
    XX:   -45.2135     YY:   -46.9304     ZZ:   -40.1720
    XY:    -2.0143     XZ:     0.0948     YZ:     2.0973

  Traceless Quadrupole Moment: (Debye Ang)
    XX:    -1.1082     YY:    -2.8251     ZZ:     3.9333
    XY:    -2.0143     XZ:     0.0948     YZ:     2.0973

  Mulliken Charges: (a.u.)
   Center  Symbol    Alpha    Beta     Spin     Total
       1     H     0.42593  0.42593  0.00000  0.14814
       2     C     3.13952  3.13952  0.00000 -0.27904
       3     N     3.78709  3.78709  0.00000 -0.57419
       4     H     0.41962  0.41962  0.00000  0.16076
       5     H     0.41593  0.41593  0.00000  0.16815
       6     C     3.07088  3.07088  0.00000 -0.14176
       7     C     3.07098  3.07098  0.00000 -0.14196
       8     H     0.42805  0.42805  0.00000  0.14390
       9     H     0.41561  0.41561  0.00000  0.16878
      10     C     2.99753  2.99753  0.00000  0.00494
      11     H     0.41589  0.41589  0.00000  0.16823
      12     H     0.42864  0.42864  0.00000  0.14271
      13     C     2.99753  2.99753  0.00000  0.00495
      14     H     0.41348  0.41348  0.00000  0.17305
      15     H     0.42380  0.42380  0.00000  0.15240
      16     O     4.31208  4.31208  0.00000 -0.62416
      17     H     0.41355  0.41355  0.00000  0.17290
      18     H     0.42390  0.42390  0.00000  0.15221

   Total alpha = 28.00000, Total beta = 28.00000, Total charge = -0.00000


*** PSI4 exiting successfully. Buy a developer a beer!
