    -----------------------------------------------------------------------
          Psi4: An Open-Source Ab Initio Electronic Structure Package
                              Psi4 (no tag) Driver

                          Git: Rev {detached?}  

    J. M. Turney, A. C. Simmonett, R. M. Parrish, E. G. Hohenstein,
    F. A. Evangelista, J. T. Fermann, B. J. Mintz, L. A. Burns, J. J. Wilke,
    M. L. Abrams, N. J. Russ, M. L. Leininger, C. L. Janssen, E. T. Seidl,
    W. D. Allen, H. F. Schaefer, R. A. King, E. F. Valeev, C. D. Sherrill,
    and T. D. Crawford, WIREs Comput. Mol. Sci. 2, 556-565 (2012)
    (doi: 10.1002/wcms.93)

                         Additional Contributions by
    A. E. DePrince, M. Saitow, U. Bozkaya, A. Yu. Sokolov
    -----------------------------------------------------------------------


    Psi4 started on: Tue Jul  5 16:51:49 2016

    Process ID:  14575
    PSI4DATADIR: /export131/home/mjharvey/miniconda3/share
    Memory level set to 256.000 MB

  ==> Input File <==

--------------------------------------------------------------------------
set {
	reference rhf
	basis 6-31G*
}


set_num_threads( 1 )
memory 2 gb

molecule MOL {
0 1

H	 -0.000158	 1.970498	 0.756846
O	 -0.000074	 1.880206	 -0.189275
C	 -0.000015	 0.544847	 -0.545111
C	 1.201481	 -0.158198	 0.077884
C	 -0.077133	 0.412093	 -2.062486
H	 -0.890506	 0.093628	 -0.133370
F	 1.139674	 -0.061407	 1.388744
F	 1.249103	 -1.435890	 -0.234516
F	 2.332428	 0.405349	 -0.315780
F	 -1.183201	 0.974938	 -2.499928
F	 -0.077060	 -0.844536	 -2.453974
F	 0.943680	 1.024573	 -2.640748

	symmetry c1
}
set optking {
	frozen_dihedral = ("
		7 4 3 6
	")
}

ee = energy('scf')
oeprop('DIPOLE', 'QUADRUPOLE', 'MULLIKEN_CHARGES')
f=open( 'psi4out.xyz', 'w' )
f.write( "12  " )
f.write( str(ee) + "\n" )
f.write( MOL.save_string_xyz() )
f.close()
--------------------------------------------------------------------------

  Memory set to   2.000 GiB by Python script.

*** tstart() called on cx1-3-4-4.cx1.hpc.ic.ac.uk
*** at Tue Jul  5 16:51:50 2016


         ---------------------------------------------------------
                                   SCF
            by Justin Turney, Rob Parrish, and Andy Simmonett
                              RHF Reference
                        1 Threads,   2000 MiB Core
         ---------------------------------------------------------

  ==> Geometry <==

    Molecular point group: c1
    Full point group: C1

    Geometry (in Angstrom), charge = 0, multiplicity = 1:

       Center              X                  Y                   Z               Mass       
    ------------   -----------------  -----------------  -----------------  -----------------
           H         -0.573214177386     1.714926112146     1.715844481682     1.007825032070
           O         -0.573130177386     1.624634112146     0.769723481682    15.994914619560
           C         -0.573071177386     0.289275112146     0.413887481682    12.000000000000
           C          0.628424822614    -0.413769887854     1.036882481682    12.000000000000
           C         -0.650189177386     0.156521112146    -1.103487518318    12.000000000000
           H         -1.463562177386    -0.161943887854     0.825628481682     1.007825032070
           F          0.566617822614    -0.316978887854     2.347742481682    18.998403224000
           F          0.676046822614    -1.691461887854     0.724482481682    18.998403224000
           F          1.759371822614     0.149777112146     0.643218481682    18.998403224000
           F         -1.756257177386     0.719366112146    -1.540929518318    18.998403224000
           F         -0.650116177386    -1.100107887854    -1.494975518318    18.998403224000
           F          0.370623822614     0.769001112146    -1.681749518318    18.998403224000

  Running in c1 symmetry.

  Rotational constants: A =      0.07171  B =      0.03579  C =      0.03155 [cm^-1]
  Rotational constants: A =   2149.66348  B =   1072.93604  C =    945.94729 [MHz]
  Nuclear repulsion =  669.450887962815614

  Charge       = 0
  Multiplicity = 1
  Electrons    = 82
  Nalpha       = 41
  Nbeta        = 41

  ==> Algorithm <==

  SCF Algorithm Type is DF.
  DIIS enabled.
  MOM disabled.
  Fractional occupation disabled.
  Guess Type is CORE.
  Energy threshold   = 1.00e-06
  Density threshold  = 1.00e-06
  Integral threshold = 0.00e+00

  ==> Primary Basis <==

  Basis Set: 6-31G*
    Number of shells: 64
    Number of basis function: 154
    Number of Cartesian functions: 154
    Spherical Harmonics?: false
    Max angular momentum: 2

  ==> Pre-Iterations <==

   -------------------------------------------------------
    Irrep   Nso     Nmo     Nalpha   Nbeta   Ndocc  Nsocc
   -------------------------------------------------------
     A        154     154       0       0       0       0
   -------------------------------------------------------
    Total     154     154      41      41      41       0
   -------------------------------------------------------

 OEINTS: Overlap, kinetic, potential, dipole, and quadrupole integrals
         stored in file 35.

  ==> Integral Setup <==

  ==> DFJK: Density-Fitted J/K Matrices <==

    J tasked:                  Yes
    K tasked:                  Yes
    wK tasked:                  No
    OpenMP threads:              1
    Integrals threads:           1
    Memory (MB):              1430
    Algorithm:                Core
    Integral Cache:           NONE
    Schwarz Cutoff:          1E-12
    Fitting Condition:       1E-12

   => Auxiliary Basis Set <=

  Basis Set: 
    Number of shells: 258
    Number of basis function: 860
    Number of Cartesian functions: 860
    Spherical Harmonics?: false
    Max angular momentum: 3

  Minimum eigenvalue in the overlap matrix is 1.6858132863E-03.
  Using Symmetric Orthogonalization.
  SCF Guess: Core (One-Electron) Hamiltonian.

  ==> Iterations <==

                           Total Energy        Delta E     RMS |[F,P]|

   @DF-RHF iter   1:  -698.67426902784905   -6.98674e+02   6.89005e-02 
   @DF-RHF iter   2:  -531.57058139402307    1.67104e+02   8.62065e-02 DIIS
   @DF-RHF iter   3:  -724.12204939679577   -1.92551e+02   5.70628e-02 DIIS
   @DF-RHF iter   4:  -756.15569174500388   -3.20336e+01   3.69218e-02 DIIS
   @DF-RHF iter   5:  -756.11398768175195    4.17041e-02   3.88798e-02 DIIS
   @DF-RHF iter   6:  -784.97114187773082   -2.88572e+01   1.23066e-02 DIIS
   @DF-RHF iter   7:  -786.19576090238297   -1.22462e+00   2.84581e-03 DIIS
   @DF-RHF iter   8:  -786.25689092075572   -6.11300e-02   1.30398e-03 DIIS
   @DF-RHF iter   9:  -786.27111383455122   -1.42229e-02   4.47117e-04 DIIS
   @DF-RHF iter  10:  -786.27347009335517   -2.35626e-03   1.57013e-04 DIIS
   @DF-RHF iter  11:  -786.27374874246811   -2.78649e-04   4.21392e-05 DIIS
   @DF-RHF iter  12:  -786.27377293965083   -2.41972e-05   1.12481e-05 DIIS
   @DF-RHF iter  13:  -786.27377550894653   -2.56930e-06   2.95243e-06 DIIS
   @DF-RHF iter  14:  -786.27377568158408   -1.72638e-07   9.77726e-07 DIIS

  ==> Post-Iterations <==

    Orbital Energies (a.u.)
    -----------------------

    Doubly Occupied:                                                      

       1A    -26.370416     2A    -26.362038     3A    -26.360051  
       4A    -26.353492     5A    -26.353421     6A    -26.347990  
       7A    -20.614788     8A    -11.526164     9A    -11.524972  
      10A    -11.349327    11A     -1.764246    12A     -1.754102  
      13A     -1.664679    14A     -1.655239    15A     -1.652486  
      16A     -1.645931    17A     -1.433943    18A     -1.101887  
      19A     -0.995562    20A     -0.934276    21A     -0.865132  
      22A     -0.857557    23A     -0.852294    24A     -0.839352  
      25A     -0.830334    26A     -0.787049    27A     -0.755780  
      28A     -0.731103    29A     -0.718357    30A     -0.717061  
      31A     -0.713451    32A     -0.685518    33A     -0.678453  
      34A     -0.666905    35A     -0.664828    36A     -0.660421  
      37A     -0.650733    38A     -0.636051    39A     -0.619256  
      40A     -0.547057    41A     -0.503463  

    Virtual:                                                              

      42A      0.197170    43A      0.252432    44A      0.308110  
      45A      0.343475    46A      0.350190    47A      0.396034  
      48A      0.453013    49A      0.465818    50A      0.468700  
      51A      0.527491    52A      0.545185    53A      0.664120  
      54A      0.676542    55A      0.713260    56A      0.733200  
      57A      0.744140    58A      0.787261    59A      0.814465  
      60A      0.858969    61A      0.901996    62A      0.948102  
      63A      1.029488    64A      1.099862    65A      1.134927  
      66A      1.188556    67A      1.234424    68A      1.260171  
      69A      1.284620    70A      1.306649    71A      1.348703  
      72A      1.355229    73A      1.382542    74A      1.401941  
      75A      1.448225    76A      1.467982    77A      1.519505  
      78A      1.567967    79A      1.581811    80A      1.596388  
      81A      1.609888    82A      1.619727    83A      1.621081  
      84A      1.632289    85A      1.654204    86A      1.658963  
      87A      1.663938    88A      1.673636    89A      1.712898  
      90A      1.741102    91A      1.752817    92A      1.786429  
      93A      1.871392    94A      1.883960    95A      1.932741  
      96A      1.949104    97A      1.972098    98A      1.973186  
      99A      1.999653   100A      2.091371   101A      2.099961  
     102A      2.113808   103A      2.123394   104A      2.127296  
     105A      2.145023   106A      2.154718   107A      2.173985  
     108A      2.187016   109A      2.291813   110A      2.302080  
     111A      2.324602   112A      2.331167   113A      2.347763  
     114A      2.374168   115A      2.395567   116A      2.399323  
     117A      2.408695   118A      2.418232   119A      2.446148  
     120A      2.482886   121A      2.532504   122A      2.552470  
     123A      2.570367   124A      2.610851   125A      2.617862  
     126A      2.694054   127A      2.721923   128A      2.855721  
     129A      2.887991   130A      2.894636   131A      2.947001  
     132A      3.058624   133A      3.153933   134A      3.182128  
     135A      3.197330   136A      3.221441   137A      3.269154  
     138A      3.348771   139A      3.400592   140A      3.417064  
     141A      3.450612   142A      3.455065   143A      3.463738  
     144A      3.486197   145A      4.159945   146A      4.623470  
     147A      4.758020   148A      4.819333   149A      5.036209  
     150A      5.112435   151A      5.269509   152A      5.660318  
     153A      5.799463   154A      6.367989  

    Final Occupation by Irrep:
              A 
    DOCC [    41 ]

  Energy converged.

  @DF-RHF Final Energy:  -786.27377568158408

   => Energetics <=

    Nuclear Repulsion Energy =            669.4508879628156137
    One-Electron Energy =               -2425.9593175105746923
    Two-Electron Energy =                 970.2346538661736304
    DFT Exchange-Correlation Energy =       0.0000000000000000
    Empirical Dispersion Energy =           0.0000000000000000
    PCM Polarization Energy =               0.0000000000000000
    EFP Energy =                            0.0000000000000000
    Total Energy =                       -786.2737756815854482

    Alert: EFP and PCM quantities not currently incorporated into SCF psivars.

Properties will be evaluated at   0.000000,   0.000000,   0.000000 Bohr
  ==> Properties <==


Properties computed using the SCF density matrix

  Nuclear Dipole Moment: (a.u.)
     X:    -2.8237      Y:     2.8508      Z:     3.3317

  Electronic Dipole Moment: (a.u.)
     X:     2.2700      Y:    -2.9197      Z:    -2.3895

  Dipole Moment: (a.u.)
     X:    -0.5538      Y:    -0.0689      Z:     0.9422     Total:     1.0950

  Dipole Moment: (Debye)
     X:    -1.4075      Y:    -0.1751      Z:     2.3947     Total:     2.7833


  Saving occupied orbitals to File 180.

*** tstop() called on cx1-3-4-4.cx1.hpc.ic.ac.uk at Tue Jul  5 16:52:06 2016
Module time:
	user time   =      16.30 seconds =       0.27 minutes
	system time =       0.21 seconds =       0.00 minutes
	total time  =         16 seconds =       0.27 minutes
Total time:
	user time   =      16.30 seconds =       0.27 minutes
	system time =       0.21 seconds =       0.00 minutes
	total time  =         16 seconds =       0.27 minutes


Properties will be evaluated at   0.000000,   0.000000,   0.000000 Bohr

Properties computed using the  density matrix

  Nuclear Dipole Moment: (a.u.)
     X:    -2.8237      Y:     2.8508      Z:     3.3317

  Electronic Dipole Moment: (a.u.)
     X:     2.2700      Y:    -2.9197      Z:    -2.3895

  Dipole Moment: (a.u.)
     X:    -0.5538      Y:    -0.0689      Z:     0.9422     Total:     1.0950

  Dipole Moment: (Debye)
     X:    -1.4075      Y:    -0.1751      Z:     2.3947     Total:     2.7833

  Quadrupole Moment: (Debye Ang)
    XX:   -52.9581     YY:   -55.1313     ZZ:   -50.5045
    XY:     0.6551     XZ:    -3.0415     YZ:     3.2163

  Traceless Quadrupole Moment: (Debye Ang)
    XX:    -0.0935     YY:    -2.2667     ZZ:     2.3601
    XY:     0.6551     XZ:    -3.0415     YZ:     3.2163

  Mulliken Charges: (a.u.)
   Center  Symbol    Alpha    Beta     Spin     Total
       1     H     0.26433  0.26433  0.00000  0.47134
       2     O     4.36515  4.36515  0.00000 -0.73030
       3     C     3.04181  3.04181  0.00000 -0.08362
       4     C     2.45021  2.45021  0.00000  1.09958
       5     C     2.43409  2.43409  0.00000  1.13181
       6     H     0.39025  0.39025  0.00000  0.21950
       7     F     4.68104  4.68104  0.00000 -0.36208
       8     F     4.67367  4.67367  0.00000 -0.34734
       9     F     4.67450  4.67450  0.00000 -0.34901
      10     F     4.67550  4.67550  0.00000 -0.35101
      11     F     4.67421  4.67421  0.00000 -0.34842
      12     F     4.67522  4.67522  0.00000 -0.35045

   Total alpha = 41.00000, Total beta = 41.00000, Total charge =  0.00000


*** PSI4 exiting successfully. Buy a developer a beer!
