    -----------------------------------------------------------------------
          Psi4: An Open-Source Ab Initio Electronic Structure Package
                              Psi4 (no tag) Driver

                          Git: Rev {detached?}  

    J. M. Turney, A. C. Simmonett, R. M. Parrish, E. G. Hohenstein,
    F. A. Evangelista, J. T. Fermann, B. J. Mintz, L. A. Burns, J. J. Wilke,
    M. L. Abrams, N. J. Russ, M. L. Leininger, C. L. Janssen, E. T. Seidl,
    W. D. Allen, H. F. Schaefer, R. A. King, E. F. Valeev, C. D. Sherrill,
    and T. D. Crawford, WIREs Comput. Mol. Sci. 2, 556-565 (2012)
    (doi: 10.1002/wcms.93)

                         Additional Contributions by
    A. E. DePrince, M. Saitow, U. Bozkaya, A. Yu. Sokolov
    -----------------------------------------------------------------------


    Psi4 started on: Tue Jul  5 16:33:43 2016

    Process ID:  21954
    PSI4DATADIR: /export131/home/mjharvey/miniconda3/share
    Memory level set to 256.000 MB

  ==> Input File <==

--------------------------------------------------------------------------
set {
	reference rhf
	basis 6-31G*
}


set_num_threads( 1 )
memory 2 gb

molecule MOL {
0 1

H	 1.693583	 -0.994824	 0.920885
C	 0.825124	 -1.094776	 0.284415
O	 0.000000	 0.000000	 0.521119
H	 1.151592	 -1.131000	 -0.753754
H	 0.322101	 -2.031471	 0.519491
C	 -1.165642	 0.000000	 -0.238270
H	 -1.228672	 0.883184	 -0.872070
H	 -2.003012	 0.000000	 0.445920
H	 -1.228672	 -0.883184	 -0.872070

	symmetry c1
}
ee = energy('scf')
oeprop('DIPOLE', 'QUADRUPOLE', 'MULLIKEN_CHARGES')
f=open( 'psi4out.xyz', 'w' )
f.write( "9  " )
f.write( str(ee) + "\n" )
f.write( MOL.save_string_xyz() )
f.close()
--------------------------------------------------------------------------

  Memory set to   2.000 GiB by Python script.

*** tstart() called on cx1-3-15-2.cx1.hpc.ic.ac.uk
*** at Tue Jul  5 16:33:43 2016


         ---------------------------------------------------------
                                   SCF
            by Justin Turney, Rob Parrish, and Andy Simmonett
                              RHF Reference
                        1 Threads,   2000 MiB Core
         ---------------------------------------------------------

  ==> Geometry <==

    Molecular point group: c1
    Full point group: C1

    Geometry (in Angstrom), charge = 0, multiplicity = 1:

       Center              X                  Y                   Z               Mass       
    ------------   -----------------  -----------------  -----------------  -----------------
           H          1.810637650468    -0.618489591360     0.741209172979     1.007825032070
           C          0.942178650468    -0.718441591360     0.104739172979    12.000000000000
           O          0.117054650468     0.376334408640     0.341443172979    15.994914619560
           H          1.268646650468    -0.754665591360    -0.933429827021     1.007825032070
           H          0.439155650468    -1.655136591360     0.339815172979     1.007825032070
           C         -1.048587349532     0.376334408640    -0.417945827021    12.000000000000
           H         -1.111617349532     1.259518408640    -1.051745827021     1.007825032070
           H         -1.885957349532     0.376334408640     0.266244172979     1.007825032070
           H         -1.111617349532    -0.506849591360    -1.051745827021     1.007825032070

  Running in c1 symmetry.

  Rotational constants: A =      1.37085  B =      0.33765  C =      0.30134 [cm^-1]
  Rotational constants: A =  41096.91409  B =  10122.43561  C =   9033.87118 [MHz]
  Nuclear repulsion =   84.799753700460343

  Charge       = 0
  Multiplicity = 1
  Electrons    = 26
  Nalpha       = 13
  Nbeta        = 13

  ==> Algorithm <==

  SCF Algorithm Type is DF.
  DIIS enabled.
  MOM disabled.
  Fractional occupation disabled.
  Guess Type is CORE.
  Energy threshold   = 1.00e-06
  Density threshold  = 1.00e-06
  Integral threshold = 0.00e+00

  ==> Primary Basis <==

  Basis Set: 6-31G*
    Number of shells: 30
    Number of basis function: 57
    Number of Cartesian functions: 57
    Spherical Harmonics?: false
    Max angular momentum: 2

  ==> Pre-Iterations <==

   -------------------------------------------------------
    Irrep   Nso     Nmo     Nalpha   Nbeta   Ndocc  Nsocc
   -------------------------------------------------------
     A         57      57       0       0       0       0
   -------------------------------------------------------
    Total      57      57      13      13      13       0
   -------------------------------------------------------

 OEINTS: Overlap, kinetic, potential, dipole, and quadrupole integrals
         stored in file 35.

  ==> Integral Setup <==

  ==> DFJK: Density-Fitted J/K Matrices <==

    J tasked:                  Yes
    K tasked:                  Yes
    wK tasked:                  No
    OpenMP threads:              1
    Integrals threads:           1
    Memory (MB):              1430
    Algorithm:                Core
    Integral Cache:           NONE
    Schwarz Cutoff:          1E-12
    Fitting Condition:       1E-12

   => Auxiliary Basis Set <=

  Basis Set: 
    Number of shells: 126
    Number of basis function: 393
    Number of Cartesian functions: 393
    Spherical Harmonics?: false
    Max angular momentum: 3

  Minimum eigenvalue in the overlap matrix is 7.5055125452E-03.
  Using Symmetric Orthogonalization.
  SCF Guess: Core (One-Electron) Hamiltonian.

  ==> Iterations <==

                           Total Energy        Delta E     RMS |[F,P]|

   @DF-RHF iter   1:  -129.87194975841945   -1.29872e+02   9.39081e-02 
   @DF-RHF iter   2:  -130.07620339491848   -2.04254e-01   6.10244e-02 DIIS
   @DF-RHF iter   3:  -149.55408149434305   -1.94779e+01   5.57444e-02 DIIS
   @DF-RHF iter   4:  -152.16623446475654   -2.61215e+00   3.60892e-02 DIIS
   @DF-RHF iter   5:  -153.72185756319209   -1.55562e+00   1.53563e-02 DIIS
   @DF-RHF iter   6:  -154.03814675245513   -3.16289e-01   4.38564e-03 DIIS
   @DF-RHF iter   7:  -154.05941804289648   -2.12713e-02   4.32595e-04 DIIS
   @DF-RHF iter   8:  -154.05996059833075   -5.42555e-04   1.03765e-04 DIIS
   @DF-RHF iter   9:  -154.05998751673758   -2.69184e-05   2.38981e-05 DIIS
   @DF-RHF iter  10:  -154.05998928236031   -1.76562e-06   7.72138e-06 DIIS
   @DF-RHF iter  11:  -154.05998945510743   -1.72747e-07   1.66697e-06 DIIS
   @DF-RHF iter  12:  -154.05998946499111   -9.88368e-09   3.62173e-07 DIIS

  ==> Post-Iterations <==

    Orbital Energies (a.u.)
    -----------------------

    Doubly Occupied:                                                      

       1A    -20.552861     2A    -11.265812     3A    -11.264109  
       4A     -1.378128     5A     -0.973820     6A     -0.873954  
       7A     -0.658523     8A     -0.655951     9A     -0.642269  
      10A     -0.558620    11A     -0.525314    12A     -0.476643  
      13A     -0.411592  

    Virtual:                                                              

      14A      0.240175    15A      0.295641    16A      0.307871  
      17A      0.310999    18A      0.321377    19A      0.332654  
      20A      0.355326    21A      0.432997    22A      0.732355  
      23A      0.765582    24A      0.783327    25A      0.828351  
      26A      0.831316    27A      0.877794    28A      1.100070  
      29A      1.119343    30A      1.142105    31A      1.148951  
      32A      1.157115    33A      1.203228    34A      1.237068  
      35A      1.327036    36A      1.332780    37A      1.339354  
      38A      1.633478    39A      1.734131    40A      1.748506  
      41A      1.844401    42A      1.858418    43A      2.215205  
      44A      2.428025    45A      2.431512    46A      2.464196  
      47A      2.475895    48A      2.501849    49A      2.605803  
      50A      2.740551    51A      2.824518    52A      2.869923  
      53A      3.116705    54A      3.292600    55A      4.341124  
      56A      4.619525    57A      4.706251  

    Final Occupation by Irrep:
              A 
    DOCC [    13 ]

  Energy converged.

  @DF-RHF Final Energy:  -154.05998946499111

   => Energetics <=

    Nuclear Repulsion Energy =             84.7997537004603430
    One-Electron Energy =                -377.2443791726870472
    Two-Electron Energy =                 138.3846360072354855
    DFT Exchange-Correlation Energy =       0.0000000000000000
    Empirical Dispersion Energy =           0.0000000000000000
    PCM Polarization Energy =               0.0000000000000000
    EFP Energy =                            0.0000000000000000
    Total Energy =                       -154.0599894649911903

    Alert: EFP and PCM quantities not currently incorporated into SCF psivars.

Properties will be evaluated at   0.000000,   0.000000,   0.000000 Bohr
  ==> Properties <==


Properties computed using the SCF density matrix

  Nuclear Dipole Moment: (a.u.)
     X:    -0.5532      Y:    -1.7787      Z:    -1.5824

  Electronic Dipole Moment: (a.u.)
     X:     0.4225      Y:     1.3235      Z:     1.1770

  Dipole Moment: (a.u.)
     X:    -0.1307      Y:    -0.4552      Z:    -0.4054     Total:     0.6234

  Dipole Moment: (Debye)
     X:    -0.3323      Y:    -1.1570      Z:    -1.0304     Total:     1.5845


  Saving occupied orbitals to File 180.

*** tstop() called on cx1-3-15-2.cx1.hpc.ic.ac.uk at Tue Jul  5 16:33:45 2016
Module time:
	user time   =       1.44 seconds =       0.02 minutes
	system time =       0.01 seconds =       0.00 minutes
	total time  =          2 seconds =       0.03 minutes
Total time:
	user time   =       1.44 seconds =       0.02 minutes
	system time =       0.01 seconds =       0.00 minutes
	total time  =          2 seconds =       0.03 minutes


Properties will be evaluated at   0.000000,   0.000000,   0.000000 Bohr

Properties computed using the  density matrix

  Nuclear Dipole Moment: (a.u.)
     X:    -0.5532      Y:    -1.7787      Z:    -1.5824

  Electronic Dipole Moment: (a.u.)
     X:     0.4225      Y:     1.3235      Z:     1.1770

  Dipole Moment: (a.u.)
     X:    -0.1307      Y:    -0.4552      Z:    -0.4054     Total:     0.6234

  Dipole Moment: (Debye)
     X:    -0.3323      Y:    -1.1570      Z:    -1.0304     Total:     1.5845

  Quadrupole Moment: (Debye Ang)
    XX:   -17.9011     YY:   -19.9680     ZZ:   -20.1804
    XY:    -1.2551     XZ:     0.5198     YZ:    -0.7794

  Traceless Quadrupole Moment: (Debye Ang)
    XX:     1.4488     YY:    -0.6182     ZZ:    -0.8306
    XY:    -1.2551     XZ:     0.5198     YZ:    -0.7794

  Mulliken Charges: (a.u.)
   Center  Symbol    Alpha    Beta     Spin     Total
       1     H     0.41270  0.41270  0.00000  0.17460
       2     C     3.08102  3.08102  0.00000 -0.16205
       3     O     4.29745  4.29745  0.00000 -0.59490
       4     H     0.42968  0.42968  0.00000  0.14063
       5     H     0.42978  0.42978  0.00000  0.14043
       6     C     3.07845  3.07845  0.00000 -0.15689
       7     H     0.42099  0.42099  0.00000  0.15802
       8     H     0.41948  0.41948  0.00000  0.16104
       9     H     0.43045  0.43045  0.00000  0.13911

   Total alpha = 13.00000, Total beta = 13.00000, Total charge =  0.00000


*** PSI4 exiting successfully. Buy a developer a beer!
