    -----------------------------------------------------------------------
          Psi4: An Open-Source Ab Initio Electronic Structure Package
                              Psi4 (no tag) Driver

                          Git: Rev {detached?}  

    J. M. Turney, A. C. Simmonett, R. M. Parrish, E. G. Hohenstein,
    F. A. Evangelista, J. T. Fermann, B. J. Mintz, L. A. Burns, J. J. Wilke,
    M. L. Abrams, N. J. Russ, M. L. Leininger, C. L. Janssen, E. T. Seidl,
    W. D. Allen, H. F. Schaefer, R. A. King, E. F. Valeev, C. D. Sherrill,
    and T. D. Crawford, WIREs Comput. Mol. Sci. 2, 556-565 (2012)
    (doi: 10.1002/wcms.93)

                         Additional Contributions by
    A. E. DePrince, M. Saitow, U. Bozkaya, A. Yu. Sokolov
    -----------------------------------------------------------------------


    Psi4 started on: Tue Jul  5 16:33:09 2016

    Process ID:  14393
    PSI4DATADIR: /export131/home/mjharvey/miniconda3/share
    Memory level set to 256.000 MB

  ==> Input File <==

--------------------------------------------------------------------------
set {
	reference rhf
	basis 6-31G*
}


set_num_threads( 1 )
memory 2 gb

molecule MOL {
0 1

H	 -3.048796	 2.007402	 0.214113
C	 -2.388443	 2.176361	 1.062362
O	 -1.051958	 2.035060	 0.702949
H	 -2.525608	 3.188732	 1.416528
H	 -2.664745	 1.485307	 1.857679
C	 -0.719715	 0.768384	 0.229244
C	 0.719720	 0.768376	 -0.229267
H	 -0.844791	 0.025070	 1.017619
H	 -1.361149	 0.485843	 -0.603065
O	 1.392611	 -0.295398	 0.366430
H	 0.750534	 0.687200	 -1.313918
H	 1.185043	 1.714359	 0.050526
C	 2.706965	 -0.449871	 -0.062409
H	 2.756559	 -0.644779	 -1.131878
H	 3.305899	 0.433456	 0.155466
H	 3.125548	 -1.294566	 0.467107

	symmetry c1
}
set optking {
	frozen_dihedral = ("
		7 10 13 14,
		2 3 6 7
	")
}

ee = energy('scf')
oeprop('DIPOLE', 'QUADRUPOLE', 'MULLIKEN_CHARGES')
f=open( 'psi4out.xyz', 'w' )
f.write( "16  " )
f.write( str(ee) + "\n" )
f.write( MOL.save_string_xyz() )
f.close()
--------------------------------------------------------------------------

  Memory set to   2.000 GiB by Python script.

*** tstart() called on cx1-3-2-2.cx1.hpc.ic.ac.uk
*** at Tue Jul  5 16:33:09 2016


         ---------------------------------------------------------
                                   SCF
            by Justin Turney, Rob Parrish, and Andy Simmonett
                              RHF Reference
                        1 Threads,   2000 MiB Core
         ---------------------------------------------------------

  ==> Geometry <==

    Molecular point group: c1
    Full point group: C1

    Geometry (in Angstrom), charge = 0, multiplicity = 1:

       Center              X                  Y                   Z               Mass       
    ------------   -----------------  -----------------  -----------------  -----------------
           H         -3.159321759357     1.173187941354    -0.132853779541     1.007825032070
           C         -2.498968759357     1.342146941354     0.715395220459    12.000000000000
           O         -1.162483759357     1.200845941354     0.355982220459    15.994914619560
           H         -2.636133759357     2.354517941354     1.069561220459     1.007825032070
           H         -2.775270759357     0.651092941354     1.510712220459     1.007825032070
           C         -0.830240759357    -0.065830058646    -0.117722779541    12.000000000000
           C          0.609194240643    -0.065838058646    -0.576233779541    12.000000000000
           H         -0.955316759357    -0.809144058646     0.670652220459     1.007825032070
           H         -1.471674759357    -0.348371058646    -0.950031779541     1.007825032070
           O          1.282085240643    -1.129612058646     0.019463220459    15.994914619560
           H          0.640008240643    -0.147014058646    -1.660884779541     1.007825032070
           H          1.074517240643     0.880144941354    -0.296440779541     1.007825032070
           C          2.596439240643    -1.284085058646    -0.409375779541    12.000000000000
           H          2.646033240643    -1.478993058646    -1.478844779541     1.007825032070
           H          3.195373240643    -0.400758058646    -0.191500779541     1.007825032070
           H          3.015022240643    -2.128780058646     0.120140220459     1.007825032070

  Running in c1 symmetry.

  Rotational constants: A =      0.57249  B =      0.04428  C =      0.04377 [cm^-1]
  Rotational constants: A =  17162.74949  B =   1327.41905  C =   1312.04947 [MHz]
  Nuclear repulsion =  255.493288528268494

  Charge       = 0
  Multiplicity = 1
  Electrons    = 50
  Nalpha       = 25
  Nbeta        = 25

  ==> Algorithm <==

  SCF Algorithm Type is DF.
  DIIS enabled.
  MOM disabled.
  Fractional occupation disabled.
  Guess Type is CORE.
  Energy threshold   = 1.00e-06
  Density threshold  = 1.00e-06
  Integral threshold = 0.00e+00

  ==> Primary Basis <==

  Basis Set: 6-31G*
    Number of shells: 56
    Number of basis function: 110
    Number of Cartesian functions: 110
    Spherical Harmonics?: false
    Max angular momentum: 2

  ==> Pre-Iterations <==

   -------------------------------------------------------
    Irrep   Nso     Nmo     Nalpha   Nbeta   Ndocc  Nsocc
   -------------------------------------------------------
     A        110     110       0       0       0       0
   -------------------------------------------------------
    Total     110     110      25      25      25       0
   -------------------------------------------------------

 OEINTS: Overlap, kinetic, potential, dipole, and quadrupole integrals
         stored in file 35.

  ==> Integral Setup <==

  ==> DFJK: Density-Fitted J/K Matrices <==

    J tasked:                  Yes
    K tasked:                  Yes
    wK tasked:                  No
    OpenMP threads:              1
    Integrals threads:           1
    Memory (MB):              1430
    Algorithm:                Core
    Integral Cache:           NONE
    Schwarz Cutoff:          1E-12
    Fitting Condition:       1E-12

   => Auxiliary Basis Set <=

  Basis Set: 
    Number of shells: 234
    Number of basis function: 736
    Number of Cartesian functions: 736
    Spherical Harmonics?: false
    Max angular momentum: 3

  Minimum eigenvalue in the overlap matrix is 3.6305812190E-03.
  Using Symmetric Orthogonalization.
  SCF Guess: Core (One-Electron) Hamiltonian.

  ==> Iterations <==

                           Total Energy        Delta E     RMS |[F,P]|

   @DF-RHF iter   1:  -243.05531731501301   -2.43055e+02   7.53610e-02 
   @DF-RHF iter   2:  -213.71386949031265    2.93414e+01   6.17044e-02 DIIS
   @DF-RHF iter   3:  -271.65835266561419   -5.79445e+01   5.07005e-02 DIIS
   @DF-RHF iter   4:  -305.62420265820538   -3.39658e+01   1.58708e-02 DIIS
   @DF-RHF iter   5:  -306.70154688230127   -1.07734e+00   7.16975e-03 DIIS
   @DF-RHF iter   6:  -306.96137173787668   -2.59825e-01   1.21882e-03 DIIS
   @DF-RHF iter   7:  -306.97277517037514   -1.14034e-02   3.24517e-04 DIIS
   @DF-RHF iter   8:  -306.97361035069002   -8.35180e-04   1.29818e-04 DIIS
   @DF-RHF iter   9:  -306.97372879253271   -1.18442e-04   5.52849e-05 DIIS
   @DF-RHF iter  10:  -306.97374839057215   -1.95980e-05   2.34189e-05 DIIS
   @DF-RHF iter  11:  -306.97375228698434   -3.89641e-06   4.71616e-06 DIIS
   @DF-RHF iter  12:  -306.97375246064018   -1.73656e-07   1.32436e-06 DIIS
   @DF-RHF iter  13:  -306.97375247510581   -1.44656e-08   3.47346e-07 DIIS

  ==> Post-Iterations <==

    Orbital Energies (a.u.)
    -----------------------

    Doubly Occupied:                                                      

       1A    -20.557214     2A    -20.557211     3A    -11.266166  
       4A    -11.265788     5A    -11.265781     6A    -11.265515  
       7A     -1.389183     8A     -1.376865     9A     -1.030879  
      10A     -0.940197    11A     -0.886654    12A     -0.829097  
      13A     -0.688483    14A     -0.677788    15A     -0.658999  
      16A     -0.643480    17A     -0.627232    18A     -0.599082  
      19A     -0.558549    20A     -0.526598    21A     -0.508933  
      22A     -0.481403    23A     -0.466052    24A     -0.421384  
      25A     -0.410321  

    Virtual:                                                              

      26A      0.237128    27A      0.240390    28A      0.283786  
      29A      0.294612    30A      0.315360    31A      0.316862  
      32A      0.326451    33A      0.331132    34A      0.342142  
      35A      0.348613    36A      0.359225    37A      0.375673  
      38A      0.437720    39A      0.475701    40A      0.484396  
      41A      0.702845    42A      0.754171    43A      0.772741  
      44A      0.775291    45A      0.781991    46A      0.799284  
      47A      0.819336    48A      0.865073    49A      0.874956  
      50A      0.983201    51A      0.999342    52A      1.015966  
      53A      1.064922    54A      1.101127    55A      1.118018  
      56A      1.138902    57A      1.150930    58A      1.153747  
      59A      1.158089    60A      1.188310    61A      1.188827  
      62A      1.215177    63A      1.225392    64A      1.238960  
      65A      1.307048    66A      1.325897    67A      1.340294  
      68A      1.417071    69A      1.502817    70A      1.535270  
      71A      1.635942    72A      1.641968    73A      1.715632  
      74A      1.773220    75A      1.789600    76A      1.795487  
      77A      1.849949    78A      1.960404    79A      2.048138  
      80A      2.118804    81A      2.213849    82A      2.224947  
      83A      2.320126    84A      2.388168    85A      2.399409  
      86A      2.431278    87A      2.434646    88A      2.453723  
      89A      2.468418    90A      2.493465    91A      2.540674  
      92A      2.625100    93A      2.635787    94A      2.648837  
      95A      2.695850    96A      2.735879    97A      2.873191  
      98A      2.924901    99A      2.973585   100A      3.009932  
     101A      3.140913   102A      3.183958   103A      3.342623  
     104A      3.361381   105A      4.372029   106A      4.380125  
     107A      4.622338   108A      4.658248   109A      4.702618  
     110A      4.924479  

    Final Occupation by Irrep:
              A 
    DOCC [    25 ]

  Energy converged.

  @DF-RHF Final Energy:  -306.97375247510581

   => Energetics <=

    Nuclear Repulsion Energy =            255.4932885282684936
    One-Electron Energy =                -925.1363216783618100
    Two-Electron Energy =                 362.6692806749875899
    DFT Exchange-Correlation Energy =       0.0000000000000000
    Empirical Dispersion Energy =           0.0000000000000000
    PCM Polarization Energy =               0.0000000000000000
    EFP Energy =                            0.0000000000000000
    Total Energy =                       -306.9737524751056981

    Alert: EFP and PCM quantities not currently incorporated into SCF psivars.

Properties will be evaluated at   0.000000,   0.000000,   0.000000 Bohr
  ==> Properties <==


Properties computed using the SCF density matrix

  Nuclear Dipole Moment: (a.u.)
     X:    -0.3995      Y:    -0.2379      Z:    -1.2539

  Electronic Dipole Moment: (a.u.)
     X:     0.2744      Y:     0.1634      Z:     0.8612

  Dipole Moment: (a.u.)
     X:    -0.1251      Y:    -0.0745      Z:    -0.3927     Total:     0.4188

  Dipole Moment: (Debye)
     X:    -0.3180      Y:    -0.1894      Z:    -0.9981     Total:     1.0645


  Saving occupied orbitals to File 180.

*** tstop() called on cx1-3-2-2.cx1.hpc.ic.ac.uk at Tue Jul  5 16:33:16 2016
Module time:
	user time   =       6.35 seconds =       0.11 minutes
	system time =       0.04 seconds =       0.00 minutes
	total time  =          7 seconds =       0.12 minutes
Total time:
	user time   =       6.35 seconds =       0.11 minutes
	system time =       0.04 seconds =       0.00 minutes
	total time  =          7 seconds =       0.12 minutes


Properties will be evaluated at   0.000000,   0.000000,   0.000000 Bohr

Properties computed using the  density matrix

  Nuclear Dipole Moment: (a.u.)
     X:    -0.3995      Y:    -0.2379      Z:    -1.2539

  Electronic Dipole Moment: (a.u.)
     X:     0.2744      Y:     0.1634      Z:     0.8612

  Dipole Moment: (a.u.)
     X:    -0.1251      Y:    -0.0745      Z:    -0.3927     Total:     0.4188

  Dipole Moment: (Debye)
     X:    -0.3180      Y:    -0.1894      Z:    -0.9981     Total:     1.0645

  Quadrupole Moment: (Debye Ang)
    XX:   -30.2615     YY:   -40.2824     ZZ:   -37.6939
    XY:    -1.6072     XZ:    -2.2349     YZ:     0.9004

  Traceless Quadrupole Moment: (Debye Ang)
    XX:     5.8178     YY:    -4.2031     ZZ:    -1.6147
    XY:    -1.6072     XZ:    -2.2349     YZ:     0.9004

  Mulliken Charges: (a.u.)
   Center  Symbol    Alpha    Beta     Spin     Total
       1     H     0.42982  0.42982  0.00000  0.14037
       2     C     3.08051  3.08051  0.00000 -0.16101
       3     O     4.30687  4.30687  0.00000 -0.61374
       4     H     0.41156  0.41156  0.00000  0.17688
       5     H     0.42840  0.42840  0.00000  0.14319
       6     C     2.99883  2.99883  0.00000  0.00233
       7     C     2.99883  2.99883  0.00000  0.00233
       8     H     0.41385  0.41385  0.00000  0.17229
       9     H     0.43016  0.43016  0.00000  0.13969
      10     O     4.30687  4.30687  0.00000 -0.61374
      11     H     0.43016  0.43016  0.00000  0.13969
      12     H     0.41385  0.41385  0.00000  0.17229
      13     C     3.08051  3.08051  0.00000 -0.16101
      14     H     0.42982  0.42982  0.00000  0.14037
      15     H     0.42841  0.42841  0.00000  0.14319
      16     H     0.41156  0.41156  0.00000  0.17688

   Total alpha = 25.00000, Total beta = 25.00000, Total charge = -0.00000


*** PSI4 exiting successfully. Buy a developer a beer!
