    -----------------------------------------------------------------------
          Psi4: An Open-Source Ab Initio Electronic Structure Package
                              Psi4 (no tag) Driver

                          Git: Rev {detached?}  

    J. M. Turney, A. C. Simmonett, R. M. Parrish, E. G. Hohenstein,
    F. A. Evangelista, J. T. Fermann, B. J. Mintz, L. A. Burns, J. J. Wilke,
    M. L. Abrams, N. J. Russ, M. L. Leininger, C. L. Janssen, E. T. Seidl,
    W. D. Allen, H. F. Schaefer, R. A. King, E. F. Valeev, C. D. Sherrill,
    and T. D. Crawford, WIREs Comput. Mol. Sci. 2, 556-565 (2012)
    (doi: 10.1002/wcms.93)

                         Additional Contributions by
    A. E. DePrince, M. Saitow, U. Bozkaya, A. Yu. Sokolov
    -----------------------------------------------------------------------


    Psi4 started on: Tue Jul  5 16:50:56 2016

    Process ID:  32695
    PSI4DATADIR: /export131/home/mjharvey/miniconda3/share
    Memory level set to 256.000 MB

  ==> Input File <==

--------------------------------------------------------------------------
set {
	reference rhf
	basis 6-31G*
}


set_num_threads( 1 )
memory 2 gb

molecule MOL {
0 1

O	 0.888560	 1.036733	 0.704466
C	 0.576249	 0.131685	 -0.000108
C	 -0.766779	 -0.556801	 -0.000461
O	 1.391071	 -0.402883	 -0.900645
C	 -1.945214	 0.412366	 0.000161
H	 -0.796911	 -1.211249	 -0.867467
H	 -0.796854	 -1.212390	 0.865687
C	 -1.851003	 1.430701	 -1.135043
H	 -1.986407	 0.925269	 0.955062
H	 -2.870006	 -0.148553	 -0.081713
H	 -0.946584	 2.027704	 -1.057156
H	 -2.696928	 2.110022	 -1.116727
H	 -1.841119	 0.942075	 -2.105414
C	 2.491270	 0.384184	 -1.319326
H	 2.149926	 1.302934	 -1.774215
H	 3.024777	 -0.214670	 -2.040860
H	 3.131295	 0.619193	 -0.481085

	symmetry c1
}
set optking {
	frozen_dihedral = ("
		1 2 3 6,
		9 5 3 6
	")
}

ee = energy('scf')
oeprop('DIPOLE', 'QUADRUPOLE', 'MULLIKEN_CHARGES')
f=open( 'psi4out.xyz', 'w' )
f.write( "17  " )
f.write( str(ee) + "\n" )
f.write( MOL.save_string_xyz() )
f.close()
--------------------------------------------------------------------------

  Memory set to   2.000 GiB by Python script.

*** tstart() called on cx1-3-2-3.cx1.hpc.ic.ac.uk
*** at Tue Jul  5 16:50:56 2016


         ---------------------------------------------------------
                                   SCF
            by Justin Turney, Rob Parrish, and Andy Simmonett
                              RHF Reference
                        1 Threads,   2000 MiB Core
         ---------------------------------------------------------

  ==> Geometry <==

    Molecular point group: c1
    Full point group: C1

    Geometry (in Angstrom), charge = 0, multiplicity = 1:

       Center              X                  Y                   Z               Mass       
    ------------   -----------------  -----------------  -----------------  -----------------
           O          0.742975085395     0.674773070146     1.099882095805    15.994914619560
           C          0.430664085395    -0.230274929854     0.395308095805    12.000000000000
           C         -0.912363914605    -0.918760929854     0.394955095805    12.000000000000
           O          1.245486085395    -0.764842929854    -0.505228904195    15.994914619560
           C         -2.090798914605     0.050406070146     0.395577095805    12.000000000000
           H         -0.942495914605    -1.573208929854    -0.472050904195     1.007825032070
           H         -0.942438914605    -1.574349929854     1.261103095805     1.007825032070
           C         -1.996587914605     1.068741070146    -0.739626904195    12.000000000000
           H         -2.131991914605     0.563309070146     1.350478095805     1.007825032070
           H         -3.015590914605    -0.510512929854     0.313703095805     1.007825032070
           H         -1.092168914605     1.665744070146    -0.661739904195     1.007825032070
           H         -2.842512914605     1.748062070146    -0.721310904195     1.007825032070
           H         -1.986703914605     0.580115070146    -1.709997904195     1.007825032070
           C          2.345685085395     0.022224070146    -0.923909904195    12.000000000000
           H          2.004341085395     0.940974070146    -1.378798904195     1.007825032070
           H          2.879192085395    -0.576629929854    -1.645443904195     1.007825032070
           H          2.985710085395     0.257233070146    -0.085668904195     1.007825032070

  Running in c1 symmetry.

  Rotational constants: A =      0.15892  B =      0.05322  C =      0.05157 [cm^-1]
  Rotational constants: A =   4764.29353  B =   1595.62344  C =   1545.99218 [MHz]
  Nuclear repulsion =  321.547165499290259

  Charge       = 0
  Multiplicity = 1
  Electrons    = 56
  Nalpha       = 28
  Nbeta        = 28

  ==> Algorithm <==

  SCF Algorithm Type is DF.
  DIIS enabled.
  MOM disabled.
  Fractional occupation disabled.
  Guess Type is CORE.
  Energy threshold   = 1.00e-06
  Density threshold  = 1.00e-06
  Integral threshold = 0.00e+00

  ==> Primary Basis <==

  Basis Set: 6-31G*
    Number of shells: 62
    Number of basis function: 125
    Number of Cartesian functions: 125
    Spherical Harmonics?: false
    Max angular momentum: 2

  ==> Pre-Iterations <==

   -------------------------------------------------------
    Irrep   Nso     Nmo     Nalpha   Nbeta   Ndocc  Nsocc
   -------------------------------------------------------
     A        125     125       0       0       0       0
   -------------------------------------------------------
    Total     125     125      28      28      28       0
   -------------------------------------------------------

 OEINTS: Overlap, kinetic, potential, dipole, and quadrupole integrals
         stored in file 35.

  ==> Integral Setup <==

  ==> DFJK: Density-Fitted J/K Matrices <==

    J tasked:                  Yes
    K tasked:                  Yes
    wK tasked:                  No
    OpenMP threads:              1
    Integrals threads:           1
    Memory (MB):              1430
    Algorithm:                Core
    Integral Cache:           NONE
    Schwarz Cutoff:          1E-12
    Fitting Condition:       1E-12

   => Auxiliary Basis Set <=

  Basis Set: 
    Number of shells: 258
    Number of basis function: 817
    Number of Cartesian functions: 817
    Spherical Harmonics?: false
    Max angular momentum: 3

  Minimum eigenvalue in the overlap matrix is 2.8567900827E-03.
  Using Symmetric Orthogonalization.
  SCF Guess: Core (One-Electron) Hamiltonian.

  ==> Iterations <==

                           Total Energy        Delta E     RMS |[F,P]|

   @DF-RHF iter   1:  -233.88849955177000   -2.33888e+02   8.09747e-02 
   @DF-RHF iter   2:  -180.97647716894051    5.29120e+01   7.74468e-02 DIIS
   @DF-RHF iter   3:  -261.59294427113434   -8.06165e+01   5.62234e-02 DIIS
   @DF-RHF iter   4:  -276.96504665618102   -1.53721e+01   6.86770e-02 DIIS
   @DF-RHF iter   5:  -341.75012091462474   -6.47851e+01   1.42292e-02 DIIS
   @DF-RHF iter   6:  -343.72874165823998   -1.97862e+00   1.24500e-02 DIIS
   @DF-RHF iter   7:  -344.81351536312809   -1.08477e+00   3.15012e-03 DIIS
   @DF-RHF iter   8:  -344.87862340554159   -6.51080e-02   1.67402e-03 DIIS
   @DF-RHF iter   9:  -344.89877668768020   -2.01533e-02   4.18083e-04 DIIS
   @DF-RHF iter  10:  -344.90075176020730   -1.97507e-03   1.16959e-04 DIIS
   @DF-RHF iter  11:  -344.90089429232955   -1.42532e-04   3.95825e-05 DIIS
   @DF-RHF iter  12:  -344.90091531318603   -2.10209e-05   1.10408e-05 DIIS
   @DF-RHF iter  13:  -344.90091694722753   -1.63404e-06   3.60952e-06 DIIS
   @DF-RHF iter  14:  -344.90091712701735   -1.79790e-07   1.24963e-06 DIIS
   @DF-RHF iter  15:  -344.90091716920153   -4.21842e-08   4.56176e-07 DIIS

  ==> Post-Iterations <==

    Orbital Energies (a.u.)
    -----------------------

    Doubly Occupied:                                                      

       1A    -20.603032     2A    -20.545248     3A    -11.372842  
       4A    -11.282163     5A    -11.233937     6A    -11.228125  
       7A    -11.213827     8A     -1.469412     9A     -1.363263  
      10A     -1.083180    11A     -0.999046    12A     -0.940708  
      13A     -0.835005    14A     -0.766957    15A     -0.697960  
      16A     -0.681254    17A     -0.670174    18A     -0.625827  
      19A     -0.618269    20A     -0.572466    21A     -0.560746  
      22A     -0.537920    23A     -0.525401    24A     -0.495368  
      25A     -0.487131    26A     -0.480717    27A     -0.454796  
      28A     -0.434749  

    Virtual:                                                              

      29A      0.186914    30A      0.236465    31A      0.257719  
      32A      0.284372    33A      0.290797    34A      0.305139  
      35A      0.316724    36A      0.318075    37A      0.329405  
      38A      0.334823    39A      0.347103    40A      0.357056  
      41A      0.403015    42A      0.431405    43A      0.455619  
      44A      0.525513    45A      0.567463    46A      0.703893  
      47A      0.713440    48A      0.736897    49A      0.744412  
      50A      0.763935    51A      0.789096    52A      0.799891  
      53A      0.849653    54A      0.896558    55A      0.914319  
      56A      0.942071    57A      0.960035    58A      0.990672  
      59A      1.028719    60A      1.067562    61A      1.089256  
      62A      1.115628    63A      1.126605    64A      1.132233  
      65A      1.148725    66A      1.175897    67A      1.194618  
      68A      1.207571    69A      1.211403    70A      1.222303  
      71A      1.240409    72A      1.248584    73A      1.263741  
      74A      1.312724    75A      1.371529    76A      1.384332  
      77A      1.388162    78A      1.497707    79A      1.515756  
      80A      1.641765    81A      1.658910    82A      1.760311  
      83A      1.776327    84A      1.835449    85A      1.868288  
      86A      1.876369    87A      1.948661    88A      1.990182  
      89A      2.053773    90A      2.096082    91A      2.117581  
      92A      2.154616    93A      2.192230    94A      2.249517  
      95A      2.272450    96A      2.313421    97A      2.362324  
      98A      2.374012    99A      2.400446   100A      2.433992  
     101A      2.454241   102A      2.526177   103A      2.615403  
     104A      2.647823   105A      2.663549   106A      2.678224  
     107A      2.701581   108A      2.729021   109A      2.799454  
     110A      2.827591   111A      2.891506   112A      2.957212  
     113A      3.052482   114A      3.105726   115A      3.152724  
     116A      3.354284   117A      3.421792   118A      3.552150  
     119A      4.438622   120A      4.548793   121A      4.647059  
     122A      4.676379   123A      4.761622   124A      4.855641  
     125A      4.992866  

    Final Occupation by Irrep:
              A 
    DOCC [    28 ]

  Energy converged.

  @DF-RHF Final Energy:  -344.90091716920153

   => Energetics <=

    Nuclear Repulsion Energy =            321.5471654992902586
    One-Electron Energy =               -1107.3370898805212619
    Two-Electron Energy =                 440.8890072120290142
    DFT Exchange-Correlation Energy =       0.0000000000000000
    Empirical Dispersion Energy =           0.0000000000000000
    PCM Polarization Energy =               0.0000000000000000
    EFP Energy =                            0.0000000000000000
    Total Energy =                       -344.9009171692019891

    Alert: EFP and PCM quantities not currently incorporated into SCF psivars.

Properties will be evaluated at   0.000000,   0.000000,   0.000000 Bohr
  ==> Properties <==


Properties computed using the SCF density matrix

  Nuclear Dipole Moment: (a.u.)
     X:    -4.7572      Y:     1.4252      Z:    -3.5124

  Electronic Dipole Moment: (a.u.)
     X:     4.6313      Y:    -1.7958      Z:     2.8613

  Dipole Moment: (a.u.)
     X:    -0.1258      Y:    -0.3706      Z:    -0.6511     Total:     0.7597

  Dipole Moment: (Debye)
     X:    -0.3198      Y:    -0.9420      Z:    -1.6550     Total:     1.9310


  Saving occupied orbitals to File 180.

*** tstop() called on cx1-3-2-3.cx1.hpc.ic.ac.uk at Tue Jul  5 16:51:07 2016
Module time:
	user time   =      10.48 seconds =       0.17 minutes
	system time =       0.06 seconds =       0.00 minutes
	total time  =         11 seconds =       0.18 minutes
Total time:
	user time   =      10.48 seconds =       0.17 minutes
	system time =       0.06 seconds =       0.00 minutes
	total time  =         11 seconds =       0.18 minutes


Properties will be evaluated at   0.000000,   0.000000,   0.000000 Bohr

Properties computed using the  density matrix

  Nuclear Dipole Moment: (a.u.)
     X:    -4.7572      Y:     1.4252      Z:    -3.5124

  Electronic Dipole Moment: (a.u.)
     X:     4.6313      Y:    -1.7958      Z:     2.8613

  Dipole Moment: (a.u.)
     X:    -0.1258      Y:    -0.3706      Z:    -0.6511     Total:     0.7597

  Dipole Moment: (Debye)
     X:    -0.3198      Y:    -0.9420      Z:    -1.6550     Total:     1.9310

  Quadrupole Moment: (Debye Ang)
    XX:   -38.0838     YY:   -44.9019     ZZ:   -44.7576
    XY:     0.4535     XZ:    -3.5389     YZ:    -3.3055

  Traceless Quadrupole Moment: (Debye Ang)
    XX:     4.4973     YY:    -2.3208     ZZ:    -2.1765
    XY:     0.4535     XZ:    -3.5389     YZ:    -3.3055

  Mulliken Charges: (a.u.)
   Center  Symbol    Alpha    Beta     Spin     Total
       1     O     4.28446  4.28446  0.00000 -0.56892
       2     C     2.60668  2.60668  0.00000  0.78665
       3     C     3.20889  3.20889  0.00000 -0.41778
       4     O     4.30505  4.30505  0.00000 -0.61011
       5     C     3.15355  3.15355  0.00000 -0.30710
       6     H     0.40120  0.40120  0.00000  0.19759
       7     H     0.39889  0.39889  0.00000  0.20222
       8     C     3.25198  3.25198  0.00000 -0.50397
       9     H     0.40732  0.40732  0.00000  0.18536
      10     H     0.41529  0.41529  0.00000  0.16941
      11     H     0.41048  0.41048  0.00000  0.17905
      12     H     0.41514  0.41514  0.00000  0.16972
      13     H     0.42124  0.42124  0.00000  0.15752
      14     C     3.09446  3.09446  0.00000 -0.18892
      15     H     0.41302  0.41302  0.00000  0.17396
      16     H     0.40774  0.40774  0.00000  0.18453
      17     H     0.40460  0.40460  0.00000  0.19080

   Total alpha = 28.00000, Total beta = 28.00000, Total charge =  0.00000


*** PSI4 exiting successfully. Buy a developer a beer!
