    -----------------------------------------------------------------------
          Psi4: An Open-Source Ab Initio Electronic Structure Package
                              Psi4 (no tag) Driver

                          Git: Rev {detached?}  

    J. M. Turney, A. C. Simmonett, R. M. Parrish, E. G. Hohenstein,
    F. A. Evangelista, J. T. Fermann, B. J. Mintz, L. A. Burns, J. J. Wilke,
    M. L. Abrams, N. J. Russ, M. L. Leininger, C. L. Janssen, E. T. Seidl,
    W. D. Allen, H. F. Schaefer, R. A. King, E. F. Valeev, C. D. Sherrill,
    and T. D. Crawford, WIREs Comput. Mol. Sci. 2, 556-565 (2012)
    (doi: 10.1002/wcms.93)

                         Additional Contributions by
    A. E. DePrince, M. Saitow, U. Bozkaya, A. Yu. Sokolov
    -----------------------------------------------------------------------


    Psi4 started on: Tue Jul  5 16:38:43 2016

    Process ID:  32287
    PSI4DATADIR: /export131/home/mjharvey/miniconda3/share
    Memory level set to 256.000 MB

  ==> Input File <==

--------------------------------------------------------------------------
set {
	reference rhf
	basis 6-31G*
}


set_num_threads( 1 )
memory 2 gb

molecule MOL {
0 1

H	 -1.748661	 -2.220942	 -0.005015
C	 -1.343207	 -1.225221	 -0.013879
N	 -0.055091	 -1.100174	 -0.261126
C	 -2.150779	 -0.125890	 0.222726
C	 0.449969	 0.122615	 -0.277109
H	 -3.200618	 -0.238980	 0.422496
N	 -1.660212	 1.097703	 0.209594
C	 -0.371804	 1.219904	 -0.038265
C	 1.928147	 0.267347	 -0.541394
H	 0.029131	 2.217482	 -0.051283
C	 2.431467	 -0.715072	 -1.604190
H	 2.117204	 1.283468	 -0.870968
H	 2.477252	 0.122714	 0.383668
H	 3.490445	 -0.566037	 -1.789533
H	 1.899233	 -0.571823	 -2.537295
H	 2.287296	 -1.742924	 -1.286313

	symmetry c1
}
ee = energy('scf')
oeprop('DIPOLE', 'QUADRUPOLE', 'MULLIKEN_CHARGES')
f=open( 'psi4out.xyz', 'w' )
f.write( "16  " )
f.write( str(ee) + "\n" )
f.write( MOL.save_string_xyz() )
f.close()
--------------------------------------------------------------------------

  Memory set to   2.000 GiB by Python script.

*** tstart() called on cx1-3-6-2.cx1.hpc.ic.ac.uk
*** at Tue Jul  5 16:38:43 2016


         ---------------------------------------------------------
                                   SCF
            by Justin Turney, Rob Parrish, and Andy Simmonett
                              RHF Reference
                        1 Threads,   2000 MiB Core
         ---------------------------------------------------------

  ==> Geometry <==

    Molecular point group: c1
    Full point group: C1

    Geometry (in Angstrom), charge = 0, multiplicity = 1:

       Center              X                  Y                   Z               Mass       
    ------------   -----------------  -----------------  -----------------  -----------------
           H         -1.699755160736    -2.153939433386     0.305213929111     1.007825032070
           C         -1.294301160736    -1.158218433386     0.296349929111    12.000000000000
           N         -0.006185160736    -1.033171433386     0.049102929111    14.003074004780
           C         -2.101873160736    -0.058887433386     0.532954929111    12.000000000000
           C          0.498874839264     0.189617566614     0.033119929111    12.000000000000
           H         -3.151712160736    -0.171977433386     0.732724929111     1.007825032070
           N         -1.611306160736     1.164705566614     0.519822929111    14.003074004780
           C         -0.322898160736     1.286906566614     0.271963929111    12.000000000000
           C          1.977052839264     0.334349566614    -0.231165070889    12.000000000000
           H          0.078036839264     2.284484566614     0.258945929111     1.007825032070
           C          2.480372839264    -0.648069433386    -1.293961070889    12.000000000000
           H          2.166109839264     1.350470566614    -0.560739070889     1.007825032070
           H          2.526157839264     0.189716566614     0.693896929111     1.007825032070
           H          3.539350839264    -0.499034433386    -1.479304070889     1.007825032070
           H          1.948138839264    -0.504820433386    -2.227066070889     1.007825032070
           H          2.336201839264    -1.675921433386    -0.976084070889     1.007825032070

  Running in c1 symmetry.

  Rotational constants: A =      0.16981  B =      0.05246  C =      0.04179 [cm^-1]
  Rotational constants: A =   5090.88610  B =   1572.72496  C =   1252.75273 [MHz]
  Nuclear repulsion =  350.206317626639247

  Charge       = 0
  Multiplicity = 1
  Electrons    = 58
  Nalpha       = 29
  Nbeta        = 29

  ==> Algorithm <==

  SCF Algorithm Type is DF.
  DIIS enabled.
  MOM disabled.
  Fractional occupation disabled.
  Guess Type is CORE.
  Energy threshold   = 1.00e-06
  Density threshold  = 1.00e-06
  Integral threshold = 0.00e+00

  ==> Primary Basis <==

  Basis Set: 6-31G*
    Number of shells: 64
    Number of basis function: 136
    Number of Cartesian functions: 136
    Spherical Harmonics?: false
    Max angular momentum: 2

  ==> Pre-Iterations <==

   -------------------------------------------------------
    Irrep   Nso     Nmo     Nalpha   Nbeta   Ndocc  Nsocc
   -------------------------------------------------------
     A        136     136       0       0       0       0
   -------------------------------------------------------
    Total     136     136      29      29      29       0
   -------------------------------------------------------

 OEINTS: Overlap, kinetic, potential, dipole, and quadrupole integrals
         stored in file 35.

  ==> Integral Setup <==

  ==> DFJK: Density-Fitted J/K Matrices <==

    J tasked:                  Yes
    K tasked:                  Yes
    wK tasked:                  No
    OpenMP threads:              1
    Integrals threads:           1
    Memory (MB):              1430
    Algorithm:                Core
    Integral Cache:           NONE
    Schwarz Cutoff:          1E-12
    Fitting Condition:       1E-12

   => Auxiliary Basis Set <=

  Basis Set: 
    Number of shells: 264
    Number of basis function: 848
    Number of Cartesian functions: 848
    Spherical Harmonics?: false
    Max angular momentum: 3

  Minimum eigenvalue in the overlap matrix is 1.1563044926E-03.
  Using Symmetric Orthogonalization.
  SCF Guess: Core (One-Electron) Hamiltonian.

  ==> Iterations <==

                           Total Energy        Delta E     RMS |[F,P]|

   @DF-RHF iter   1:  -252.52198221646017   -2.52522e+02   6.93720e-02 
   @DF-RHF iter   2:  -127.90408380841353    1.24618e+02   8.06804e-02 DIIS
   @DF-RHF iter   3:  -230.84517778321879   -1.02941e+02   6.41099e-02 DIIS
   @DF-RHF iter   4:  -282.16783218106912   -5.13227e+01   5.54317e-02 DIIS
   @DF-RHF iter   5:  -337.59928621598215   -5.54315e+01   1.43705e-02 DIIS
   @DF-RHF iter   6:  -340.14377586396927   -2.54449e+00   8.38070e-03 DIIS
   @DF-RHF iter   7:  -340.70115431063687   -5.57378e-01   2.18276e-03 DIIS
   @DF-RHF iter   8:  -340.74513589323305   -4.39816e-02   9.66472e-04 DIIS
   @DF-RHF iter   9:  -340.75600156359462   -1.08657e-02   3.27265e-04 DIIS
   @DF-RHF iter  10:  -340.75723721499287   -1.23565e-03   8.36104e-05 DIIS
   @DF-RHF iter  11:  -340.75735291577621   -1.15701e-04   4.35296e-05 DIIS
   @DF-RHF iter  12:  -340.75737839966268   -2.54839e-05   1.52939e-05 DIIS
   @DF-RHF iter  13:  -340.75738306501739   -4.66535e-06   5.10853e-06 DIIS
   @DF-RHF iter  14:  -340.75738368875534   -6.23738e-07   2.43018e-06 DIIS
   @DF-RHF iter  15:  -340.75738389483581   -2.06080e-07   9.06416e-07 DIIS

  ==> Post-Iterations <==

    Orbital Energies (a.u.)
    -----------------------

    Doubly Occupied:                                                      

       1A    -15.587071     2A    -15.581890     3A    -11.281471  
       4A    -11.276419     5A    -11.272168     6A    -11.272046  
       7A    -11.233169     8A    -11.212933     9A     -1.313531  
      10A     -1.222258    11A     -1.083833    12A     -1.012331  
      13A     -0.907865    14A     -0.889833    15A     -0.825410  
      16A     -0.717686    17A     -0.707475    18A     -0.658490  
      19A     -0.623276    20A     -0.601642    21A     -0.570531  
      22A     -0.558646    23A     -0.519628    24A     -0.504287  
      25A     -0.500428    26A     -0.484476    27A     -0.429426  
      28A     -0.395102    29A     -0.345031  

    Virtual:                                                              

      30A      0.104182    31A      0.133848    32A      0.246990  
      33A      0.271236    34A      0.277666    35A      0.300795  
      36A      0.316720    37A      0.324965    38A      0.326469  
      39A      0.336882    40A      0.366682    41A      0.379790  
      42A      0.411201    43A      0.434792    44A      0.505301  
      45A      0.511809    46A      0.551278    47A      0.629454  
      48A      0.669179    49A      0.719524    50A      0.730053  
      51A      0.743184    52A      0.752547    53A      0.762736  
      54A      0.789185    55A      0.802599    56A      0.827154  
      57A      0.845116    58A      0.861125    59A      0.884616  
      60A      0.917917    61A      0.947791    62A      0.996953  
      63A      1.003732    64A      1.026335    65A      1.051320  
      66A      1.079451    67A      1.082179    68A      1.090859  
      69A      1.107694    70A      1.135952    71A      1.138698  
      72A      1.159026    73A      1.167534    74A      1.191883  
      75A      1.212652    76A      1.232504    77A      1.239273  
      78A      1.260284    79A      1.272720    80A      1.326952  
      81A      1.373555    82A      1.389948    83A      1.483302  
      84A      1.520653    85A      1.557766    86A      1.628147  
      87A      1.640861    88A      1.710812    89A      1.751820  
      90A      1.773181    91A      1.785370    92A      1.795711  
      93A      1.839578    94A      1.948397    95A      1.979073  
      96A      2.062593    97A      2.115859    98A      2.135762  
      99A      2.147932   100A      2.187199   101A      2.242434  
     102A      2.288432   103A      2.296638   104A      2.335397  
     105A      2.429593   106A      2.483105   107A      2.498934  
     108A      2.562354   109A      2.574411   110A      2.597182  
     111A      2.607439   112A      2.639362   113A      2.687673  
     114A      2.702521   115A      2.717595   116A      2.731010  
     117A      2.810523   118A      2.879223   119A      2.928584  
     120A      2.959988   121A      3.020492   122A      3.104083  
     123A      3.140851   124A      3.176309   125A      3.220724  
     126A      3.269426   127A      3.504722   128A      3.842574  
     129A      4.367369   130A      4.502301   131A      4.557936  
     132A      4.620161   133A      4.711270   134A      4.788788  
     135A      4.868246   136A      4.992213  

    Final Occupation by Irrep:
              A 
    DOCC [    29 ]

  Energy converged.

  @DF-RHF Final Energy:  -340.75738389483581

   => Energetics <=

    Nuclear Repulsion Energy =            350.2063176266392475
    One-Electron Energy =               -1154.7509345315550036
    Two-Electron Energy =                 463.7872330100789213
    DFT Exchange-Correlation Energy =       0.0000000000000000
    Empirical Dispersion Energy =           0.0000000000000000
    PCM Polarization Energy =               0.0000000000000000
    EFP Energy =                            0.0000000000000000
    Total Energy =                       -340.7573838948368348

    Alert: EFP and PCM quantities not currently incorporated into SCF psivars.

Properties will be evaluated at   0.000000,   0.000000,   0.000000 Bohr
  ==> Properties <==


Properties computed using the SCF density matrix

  Nuclear Dipole Moment: (a.u.)
     X:     7.2631      Y:    -1.1076      Z:    -3.0507

  Electronic Dipole Moment: (a.u.)
     X:    -7.0772      Y:     1.0274      Z:     3.0193

  Dipole Moment: (a.u.)
     X:     0.1859      Y:    -0.0802      Z:    -0.0314     Total:     0.2049

  Dipole Moment: (Debye)
     X:     0.4726      Y:    -0.2038      Z:    -0.0798     Total:     0.5208


  Saving occupied orbitals to File 180.

*** tstop() called on cx1-3-6-2.cx1.hpc.ic.ac.uk at Tue Jul  5 16:38:57 2016
Module time:
	user time   =      13.13 seconds =       0.22 minutes
	system time =       0.09 seconds =       0.00 minutes
	total time  =         14 seconds =       0.23 minutes
Total time:
	user time   =      13.13 seconds =       0.22 minutes
	system time =       0.09 seconds =       0.00 minutes
	total time  =         14 seconds =       0.23 minutes


Properties will be evaluated at   0.000000,   0.000000,   0.000000 Bohr

Properties computed using the  density matrix

  Nuclear Dipole Moment: (a.u.)
     X:     7.2631      Y:    -1.1076      Z:    -3.0507

  Electronic Dipole Moment: (a.u.)
     X:    -7.0772      Y:     1.0274      Z:     3.0193

  Dipole Moment: (a.u.)
     X:     0.1859      Y:    -0.0802      Z:    -0.0314     Total:     0.2049

  Dipole Moment: (Debye)
     X:     0.4726      Y:    -0.2038      Z:    -0.0798     Total:     0.5208

  Quadrupole Moment: (Debye Ang)
    XX:   -44.7727     YY:   -49.0730     ZZ:   -49.0796
    XY:     6.5850     XZ:    -0.1033     YZ:    -1.4741

  Traceless Quadrupole Moment: (Debye Ang)
    XX:     2.8691     YY:    -1.4312     ZZ:    -1.4378
    XY:     6.5850     XZ:    -0.1033     YZ:    -1.4741

  Mulliken Charges: (a.u.)
   Center  Symbol    Alpha    Beta     Spin     Total
       1     H     0.39397  0.39397  0.00000  0.21207
       2     C     2.98861  2.98861  0.00000  0.02277
       3     N     3.75578  3.75578  0.00000 -0.51155
       4     C     2.99855  2.99855  0.00000  0.00290
       5     C     2.87241  2.87241  0.00000  0.25519
       6     H     0.39428  0.39428  0.00000  0.21144
       7     N     3.72882  3.72882  0.00000 -0.45764
       8     C     3.00022  3.00022  0.00000 -0.00044
       9     C     3.17016  3.17016  0.00000 -0.34033
      10     H     0.39489  0.39489  0.00000  0.21022
      11     C     3.24025  3.24025  0.00000 -0.48050
      12     H     0.41454  0.41454  0.00000  0.17091
      13     H     0.40566  0.40566  0.00000  0.18868
      14     H     0.41942  0.41942  0.00000  0.16115
      15     H     0.41816  0.41816  0.00000  0.16368
      16     H     0.40428  0.40428  0.00000  0.19144

   Total alpha = 29.00000, Total beta = 29.00000, Total charge = -0.00000


*** PSI4 exiting successfully. Buy a developer a beer!
