    -----------------------------------------------------------------------
          Psi4: An Open-Source Ab Initio Electronic Structure Package
                              Psi4 (no tag) Driver

                          Git: Rev {detached?}  

    J. M. Turney, A. C. Simmonett, R. M. Parrish, E. G. Hohenstein,
    F. A. Evangelista, J. T. Fermann, B. J. Mintz, L. A. Burns, J. J. Wilke,
    M. L. Abrams, N. J. Russ, M. L. Leininger, C. L. Janssen, E. T. Seidl,
    W. D. Allen, H. F. Schaefer, R. A. King, E. F. Valeev, C. D. Sherrill,
    and T. D. Crawford, WIREs Comput. Mol. Sci. 2, 556-565 (2012)
    (doi: 10.1002/wcms.93)

                         Additional Contributions by
    A. E. DePrince, M. Saitow, U. Bozkaya, A. Yu. Sokolov
    -----------------------------------------------------------------------


    Psi4 started on: Tue Jul  5 16:31:31 2016

    Process ID:  13993
    PSI4DATADIR: /export131/home/mjharvey/miniconda3/share
    Memory level set to 256.000 MB

  ==> Input File <==

--------------------------------------------------------------------------
set {
	reference rhf
	basis 6-31G*
}


set_num_threads( 1 )
memory 2 gb

molecule MOL {
0 1

H	 2.556984	 -0.744720	 -1.339800
O	 1.837737	 -1.063965	 -0.803560
C	 0.867098	 -0.151320	 -0.827404
C	 -0.318135	 -0.576402	 0.000164
O	 0.966238	 0.861356	 -1.440311
C	 -1.454360	 0.441875	 -0.000474
H	 -0.650709	 -1.538573	 -0.380133
H	 0.041401	 -0.765316	 1.008156
C	 -2.826123	 -0.230780	 0.000056
H	 -1.357605	 1.085198	 -0.868380
H	 -1.357504	 1.086451	 0.866496
H	 -2.959731	 -0.858053	 -0.876869
H	 -3.619374	 0.509403	 -0.000080
H	 -2.959371	 -0.857318	 0.877556

	symmetry c1
}
set optking {
	frozen_dihedral = ("
		2 3 4 7,
		1 2 3 5
	")
}

ee = energy('scf')
oeprop('DIPOLE', 'QUADRUPOLE', 'MULLIKEN_CHARGES')
f=open( 'psi4out.xyz', 'w' )
f.write( "14  " )
f.write( str(ee) + "\n" )
f.write( MOL.save_string_xyz() )
f.close()
--------------------------------------------------------------------------

  Memory set to   2.000 GiB by Python script.

*** tstart() called on cx1-3-16-4.cx1.hpc.ic.ac.uk
*** at Tue Jul  5 16:31:31 2016


         ---------------------------------------------------------
                                   SCF
            by Justin Turney, Rob Parrish, and Andy Simmonett
                              RHF Reference
                        1 Threads,   2000 MiB Core
         ---------------------------------------------------------

  ==> Geometry <==

    Molecular point group: c1
    Full point group: C1

    Geometry (in Angstrom), charge = 0, multiplicity = 1:

       Center              X                  Y                   Z               Mass       
    ------------   -----------------  -----------------  -----------------  -----------------
           H          2.674135251898    -0.613667799616    -0.811239289077     1.007825032070
           O          1.954888251898    -0.932912799616    -0.274999289077    15.994914619560
           C          0.984249251898    -0.020267799616    -0.298843289077    12.000000000000
           C         -0.200983748102    -0.445349799616     0.528724710923    12.000000000000
           O          1.083389251898     0.992408200384    -0.911750289077    15.994914619560
           C         -1.337208748102     0.572927200384     0.528086710923    12.000000000000
           H         -0.533557748102    -1.407520799616     0.148427710923     1.007825032070
           H          0.158552251898    -0.634263799616     1.536716710923     1.007825032070
           C         -2.708971748102    -0.099727799616     0.528616710923    12.000000000000
           H         -1.240453748102     1.216250200384    -0.339819289077     1.007825032070
           H         -1.240352748102     1.217503200384     1.395056710923     1.007825032070
           H         -2.842579748102    -0.727000799616    -0.348308289077     1.007825032070
           H         -3.502222748102     0.640455200384     0.528480710923     1.007825032070
           H         -2.842219748102    -0.726265799616     1.406116710923     1.007825032070

  Running in c1 symmetry.

  Rotational constants: A =      0.29217  B =      0.06276  C =      0.05467 [cm^-1]
  Rotational constants: A =   8759.00131  B =   1881.54262  C =   1638.91852 [MHz]
  Nuclear repulsion =  240.605551544331774

  Charge       = 0
  Multiplicity = 1
  Electrons    = 48
  Nalpha       = 24
  Nbeta        = 24

  ==> Algorithm <==

  SCF Algorithm Type is DF.
  DIIS enabled.
  MOM disabled.
  Fractional occupation disabled.
  Guess Type is CORE.
  Energy threshold   = 1.00e-06
  Density threshold  = 1.00e-06
  Integral threshold = 0.00e+00

  ==> Primary Basis <==

  Basis Set: 6-31G*
    Number of shells: 52
    Number of basis function: 106
    Number of Cartesian functions: 106
    Spherical Harmonics?: false
    Max angular momentum: 2

  ==> Pre-Iterations <==

   -------------------------------------------------------
    Irrep   Nso     Nmo     Nalpha   Nbeta   Ndocc  Nsocc
   -------------------------------------------------------
     A        106     106       0       0       0       0
   -------------------------------------------------------
    Total     106     106      24      24      24       0
   -------------------------------------------------------

 OEINTS: Overlap, kinetic, potential, dipole, and quadrupole integrals
         stored in file 35.

  ==> Integral Setup <==

  ==> DFJK: Density-Fitted J/K Matrices <==

    J tasked:                  Yes
    K tasked:                  Yes
    wK tasked:                  No
    OpenMP threads:              1
    Integrals threads:           1
    Memory (MB):              1430
    Algorithm:                Core
    Integral Cache:           NONE
    Schwarz Cutoff:          1E-12
    Fitting Condition:       1E-12

   => Auxiliary Basis Set <=

  Basis Set: 
    Number of shells: 216
    Number of basis function: 686
    Number of Cartesian functions: 686
    Spherical Harmonics?: false
    Max angular momentum: 3

  Minimum eigenvalue in the overlap matrix is 3.4272841139E-03.
  Using Symmetric Orthogonalization.
  SCF Guess: Core (One-Electron) Hamiltonian.

  ==> Iterations <==

                           Total Energy        Delta E     RMS |[F,P]|

   @DF-RHF iter   1:  -242.31393048720770   -2.42314e+02   7.39412e-02 
   @DF-RHF iter   2:  -136.10234923591423    1.06212e+02   9.62607e-02 DIIS
   @DF-RHF iter   3:  -286.36184461307073   -1.50259e+02   3.47351e-02 DIIS
   @DF-RHF iter   4:  -227.33154518210677    5.90303e+01   8.15974e-02 DIIS
   @DF-RHF iter   5:  -264.08019842576323   -3.67487e+01   5.63153e-02 DIIS
   @DF-RHF iter   6:  -289.77642713681212   -2.56962e+01   3.73222e-02 DIIS
   @DF-RHF iter   7:  -305.49768539970069   -1.57213e+01   7.86755e-03 DIIS
   @DF-RHF iter   8:  -305.81066340274106   -3.12978e-01   3.66763e-03 DIIS
   @DF-RHF iter   9:  -305.86672297513633   -5.60596e-02   1.12886e-03 DIIS
   @DF-RHF iter  10:  -305.87633363259692   -9.61066e-03   3.27928e-04 DIIS
   @DF-RHF iter  11:  -305.87719124542446   -8.57613e-04   1.44731e-04 DIIS
   @DF-RHF iter  12:  -305.87732951974056   -1.38274e-04   4.39962e-05 DIIS
   @DF-RHF iter  13:  -305.87735028474231   -2.07650e-05   1.25907e-05 DIIS
   @DF-RHF iter  14:  -305.87735186709870   -1.58236e-06   4.65706e-06 DIIS
   @DF-RHF iter  15:  -305.87735209442144   -2.27323e-07   1.09737e-06 DIIS
   @DF-RHF iter  16:  -305.87735211368386   -1.92624e-08   3.96696e-07 DIIS

  ==> Post-Iterations <==

    Orbital Energies (a.u.)
    -----------------------

    Doubly Occupied:                                                      

       1A    -20.613586     2A    -20.552762     3A    -11.382248  
       4A    -11.240265     5A    -11.222582     6A    -11.216014  
       7A     -1.475683     8A     -1.366995     9A     -1.082436  
      10A     -0.978658    11A     -0.857716    12A     -0.790308  
      13A     -0.700991    14A     -0.692634    15A     -0.663481  
      16A     -0.614094    17A     -0.595444    18A     -0.570177  
      19A     -0.550432    20A     -0.498172    21A     -0.492085  
      22A     -0.479900    23A     -0.478617    24A     -0.446362  

    Virtual:                                                              

      25A      0.193925    26A      0.228526    27A      0.235486  
      28A      0.276884    29A      0.289995    30A      0.315438  
      31A      0.325162    32A      0.335054    33A      0.357147  
      34A      0.403229    35A      0.428793    36A      0.468262  
      37A      0.501349    38A      0.541670    39A      0.710888  
      40A      0.741176    41A      0.759147    42A      0.783007  
      43A      0.789502    44A      0.827259    45A      0.860209  
      46A      0.933489    47A      0.950399    48A      0.960835  
      49A      1.018689    50A      1.047899    51A      1.066801  
      52A      1.101472    53A      1.117141    54A      1.124024  
      55A      1.165326    56A      1.181726    57A      1.195895  
      58A      1.215266    59A      1.219887    60A      1.229671  
      61A      1.245604    62A      1.259417    63A      1.278948  
      64A      1.365050    65A      1.407463    66A      1.520624  
      67A      1.601623    68A      1.657104    69A      1.680557  
      70A      1.731292    71A      1.803905    72A      1.883944  
      73A      1.950055    74A      2.002772    75A      2.061908  
      76A      2.080756    77A      2.105540    78A      2.108878  
      79A      2.146487    80A      2.242710    81A      2.266703  
      82A      2.281244    83A      2.308579    84A      2.361880  
      85A      2.403947    86A      2.438225    87A      2.561237  
      88A      2.637715    89A      2.699704    90A      2.711391  
      91A      2.746564    92A      2.803640    93A      2.823881  
      94A      2.941346    95A      2.992715    96A      3.024666  
      97A      3.117745    98A      3.277839    99A      3.387221  
     100A      3.502397   101A      4.257304   102A      4.512264  
     103A      4.601780   104A      4.693795   105A      4.840242  
     106A      4.972850  

    Final Occupation by Irrep:
              A 
    DOCC [    24 ]

  Energy converged.

  @DF-RHF Final Energy:  -305.87735211368386

   => Energetics <=

    Nuclear Repulsion Energy =            240.6055515443317745
    One-Electron Energy =                -893.8424962556632636
    Two-Electron Energy =                 347.3595925976478611
    DFT Exchange-Correlation Energy =       0.0000000000000000
    Empirical Dispersion Energy =           0.0000000000000000
    PCM Polarization Energy =               0.0000000000000000
    EFP Energy =                            0.0000000000000000
    Total Energy =                       -305.8773521136836280

    Alert: EFP and PCM quantities not currently incorporated into SCF psivars.

Properties will be evaluated at   0.000000,   0.000000,   0.000000 Bohr
  ==> Properties <==


Properties computed using the SCF density matrix

  Nuclear Dipole Moment: (a.u.)
     X:    -8.7683      Y:    -0.9695      Z:     3.2899

  Electronic Dipole Moment: (a.u.)
     X:     8.7225      Y:     0.4397      Z:    -2.9680

  Dipole Moment: (a.u.)
     X:    -0.0458      Y:    -0.5298      Z:     0.3219     Total:     0.6216

  Dipole Moment: (Debye)
     X:    -0.1164      Y:    -1.3466      Z:     0.8182     Total:     1.5800


  Saving occupied orbitals to File 180.

*** tstop() called on cx1-3-16-4.cx1.hpc.ic.ac.uk at Tue Jul  5 16:31:39 2016
Module time:
	user time   =       6.93 seconds =       0.12 minutes
	system time =       0.06 seconds =       0.00 minutes
	total time  =          8 seconds =       0.13 minutes
Total time:
	user time   =       6.93 seconds =       0.12 minutes
	system time =       0.06 seconds =       0.00 minutes
	total time  =          8 seconds =       0.13 minutes


Properties will be evaluated at   0.000000,   0.000000,   0.000000 Bohr

Properties computed using the  density matrix

  Nuclear Dipole Moment: (a.u.)
     X:    -8.7683      Y:    -0.9695      Z:     3.2899

  Electronic Dipole Moment: (a.u.)
     X:     8.7225      Y:     0.4397      Z:    -2.9680

  Dipole Moment: (a.u.)
     X:    -0.0458      Y:    -0.5298      Z:     0.3219     Total:     0.6216

  Dipole Moment: (Debye)
     X:    -0.1164      Y:    -1.3466      Z:     0.8182     Total:     1.5800

  Quadrupole Moment: (Debye Ang)
    XX:   -32.8393     YY:   -40.6866     ZZ:   -36.5715
    XY:    -1.1829     XZ:    -1.1508     YZ:     2.7791

  Traceless Quadrupole Moment: (Debye Ang)
    XX:     3.8598     YY:    -3.9875     ZZ:     0.1276
    XY:    -1.1829     XZ:    -1.1508     YZ:     2.7791

  Mulliken Charges: (a.u.)
   Center  Symbol    Alpha    Beta     Spin     Total
       1     H     0.26762  0.26762  0.00000  0.46476
       2     O     4.35001  4.35001  0.00000 -0.70003
       3     C     2.62739  2.62739  0.00000  0.74522
       4     C     3.21178  3.21178  0.00000 -0.42357
       5     O     4.27815  4.27815  0.00000 -0.55630
       6     C     3.15873  3.15873  0.00000 -0.31746
       7     H     0.39717  0.39717  0.00000  0.20565
       8     H     0.39621  0.39621  0.00000  0.20758
       9     C     3.24379  3.24379  0.00000 -0.48759
      10     H     0.39614  0.39614  0.00000  0.20772
      11     H     0.41577  0.41577  0.00000  0.16846
      12     H     0.41993  0.41993  0.00000  0.16013
      13     H     0.41573  0.41573  0.00000  0.16854
      14     H     0.42156  0.42156  0.00000  0.15688

   Total alpha = 24.00000, Total beta = 24.00000, Total charge =  0.00000


*** PSI4 exiting successfully. Buy a developer a beer!
