    -----------------------------------------------------------------------
          Psi4: An Open-Source Ab Initio Electronic Structure Package
                              Psi4 (no tag) Driver

                          Git: Rev {detached?}  

    J. M. Turney, A. C. Simmonett, R. M. Parrish, E. G. Hohenstein,
    F. A. Evangelista, J. T. Fermann, B. J. Mintz, L. A. Burns, J. J. Wilke,
    M. L. Abrams, N. J. Russ, M. L. Leininger, C. L. Janssen, E. T. Seidl,
    W. D. Allen, H. F. Schaefer, R. A. King, E. F. Valeev, C. D. Sherrill,
    and T. D. Crawford, WIREs Comput. Mol. Sci. 2, 556-565 (2012)
    (doi: 10.1002/wcms.93)

                         Additional Contributions by
    A. E. DePrince, M. Saitow, U. Bozkaya, A. Yu. Sokolov
    -----------------------------------------------------------------------


    Psi4 started on: Tue Jul  5 16:47:02 2016

    Process ID:  31808
    PSI4DATADIR: /export131/home/mjharvey/miniconda3/share
    Memory level set to 256.000 MB

  ==> Input File <==

--------------------------------------------------------------------------
set {
	reference rhf
	basis 6-31G*
}


set_num_threads( 1 )
memory 2 gb

molecule MOL {
0 1

H	 3.130066	 1.614511	 -1.676663
O	 2.636091	 1.344862	 -0.915623
C	 1.409307	 2.027868	 -0.882511
C	 0.645275	 1.571400	 0.347789
H	 1.571051	 3.104244	 -0.842989
H	 0.829621	 1.818049	 -1.780442
C	 0.198102	 0.111031	 0.262842
H	 -0.217020	 2.220247	 0.474965
H	 1.278567	 1.719770	 1.218080
C	 1.331804	 -0.827780	 -0.158768
H	 -0.199092	 -0.197731	 1.226728
H	 -0.621287	 0.022526	 -0.449398
C	 2.723619	 -0.410569	 0.329459
H	 1.342964	 -0.912588	 -1.244120
H	 1.116806	 -1.824343	 0.220779
C	 3.243875	 0.895854	 -0.272975
H	 3.424222	 -1.207124	 0.091250
H	 2.714788	 -0.329854	 1.414619
H	 3.251977	 0.848779	 -1.358681
H	 2.637085	 1.747371	 0.016682
H	 4.259473	 1.094070	 0.055697

	symmetry c1
}
set optking {
	frozen_dihedral = ("
		2 3 4 8,
		8 4 7 10,
		16 13 10 14,
		1 2 3 5
	")
}

ee = energy('scf')
oeprop('DIPOLE', 'QUADRUPOLE', 'MULLIKEN_CHARGES')
f=open( 'psi4out.xyz', 'w' )
f.write( "21  " )
f.write( str(ee) + "\n" )
f.write( MOL.save_string_xyz() )
f.close()
--------------------------------------------------------------------------

  Memory set to   2.000 GiB by Python script.

*** tstart() called on cx1-3-2-3.cx1.hpc.ic.ac.uk
*** at Tue Jul  5 16:47:03 2016


         ---------------------------------------------------------
                                   SCF
            by Justin Turney, Rob Parrish, and Andy Simmonett
                              RHF Reference
                        1 Threads,   2000 MiB Core
         ---------------------------------------------------------

  ==> Geometry <==

    Molecular point group: c1
    Full point group: C1

    Geometry (in Angstrom), charge = 0, multiplicity = 1:

       Center              X                  Y                   Z               Mass       
    ------------   -----------------  -----------------  -----------------  -----------------
           H          1.352485371736     0.912107134436    -1.463260188857     1.007825032070
           O          0.858510371736     0.642458134436    -0.702220188857    15.994914619560
           C         -0.368273628264     1.325464134436    -0.669108188857    12.000000000000
           C         -1.132305628264     0.868996134436     0.561191811143    12.000000000000
           H         -0.206529628264     2.401840134436    -0.629586188857     1.007825032070
           H         -0.947959628264     1.115645134436    -1.567039188857     1.007825032070
           C         -1.579478628264    -0.591372865564     0.476244811143    12.000000000000
           H         -1.994600628264     1.517843134436     0.688367811143     1.007825032070
           H         -0.499013628264     1.017366134436     1.431482811143     1.007825032070
           C         -0.445776628264    -1.530183865564     0.054634811143    12.000000000000
           H         -1.976672628264    -0.900134865564     1.440130811143     1.007825032070
           H         -2.398867628264    -0.679877865564    -0.235995188857     1.007825032070
           C          0.946038371736    -1.112972865564     0.542861811143    12.000000000000
           H         -0.434616628264    -1.614991865564    -1.030717188857     1.007825032070
           H         -0.660774628264    -2.526746865564     0.434181811143     1.007825032070
           C          1.466294371736     0.193450134436    -0.059572188857    12.000000000000
           H          1.646641371736    -1.909527865564     0.304652811143     1.007825032070
           H          0.937207371736    -1.032257865564     1.628021811143     1.007825032070
           H          1.474396371736     0.146375134436    -1.145278188857     1.007825032070
           H          0.859504371736     1.044967134436     0.230084811143     1.007825032070
           H          2.481892371736     0.391666134436     0.269099811143     1.007825032070

  Running in c1 symmetry.

  Rotational constants: A =      0.11868  B =      0.10464  C =      0.06645 [cm^-1]
  Rotational constants: A =   3557.99035  B =   3136.92390  C =   1992.21101 [MHz]
  Nuclear repulsion =  385.749107623237137

  Charge       = 0
  Multiplicity = 1
  Electrons    = 58
  Nalpha       = 29
  Nbeta        = 29

  ==> Algorithm <==

  SCF Algorithm Type is DF.
  DIIS enabled.
  MOM disabled.
  Fractional occupation disabled.
  Guess Type is CORE.
  Energy threshold   = 1.00e-06
  Density threshold  = 1.00e-06
  Integral threshold = 0.00e+00

  ==> Primary Basis <==

  Basis Set: 6-31G*
    Number of shells: 70
    Number of basis function: 133
    Number of Cartesian functions: 133
    Spherical Harmonics?: false
    Max angular momentum: 2

  ==> Pre-Iterations <==

   -------------------------------------------------------
    Irrep   Nso     Nmo     Nalpha   Nbeta   Ndocc  Nsocc
   -------------------------------------------------------
     A        133     133       0       0       0       0
   -------------------------------------------------------
    Total     133     133      29      29      29       0
   -------------------------------------------------------

 OEINTS: Overlap, kinetic, potential, dipole, and quadrupole integrals
         stored in file 35.

  ==> Integral Setup <==

  ==> DFJK: Density-Fitted J/K Matrices <==

    J tasked:                  Yes
    K tasked:                  Yes
    wK tasked:                  No
    OpenMP threads:              1
    Integrals threads:           1
    Memory (MB):              1430
    Algorithm:                Core
    Integral Cache:           NONE
    Schwarz Cutoff:          1E-12
    Fitting Condition:       1E-12

   => Auxiliary Basis Set <=

  Basis Set: 
    Number of shells: 294
    Number of basis function: 917
    Number of Cartesian functions: 917
    Spherical Harmonics?: false
    Max angular momentum: 3

  Minimum eigenvalue in the overlap matrix is 1.4703515233E-03.
  Using Symmetric Orthogonalization.
  SCF Guess: Core (One-Electron) Hamiltonian.

  ==> Iterations <==

                           Total Energy        Delta E     RMS |[F,P]|

   @DF-RHF iter   1:  -218.52538958377897   -2.18525e+02   7.81787e-02 
   @DF-RHF iter   2:  -174.57656816672545    4.39488e+01   6.57048e-02 DIIS
   @DF-RHF iter   3:  -244.70161469521611   -7.01250e+01   5.71530e-02 DIIS
   @DF-RHF iter   4:  -299.83283083607751   -5.51312e+01   2.93080e-02 DIIS
   @DF-RHF iter   5:  -305.44478555897524   -5.61195e+00   1.65538e-02 DIIS
   @DF-RHF iter   6:  -308.68888667912768   -3.24410e+00   4.39079e-03 DIIS
   @DF-RHF iter   7:  -308.86654747252419   -1.77661e-01   1.33304e-03 DIIS
   @DF-RHF iter   8:  -308.88302231558623   -1.64748e-02   6.08545e-04 DIIS
   @DF-RHF iter   9:  -308.88706615620265   -4.04384e-03   2.60995e-04 DIIS
   @DF-RHF iter  10:  -308.88792462790036   -8.58472e-04   1.00551e-04 DIIS
   @DF-RHF iter  11:  -308.88811249222977   -1.87864e-04   3.26260e-05 DIIS
   @DF-RHF iter  12:  -308.88816449774390   -5.20055e-05   1.57329e-05 DIIS
   @DF-RHF iter  13:  -308.88818174138100   -1.72436e-05   7.09006e-06 DIIS
   @DF-RHF iter  14:  -308.88818630257163   -4.56119e-06   3.38154e-06 DIIS
   @DF-RHF iter  15:  -308.88818693549888   -6.32927e-07   7.00691e-07 DIIS

  ==> Post-Iterations <==

    Orbital Energies (a.u.)
    -----------------------

    Doubly Occupied:                                                      

       1A    -20.741906     2A    -11.309933     3A    -11.256067  
       4A    -11.241654     5A    -11.227944     6A    -11.215205  
       7A    -11.193526     8A     -1.905420     9A     -1.246840  
      10A     -1.179114    11A     -1.095457    12A     -0.998205  
      13A     -0.965015    14A     -0.908994    15A     -0.826391  
      16A     -0.784950    17A     -0.695506    18A     -0.651439  
      19A     -0.630933    20A     -0.604156    21A     -0.577142  
      22A     -0.552778    23A     -0.528008    24A     -0.484246  
      25A     -0.468280    26A     -0.460154    27A     -0.436586  
      28A     -0.305458    29A     -0.148113  

    Virtual:                                                              

      30A      0.181007    31A      0.216543    32A      0.247657  
      33A      0.255783    34A      0.266435    35A      0.280750  
      36A      0.292891    37A      0.306209    38A      0.313656  
      39A      0.338875    40A      0.346141    41A      0.358562  
      42A      0.365953    43A      0.372285    44A      0.397892  
      45A      0.422130    46A      0.431231    47A      0.465953  
      48A      0.500315    49A      0.564378    50A      0.662305  
      51A      0.703945    52A      0.724451    53A      0.745028  
      54A      0.790617    55A      0.805062    56A      0.817155  
      57A      0.859967    58A      0.902970    59A      0.906280  
      60A      0.934342    61A      0.964406    62A      0.984894  
      63A      0.996092    64A      1.017765    65A      1.024579  
      66A      1.053202    67A      1.083924    68A      1.100774  
      69A      1.134990    70A      1.153088    71A      1.161009  
      72A      1.162315    73A      1.179256    74A      1.197294  
      75A      1.209802    76A      1.224407    77A      1.230209  
      78A      1.244863    79A      1.262840    80A      1.267097  
      81A      1.296901    82A      1.357081    83A      1.438312  
      84A      1.482048    85A      1.504602    86A      1.580936  
      87A      1.656179    88A      1.742695    89A      1.772698  
      90A      1.815822    91A      1.898924    92A      1.919806  
      93A      2.000494    94A      2.034343    95A      2.110158  
      96A      2.142671    97A      2.153550    98A      2.193837  
      99A      2.206224   100A      2.265081   101A      2.297219  
     102A      2.304944   103A      2.331567   104A      2.359777  
     105A      2.383227   106A      2.491660   107A      2.529190  
     108A      2.583128   109A      2.604087   110A      2.639217  
     111A      2.652759   112A      2.692584   113A      2.757906  
     114A      2.767836   115A      2.807552   116A      2.863118  
     117A      2.881697   118A      2.909607   119A      2.996767  
     120A      3.053134   121A      3.100153   122A      3.139439  
     123A      3.301647   124A      3.491133   125A      3.522930  
     126A      4.128278   127A      4.536097   128A      4.684470  
     129A      4.724812   130A      4.802006   131A      4.919895  
     132A      5.054134   133A      5.159900  

    Final Occupation by Irrep:
              A 
    DOCC [    29 ]

  Energy converged.

  @DF-RHF Final Energy:  -308.88818693549888

   => Energetics <=

    Nuclear Repulsion Energy =            385.7491076232371370
    One-Electron Energy =               -1179.9961068539478219
    Two-Electron Energy =                 485.3588122952121466
    DFT Exchange-Correlation Energy =       0.0000000000000000
    Empirical Dispersion Energy =           0.0000000000000000
    PCM Polarization Energy =               0.0000000000000000
    EFP Energy =                            0.0000000000000000
    Total Energy =                       -308.8881869354985383

    Alert: EFP and PCM quantities not currently incorporated into SCF psivars.

Properties will be evaluated at   0.000000,   0.000000,   0.000000 Bohr
  ==> Properties <==


Properties computed using the SCF density matrix

  Nuclear Dipole Moment: (a.u.)
     X:    -0.3398      Y:    -0.1054      Z:     0.3286

  Electronic Dipole Moment: (a.u.)
     X:    -0.8432      Y:     0.8926      Z:     0.0435

  Dipole Moment: (a.u.)
     X:    -1.1830      Y:     0.7872      Z:     0.3722     Total:     1.4689

  Dipole Moment: (Debye)
     X:    -3.0069      Y:     2.0007      Z:     0.9459     Total:     3.7335


  Saving occupied orbitals to File 180.

*** tstop() called on cx1-3-2-3.cx1.hpc.ic.ac.uk at Tue Jul  5 16:47:18 2016
Module time:
	user time   =      14.56 seconds =       0.24 minutes
	system time =       0.07 seconds =       0.00 minutes
	total time  =         15 seconds =       0.25 minutes
Total time:
	user time   =      14.56 seconds =       0.24 minutes
	system time =       0.07 seconds =       0.00 minutes
	total time  =         15 seconds =       0.25 minutes


Properties will be evaluated at   0.000000,   0.000000,   0.000000 Bohr

Properties computed using the  density matrix

  Nuclear Dipole Moment: (a.u.)
     X:    -0.3398      Y:    -0.1054      Z:     0.3286

  Electronic Dipole Moment: (a.u.)
     X:    -0.8432      Y:     0.8926      Z:     0.0435

  Dipole Moment: (a.u.)
     X:    -1.1830      Y:     0.7872      Z:     0.3722     Total:     1.4689

  Dipole Moment: (Debye)
     X:    -3.0069      Y:     2.0007      Z:     0.9459     Total:     3.7335

  Quadrupole Moment: (Debye Ang)
    XX:   -51.8748     YY:   -45.0918     ZZ:   -52.0190
    XY:     0.6146     XZ:     3.9695     YZ:    -2.6459

  Traceless Quadrupole Moment: (Debye Ang)
    XX:    -2.2129     YY:     4.5701     ZZ:    -2.3572
    XY:     0.6146     XZ:     3.9695     YZ:    -2.6459

  Mulliken Charges: (a.u.)
   Center  Symbol    Alpha    Beta     Spin     Total
       1     H     0.43283  0.43283  0.00000  0.13433
       2     O     3.94000  3.94000  0.00000  0.11999
       3     C     3.11496  3.11496  0.00000 -0.22991
       4     C     3.19430  3.19430  0.00000 -0.38860
       5     H     0.38801  0.38801  0.00000  0.22397
       6     H     0.40157  0.40157  0.00000  0.19685
       7     C     3.14978  3.14978  0.00000 -0.29957
       8     H     0.40880  0.40880  0.00000  0.18239
       9     H     0.38594  0.38594  0.00000  0.22812
      10     C     3.18250  3.18250  0.00000 -0.36499
      11     H     0.41340  0.41340  0.00000  0.17321
      12     H     0.41848  0.41848  0.00000  0.16303
      13     C     3.16534  3.16534  0.00000 -0.33067
      14     H     0.41683  0.41683  0.00000  0.16635
      15     H     0.40983  0.40983  0.00000  0.18034
      16     C     3.12224  3.12224  0.00000 -0.24449
      17     H     0.41649  0.41649  0.00000  0.16701
      18     H     0.43014  0.43014  0.00000  0.13972
      19     H     0.71782  0.71782  0.00000 -0.43565
      20     H     0.49922  0.49922  0.00000  0.00155
      21     H     0.39150  0.39150  0.00000  0.21700

   Total alpha = 29.00000, Total beta = 29.00000, Total charge =  0.00000


*** PSI4 exiting successfully. Buy a developer a beer!
