    -----------------------------------------------------------------------
          Psi4: An Open-Source Ab Initio Electronic Structure Package
                              Psi4 (no tag) Driver

                          Git: Rev {detached?}  

    J. M. Turney, A. C. Simmonett, R. M. Parrish, E. G. Hohenstein,
    F. A. Evangelista, J. T. Fermann, B. J. Mintz, L. A. Burns, J. J. Wilke,
    M. L. Abrams, N. J. Russ, M. L. Leininger, C. L. Janssen, E. T. Seidl,
    W. D. Allen, H. F. Schaefer, R. A. King, E. F. Valeev, C. D. Sherrill,
    and T. D. Crawford, WIREs Comput. Mol. Sci. 2, 556-565 (2012)
    (doi: 10.1002/wcms.93)

                         Additional Contributions by
    A. E. DePrince, M. Saitow, U. Bozkaya, A. Yu. Sokolov
    -----------------------------------------------------------------------


    Psi4 started on: Tue Jul  5 17:03:19 2016

    Process ID:  16835
    PSI4DATADIR: /export131/home/mjharvey/miniconda3/share
    Memory level set to 256.000 MB

  ==> Input File <==

--------------------------------------------------------------------------
set {
	reference rhf
	basis 6-31G*
}


set_num_threads( 1 )
memory 2 gb

molecule MOL {
0 1

O	 1.325283	 -1.246213	 -0.427209
C	 0.573624	 -0.324956	 -0.323637
C	 -0.889235	 -0.467034	 -0.705952
C	 1.026384	 1.011880	 0.219736
C	 -1.047154	 -0.600408	 -2.229242
H	 -1.406184	 0.423437	 -0.365176
H	 -1.332231	 -1.326043	 -0.210083
C	 0.149006	 -1.302371	 -2.876593
H	 -1.963033	 -1.145506	 -2.427781
H	 -1.166334	 0.386787	 -2.673077
C	 0.075323	 -1.399736	 -4.404711
H	 0.247240	 -2.302033	 -2.457363
H	 1.057485	 -0.767858	 -2.606759
C	 -1.053427	 -2.288511	 -4.930067
H	 1.023541	 -1.787350	 -4.768483
H	 -0.024340	 -0.400645	 -4.824201
H	 -0.984148	 -3.291584	 -4.518035
H	 -1.004790	 -2.372263	 -6.011279
H	 -2.032469	 -1.894716	 -4.678683
H	 0.968702	 1.763067	 -0.563625
H	 2.044975	 0.941349	 0.575097
H	 0.376103	 1.339440	 1.025741

	symmetry c1
}
set optking {
	frozen_dihedral = ("
		6 3 2 1,
		3 5 8 12,
		12 8 11 15
	")
}

ee = energy('scf')
oeprop('DIPOLE', 'QUADRUPOLE', 'MULLIKEN_CHARGES')
f=open( 'psi4out.xyz', 'w' )
f.write( "22  " )
f.write( str(ee) + "\n" )
f.write( MOL.save_string_xyz() )
f.close()
--------------------------------------------------------------------------

  Memory set to   2.000 GiB by Python script.

*** tstart() called on cx1-3-4-4.cx1.hpc.ic.ac.uk
*** at Tue Jul  5 17:03:20 2016


         ---------------------------------------------------------
                                   SCF
            by Justin Turney, Rob Parrish, and Andy Simmonett
                              RHF Reference
                        1 Threads,   2000 MiB Core
         ---------------------------------------------------------

  ==> Geometry <==

    Molecular point group: c1
    Full point group: C1

    Geometry (in Angstrom), charge = 0, multiplicity = 1:

       Center              X                  Y                   Z               Mass       
    ------------   -----------------  -----------------  -----------------  -----------------
           O          1.299133912487    -0.414499129568     1.541271926304    15.994914619560
           C          0.547474912487     0.506757870432     1.644843926304    12.000000000000
           C         -0.915384087513     0.364679870432     1.262528926304    12.000000000000
           C          1.000234912487     1.843593870432     2.188216926304    12.000000000000
           C         -1.073303087513     0.231305870432    -0.260761073696    12.000000000000
           H         -1.432333087513     1.255150870432     1.603304926304     1.007825032070
           H         -1.358380087513    -0.494329129568     1.758397926304     1.007825032070
           C          0.122856912487    -0.470657129568    -0.908112073696    12.000000000000
           H         -1.989182087513    -0.313792129568    -0.459300073696     1.007825032070
           H         -1.192483087513     1.218500870432    -0.704596073696     1.007825032070
           C          0.049173912487    -0.568022129568    -2.436230073696    12.000000000000
           H          0.221090912487    -1.470319129568    -0.488882073696     1.007825032070
           H          1.031335912487     0.063855870432    -0.638278073696     1.007825032070
           C         -1.079576087513    -1.456797129568    -2.961586073696    12.000000000000
           H          0.997391912487    -0.955636129568    -2.800002073696     1.007825032070
           H         -0.050489087513     0.431068870432    -2.855720073696     1.007825032070
           H         -1.010297087513    -2.459870129568    -2.549554073696     1.007825032070
           H         -1.030939087513    -1.540549129568    -4.042798073696     1.007825032070
           H         -2.058618087513    -1.063002129568    -2.710202073696     1.007825032070
           H          0.942552912487     2.594780870432     1.404855926304     1.007825032070
           H          2.018825912487     1.773062870432     2.543577926304     1.007825032070
           H          0.349953912487     2.171153870432     2.994221926304     1.007825032070

  Running in c1 symmetry.

  Rotational constants: A =      0.14843  B =      0.03081  C =      0.02901 [cm^-1]
  Rotational constants: A =   4449.72875  B =    923.69714  C =    869.55329 [MHz]
  Nuclear repulsion =  386.008277093661945

  Charge       = 0
  Multiplicity = 1
  Electrons    = 64
  Nalpha       = 32
  Nbeta        = 32

  ==> Algorithm <==

  SCF Algorithm Type is DF.
  DIIS enabled.
  MOM disabled.
  Fractional occupation disabled.
  Guess Type is CORE.
  Energy threshold   = 1.00e-06
  Density threshold  = 1.00e-06
  Integral threshold = 0.00e+00

  ==> Primary Basis <==

  Basis Set: 6-31G*
    Number of shells: 76
    Number of basis function: 148
    Number of Cartesian functions: 148
    Spherical Harmonics?: false
    Max angular momentum: 2

  ==> Pre-Iterations <==

   -------------------------------------------------------
    Irrep   Nso     Nmo     Nalpha   Nbeta   Ndocc  Nsocc
   -------------------------------------------------------
     A        148     148       0       0       0       0
   -------------------------------------------------------
    Total     148     148      32      32      32       0
   -------------------------------------------------------

 OEINTS: Overlap, kinetic, potential, dipole, and quadrupole integrals
         stored in file 35.

  ==> Integral Setup <==

  ==> DFJK: Density-Fitted J/K Matrices <==

    J tasked:                  Yes
    K tasked:                  Yes
    wK tasked:                  No
    OpenMP threads:              1
    Integrals threads:           1
    Memory (MB):              1430
    Algorithm:                Core
    Integral Cache:           NONE
    Schwarz Cutoff:          1E-12
    Fitting Condition:       1E-12

   => Auxiliary Basis Set <=

  Basis Set: 
    Number of shells: 318
    Number of basis function: 998
    Number of Cartesian functions: 998
    Spherical Harmonics?: false
    Max angular momentum: 3

  Minimum eigenvalue in the overlap matrix is 3.0793635655E-03.
  Using Symmetric Orthogonalization.
  SCF Guess: Core (One-Electron) Hamiltonian.

  ==> Iterations <==

                           Total Energy        Delta E     RMS |[F,P]|

   @DF-RHF iter   1:  -249.75136038181790   -2.49751e+02   6.88318e-02 
   @DF-RHF iter   2:  -141.70518295085571    1.08046e+02   6.99063e-02 DIIS
   @DF-RHF iter   3:  -261.32150054787326   -1.19616e+02   5.10908e-02 DIIS
   @DF-RHF iter   4:  -249.95037849502455    1.13711e+01   6.41217e-02 DIIS
   @DF-RHF iter   5:  -345.43943000883019   -9.54891e+01   1.31623e-02 DIIS
   @DF-RHF iter   6:  -346.21942264322001   -7.79993e-01   1.31094e-02 DIIS
   @DF-RHF iter   7:  -347.99382878848394   -1.77441e+00   2.87053e-03 DIIS
   @DF-RHF iter   8:  -348.06797650417411   -7.41477e-02   1.14499e-03 DIIS
   @DF-RHF iter   9:  -348.08335735821117   -1.53809e-02   1.79724e-04 DIIS
   @DF-RHF iter  10:  -348.08422193296690   -8.64575e-04   5.63930e-05 DIIS
   @DF-RHF iter  11:  -348.08429577590630   -7.38429e-05   1.82198e-05 DIIS
   @DF-RHF iter  12:  -348.08430304884087   -7.27293e-06   6.08623e-06 DIIS
   @DF-RHF iter  13:  -348.08430387511237   -8.26272e-07   2.14534e-06 DIIS
   @DF-RHF iter  14:  -348.08430398764017   -1.12528e-07   7.26549e-07 DIIS

  ==> Post-Iterations <==

    Orbital Energies (a.u.)
    -----------------------

    Doubly Occupied:                                                      

       1A    -20.546249     2A    -11.324923     3A    -11.229605  
       4A    -11.229458     5A    -11.225555     6A    -11.210644  
       7A    -11.205486     8A    -11.205352     9A     -1.395562  
      10A     -1.090131    11A     -1.040466    12A     -0.999354  
      13A     -0.931248    14A     -0.854179    15A     -0.782677  
      16A     -0.729311    17A     -0.658360    18A     -0.645344  
      19A     -0.625810    20A     -0.610590    21A     -0.593870  
      22A     -0.584060    23A     -0.558687    24A     -0.546073  
      25A     -0.529509    26A     -0.524820    27A     -0.490780  
      28A     -0.485634    29A     -0.460243    30A     -0.450112  
      31A     -0.448757    32A     -0.394150  

    Virtual:                                                              

      33A      0.160162    34A      0.222691    35A      0.243768  
      36A      0.267199    37A      0.276412    38A      0.291024  
      39A      0.298637    40A      0.308472    41A      0.316687  
      42A      0.321786    43A      0.335833    44A      0.343108  
      45A      0.355642    46A      0.363077    47A      0.381914  
      48A      0.388961    49A      0.416766    50A      0.430044  
      51A      0.453024    52A      0.463455    53A      0.508426  
      54A      0.539774    55A      0.706208    56A      0.718752  
      57A      0.735181    58A      0.752571    59A      0.764525  
      60A      0.769433    61A      0.773042    62A      0.828821  
      63A      0.842187    64A      0.877306    65A      0.899388  
      66A      0.919218    67A      0.940612    68A      0.967777  
      69A      0.973647    70A      0.992299    71A      1.012419  
      72A      1.034244    73A      1.090367    74A      1.107716  
      75A      1.117266    76A      1.134134    77A      1.142872  
      78A      1.152046    79A      1.160121    80A      1.161885  
      81A      1.173485    82A      1.198586    83A      1.204752  
      84A      1.211709    85A      1.218283    86A      1.237085  
      87A      1.256591    88A      1.260047    89A      1.275701  
      90A      1.291278    91A      1.308604    92A      1.395858  
      93A      1.440747    94A      1.481616    95A      1.500529  
      96A      1.542629    97A      1.685733    98A      1.711431  
      99A      1.769048   100A      1.789885   101A      1.802064  
     102A      1.874106   103A      1.929536   104A      1.969222  
     105A      1.980767   106A      2.045708   107A      2.083959  
     108A      2.122435   109A      2.138419   110A      2.158607  
     111A      2.213499   112A      2.224243   113A      2.272580  
     114A      2.279056   115A      2.295406   116A      2.323882  
     117A      2.344655   118A      2.382631   119A      2.423832  
     120A      2.483634   121A      2.487088   122A      2.513158  
     123A      2.542054   124A      2.602980   125A      2.658863  
     126A      2.676679   127A      2.695830   128A      2.718190  
     129A      2.761430   130A      2.773702   131A      2.797950  
     132A      2.854628   133A      2.916005   134A      2.989479  
     135A      3.007009   136A      3.074783   137A      3.113696  
     138A      3.163631   139A      3.377255   140A      3.390293  
     141A      4.469969   142A      4.532495   143A      4.590590  
     144A      4.682397   145A      4.787530   146A      4.870687  
     147A      4.925384   148A      5.046305  

    Final Occupation by Irrep:
              A 
    DOCC [    32 ]

  Energy converged.

  @DF-RHF Final Energy:  -348.08430398764017

   => Energetics <=

    Nuclear Repulsion Energy =            386.0082770936619454
    One-Electron Energy =               -1236.9710601740880520
    Two-Electron Energy =                 502.8784790927850281
    DFT Exchange-Correlation Energy =       0.0000000000000000
    Empirical Dispersion Energy =           0.0000000000000000
    PCM Polarization Energy =               0.0000000000000000
    EFP Energy =                            0.0000000000000000
    Total Energy =                       -348.0843039876410785

    Alert: EFP and PCM quantities not currently incorporated into SCF psivars.

Properties will be evaluated at   0.000000,   0.000000,   0.000000 Bohr
  ==> Properties <==


Properties computed using the SCF density matrix

  Nuclear Dipole Moment: (a.u.)
     X:    -4.2701      Y:     1.1324      Z:    -6.5033

  Electronic Dipole Moment: (a.u.)
     X:     3.5727      Y:    -0.2835      Z:     6.5907

  Dipole Moment: (a.u.)
     X:    -0.6974      Y:     0.8489      Z:     0.0874     Total:     1.1021

  Dipole Moment: (Debye)
     X:    -1.7726      Y:     2.1576      Z:     0.2221     Total:     2.8012


  Saving occupied orbitals to File 180.

*** tstop() called on cx1-3-4-4.cx1.hpc.ic.ac.uk at Tue Jul  5 17:03:46 2016
Module time:
	user time   =      25.46 seconds =       0.42 minutes
	system time =       0.21 seconds =       0.00 minutes
	total time  =         26 seconds =       0.43 minutes
Total time:
	user time   =      25.46 seconds =       0.42 minutes
	system time =       0.21 seconds =       0.00 minutes
	total time  =         26 seconds =       0.43 minutes


Properties will be evaluated at   0.000000,   0.000000,   0.000000 Bohr

Properties computed using the  density matrix

  Nuclear Dipole Moment: (a.u.)
     X:    -4.2701      Y:     1.1324      Z:    -6.5033

  Electronic Dipole Moment: (a.u.)
     X:     3.5727      Y:    -0.2835      Z:     6.5907

  Dipole Moment: (a.u.)
     X:    -0.6974      Y:     0.8489      Z:     0.0874     Total:     1.1021

  Dipole Moment: (Debye)
     X:    -1.7726      Y:     2.1576      Z:     0.2221     Total:     2.8012

  Quadrupole Moment: (Debye Ang)
    XX:   -54.4208     YY:   -50.3295     ZZ:   -51.2014
    XY:     2.4513     XZ:    -3.1155     YZ:     3.5901

  Traceless Quadrupole Moment: (Debye Ang)
    XX:    -2.4369     YY:     1.6544     ZZ:     0.7825
    XY:     2.4513     XZ:    -3.1155     YZ:     3.5901

  Mulliken Charges: (a.u.)
   Center  Symbol    Alpha    Beta     Spin     Total
       1     O     4.26098  4.26098  0.00000 -0.52195
       2     C     2.74398  2.74398  0.00000  0.51203
       3     C     3.19614  3.19614  0.00000 -0.39229
       4     C     3.28917  3.28917  0.00000 -0.57834
       5     C     3.16532  3.16532  0.00000 -0.33064
       6     H     0.41614  0.41614  0.00000  0.16772
       7     H     0.39900  0.39900  0.00000  0.20199
       8     C     3.15550  3.15550  0.00000 -0.31100
       9     H     0.41257  0.41257  0.00000  0.17485
      10     H     0.42064  0.42064  0.00000  0.15872
      11     C     3.15229  3.15229  0.00000 -0.30458
      12     H     0.41066  0.41066  0.00000  0.17869
      13     H     0.41307  0.41307  0.00000  0.17386
      14     C     3.24132  3.24132  0.00000 -0.48265
      15     H     0.41925  0.41925  0.00000  0.16150
      16     H     0.42720  0.42720  0.00000  0.14561
      17     H     0.42132  0.42132  0.00000  0.15735
      18     H     0.41978  0.41978  0.00000  0.16043
      19     H     0.42287  0.42287  0.00000  0.15427
      20     H     0.40784  0.40784  0.00000  0.18433
      21     H     0.39672  0.39672  0.00000  0.20655
      22     H     0.40823  0.40823  0.00000  0.18355

   Total alpha = 32.00000, Total beta = 32.00000, Total charge = -0.00000


*** PSI4 exiting successfully. Buy a developer a beer!
