    -----------------------------------------------------------------------
          Psi4: An Open-Source Ab Initio Electronic Structure Package
                              Psi4 (no tag) Driver

                          Git: Rev {detached?}  

    J. M. Turney, A. C. Simmonett, R. M. Parrish, E. G. Hohenstein,
    F. A. Evangelista, J. T. Fermann, B. J. Mintz, L. A. Burns, J. J. Wilke,
    M. L. Abrams, N. J. Russ, M. L. Leininger, C. L. Janssen, E. T. Seidl,
    W. D. Allen, H. F. Schaefer, R. A. King, E. F. Valeev, C. D. Sherrill,
    and T. D. Crawford, WIREs Comput. Mol. Sci. 2, 556-565 (2012)
    (doi: 10.1002/wcms.93)

                         Additional Contributions by
    A. E. DePrince, M. Saitow, U. Bozkaya, A. Yu. Sokolov
    -----------------------------------------------------------------------


    Psi4 started on: Tue Jul  5 16:50:26 2016

    Process ID:    501
    PSI4DATADIR: /export131/home/mjharvey/miniconda3/share
    Memory level set to 256.000 MB

  ==> Input File <==

--------------------------------------------------------------------------
set {
	reference rhf
	basis 6-31G*
}


set_num_threads( 1 )
memory 2 gb

molecule MOL {
0 1

O	 2.641769	 1.698782	 0.456854
C	 2.142302	 1.250181	 1.442779
C	 0.864538	 0.431267	 1.402319
C	 2.757194	 1.471517	 2.809554
C	 0.291004	 0.242674	 0.000989
H	 1.071420	 -0.532136	 1.866478
H	 0.137924	 0.914988	 2.053815
C	 -0.994322	 -0.586602	 0.000262
H	 1.037305	 -0.232424	 -0.627856
H	 0.102520	 1.216281	 -0.440272
C	 -2.259874	 0.272531	 0.000494
H	 -1.004862	 -1.240012	 -0.870939
H	 -1.005220	 -1.241071	 0.870675
C	 -3.549786	 -0.549746	 -0.000374
H	 -2.250389	 0.926680	 -0.869574
H	 -2.250838	 0.925513	 0.871430
C	 -4.809590	 0.315458	 -0.000369
H	 -3.560515	 -1.202009	 -0.871156
H	 -3.561123	 -1.202955	 0.869711
H	 -4.844746	 0.956611	 -0.876632
H	 -5.706986	 -0.295590	 -0.001609
H	 -4.845960	 0.954827	 0.877144
H	 2.995921	 0.520315	 3.276292
H	 3.657458	 2.062348	 2.713232
H	 2.055775	 1.983424	 3.461932

	symmetry c1
}
set optking {
	frozen_dihedral = ("
		15 11 8 12,
		15 11 14 18,
		1 2 3 6,
		9 5 3 6
	")
}

ee = energy('scf')
oeprop('DIPOLE', 'QUADRUPOLE', 'MULLIKEN_CHARGES')
f=open( 'psi4out.xyz', 'w' )
f.write( "25  " )
f.write( str(ee) + "\n" )
f.write( MOL.save_string_xyz() )
f.close()
--------------------------------------------------------------------------

  Memory set to   2.000 GiB by Python script.

*** tstart() called on cx1-1-2-1.cx1.hpc.ic.ac.uk
*** at Tue Jul  5 16:50:27 2016


         ---------------------------------------------------------
                                   SCF
            by Justin Turney, Rob Parrish, and Andy Simmonett
                              RHF Reference
                        1 Threads,   2000 MiB Core
         ---------------------------------------------------------

  ==> Geometry <==

    Molecular point group: c1
    Full point group: C1

    Geometry (in Angstrom), charge = 0, multiplicity = 1:

       Center              X                  Y                   Z               Mass       
    ------------   -----------------  -----------------  -----------------  -----------------
           O          2.973961086351     1.184504040169    -0.226677453496    15.994914619560
           C          2.474494086351     0.735903040169     0.759247546504    12.000000000000
           C          1.196730086351    -0.083010959831     0.718787546504    12.000000000000
           C          3.089386086351     0.957239040169     2.126022546504    12.000000000000
           C          0.623196086351    -0.271603959831    -0.682542453496    12.000000000000
           H          1.403612086351    -1.046413959831     1.182946546504     1.007825032070
           H          0.470116086351     0.400710040169     1.370283546504     1.007825032070
           C         -0.662129913649    -1.100879959831    -0.683269453496    12.000000000000
           H          1.369497086351    -0.746701959831    -1.311387453496     1.007825032070
           H          0.434712086351     0.702003040169    -1.123803453496     1.007825032070
           C         -1.927681913649    -0.241746959831    -0.683037453496    12.000000000000
           H         -0.672669913649    -1.754289959831    -1.554470453496     1.007825032070
           H         -0.673027913649    -1.755348959831     0.187143546504     1.007825032070
           C         -3.217593913649    -1.064023959831    -0.683905453496    12.000000000000
           H         -1.918196913649     0.412402040169    -1.553105453496     1.007825032070
           H         -1.918645913649     0.411235040169     0.187898546504     1.007825032070
           C         -4.477397913649    -0.198819959831    -0.683900453496    12.000000000000
           H         -3.228322913649    -1.716286959831    -1.554687453496     1.007825032070
           H         -3.228930913649    -1.717232959831     0.186179546504     1.007825032070
           H         -4.512553913649     0.442333040169    -1.560163453496     1.007825032070
           H         -5.374793913649    -0.809867959831    -0.685140453496     1.007825032070
           H         -4.513767913649     0.440549040169     0.193612546504     1.007825032070
           H          3.328113086351     0.006037040169     2.592760546504     1.007825032070
           H          3.989650086351     1.548070040169     2.029700546504     1.007825032070
           H          2.387967086351     1.469146040169     2.778400546504     1.007825032070

  Running in c1 symmetry.

  Rotational constants: A =      0.14414  B =      0.01605  C =      0.01557 [cm^-1]
  Rotational constants: A =   4321.21970  B =    481.03972  C =    466.90434 [MHz]
  Nuclear repulsion =  442.926491286471958

  Charge       = 0
  Multiplicity = 1
  Electrons    = 72
  Nalpha       = 36
  Nbeta        = 36

  ==> Algorithm <==

  SCF Algorithm Type is DF.
  DIIS enabled.
  MOM disabled.
  Fractional occupation disabled.
  Guess Type is CORE.
  Energy threshold   = 1.00e-06
  Density threshold  = 1.00e-06
  Integral threshold = 0.00e+00

  ==> Primary Basis <==

  Basis Set: 6-31G*
    Number of shells: 86
    Number of basis function: 167
    Number of Cartesian functions: 167
    Spherical Harmonics?: false
    Max angular momentum: 2

  ==> Pre-Iterations <==

   -------------------------------------------------------
    Irrep   Nso     Nmo     Nalpha   Nbeta   Ndocc  Nsocc
   -------------------------------------------------------
     A        167     167       0       0       0       0
   -------------------------------------------------------
    Total     167     167      36      36      36       0
   -------------------------------------------------------

 OEINTS: Overlap, kinetic, potential, dipole, and quadrupole integrals
         stored in file 35.

  ==> Integral Setup <==

  ==> DFJK: Density-Fitted J/K Matrices <==

    J tasked:                  Yes
    K tasked:                  Yes
    wK tasked:                  No
    OpenMP threads:              1
    Integrals threads:           1
    Memory (MB):              1430
    Algorithm:                Core
    Integral Cache:           NONE
    Schwarz Cutoff:          1E-12
    Fitting Condition:       1E-12

   => Auxiliary Basis Set <=

  Basis Set: 
    Number of shells: 360
    Number of basis function: 1129
    Number of Cartesian functions: 1129
    Spherical Harmonics?: false
    Max angular momentum: 3

  Minimum eigenvalue in the overlap matrix is 2.8514007110E-03.
  Using Symmetric Orthogonalization.
  SCF Guess: Core (One-Electron) Hamiltonian.

  ==> Iterations <==

                           Total Energy        Delta E     RMS |[F,P]|

   @DF-RHF iter   1:  -284.34599041978817   -2.84346e+02   6.25227e-02 
   @DF-RHF iter   2:  -143.41104973472824    1.40935e+02   6.74791e-02 DIIS
   @DF-RHF iter   3:  -312.60409296149265   -1.69193e+02   3.33755e-02 DIIS
   @DF-RHF iter   4:  -162.83558485147427    1.49769e+02   7.49989e-02 DIIS
   @DF-RHF iter   5:  -239.34339161854410   -7.65078e+01   7.32337e-02 DIIS
   @DF-RHF iter   6:  -280.17752386604189   -4.08341e+01   5.27282e-02 DIIS
   @DF-RHF iter   7:  -307.79944724699948   -2.76219e+01   4.38539e-02 DIIS
   @DF-RHF iter   8:  -360.43567702229660   -5.26362e+01   2.94543e-02 DIIS
   @DF-RHF iter   9:  -384.64307846656396   -2.42074e+01   8.21205e-03 DIIS
   @DF-RHF iter  10:  -386.60839513725733   -1.96532e+00   6.67249e-03 DIIS
   @DF-RHF iter  11:  -387.08628803318476   -4.77893e-01   1.62911e-03 DIIS
   @DF-RHF iter  12:  -387.12456502466426   -3.82770e-02   6.66955e-04 DIIS
   @DF-RHF iter  13:  -387.13126218244344   -6.69716e-03   2.04425e-04 DIIS
   @DF-RHF iter  14:  -387.13216175559279   -8.99573e-04   8.23722e-05 DIIS
   @DF-RHF iter  15:  -387.13237254587972   -2.10790e-04   2.44653e-05 DIIS
   @DF-RHF iter  16:  -387.13239595193642   -2.34061e-05   8.56443e-06 DIIS
   @DF-RHF iter  17:  -387.13239885302784   -2.90109e-06   2.60103e-06 DIIS
   @DF-RHF iter  18:  -387.13239903965933   -1.86631e-07   7.51797e-07 DIIS

  ==> Post-Iterations <==

    Orbital Energies (a.u.)
    -----------------------

    Doubly Occupied:                                                      

       1A    -20.550391     2A    -11.325994     3A    -11.232023  
       4A    -11.228257     5A    -11.216299     6A    -11.216003  
       7A    -11.215489     8A    -11.215087     9A    -11.209560  
      10A     -1.395645    11A     -1.095041    12A     -1.055965  
      13A     -1.014631    14A     -0.968469    15A     -0.893842  
      16A     -0.814781    17A     -0.790126    18A     -0.732531  
      19A     -0.658842    20A     -0.644254    21A     -0.641430  
      22A     -0.621116    23A     -0.598392    24A     -0.576061  
      25A     -0.571414    26A     -0.565531    27A     -0.540634  
      28A     -0.524707    29A     -0.518401    30A     -0.492317  
      31A     -0.484758    32A     -0.478754    33A     -0.465432  
      34A     -0.459695    35A     -0.444358    36A     -0.399820  

    Virtual:                                                              

      37A      0.170119    38A      0.219825    39A      0.233456  
      40A      0.254528    41A      0.268596    42A      0.269138  
      43A      0.291605    44A      0.302974    45A      0.314545  
      46A      0.315918    47A      0.318534    48A      0.331202  
      49A      0.337367    50A      0.344469    51A      0.350453  
      52A      0.362151    53A      0.377702    54A      0.394486  
      55A      0.406787    56A      0.422610    57A      0.454313  
      58A      0.458852    59A      0.471961    60A      0.506828  
      61A      0.533726    62A      0.700574    63A      0.707993  
      64A      0.719657    65A      0.745385    66A      0.752210  
      67A      0.761151    68A      0.776989    69A      0.797727  
      70A      0.807215    71A      0.828339    72A      0.863318  
      73A      0.895378    74A      0.899292    75A      0.938514  
      76A      0.970788    77A      0.980613    78A      0.994533  
      79A      1.011356    80A      1.015876    81A      1.037223  
      82A      1.061132    83A      1.083327    84A      1.112439  
      85A      1.118316    86A      1.125187    87A      1.128904  
      88A      1.159843    89A      1.164983    90A      1.175725  
      91A      1.179524    92A      1.188470    93A      1.204542  
      94A      1.207377    95A      1.212199    96A      1.218238  
      97A      1.219748    98A      1.233530    99A      1.248618  
     100A      1.264485   101A      1.265593   102A      1.275276  
     103A      1.278442   104A      1.384333   105A      1.399107  
     106A      1.437750   107A      1.500441   108A      1.632363  
     109A      1.660251   110A      1.676427   111A      1.705269  
     112A      1.733625   113A      1.761088   114A      1.808122  
     115A      1.868136   116A      1.938360   117A      1.977139  
     118A      2.007314   119A      2.048027   120A      2.077703  
     121A      2.097949   122A      2.108861   123A      2.146658  
     124A      2.188431   125A      2.204142   126A      2.211026  
     127A      2.236419   128A      2.247336   129A      2.279594  
     130A      2.288820   131A      2.303552   132A      2.326790  
     133A      2.344024   134A      2.385492   135A      2.395718  
     136A      2.447271   137A      2.482974   138A      2.553311  
     139A      2.564167   140A      2.585591   141A      2.632289  
     142A      2.656218   143A      2.669976   144A      2.692270  
     145A      2.744311   146A      2.762028   147A      2.800103  
     148A      2.823650   149A      2.912582   150A      2.927277  
     151A      2.950731   152A      2.970898   153A      2.977895  
     154A      3.096590   155A      3.148281   156A      3.218623  
     157A      3.374212   158A      3.411043   159A      4.401516  
     160A      4.530275   161A      4.584763   162A      4.673142  
     163A      4.738973   164A      4.827663   165A      4.858565  
     166A      4.959024   167A      5.010502  

    Final Occupation by Irrep:
              A 
    DOCC [    36 ]

  Energy converged.

  @DF-RHF Final Energy:  -387.13239903965933

   => Energetics <=

    Nuclear Repulsion Energy =            442.9264912864719577
    One-Electron Energy =               -1402.4051215978629443
    Two-Electron Energy =                 572.3462312717324494
    DFT Exchange-Correlation Energy =       0.0000000000000000
    Empirical Dispersion Energy =           0.0000000000000000
    PCM Polarization Energy =               0.0000000000000000
    EFP Energy =                            0.0000000000000000
    Total Energy =                       -387.1323990396585941

    Alert: EFP and PCM quantities not currently incorporated into SCF psivars.

Properties will be evaluated at   0.000000,   0.000000,   0.000000 Bohr
  ==> Properties <==


Properties computed using the SCF density matrix

  Nuclear Dipole Moment: (a.u.)
     X:   -11.8515      Y:    -3.4757      Z:     1.2797

  Electronic Dipole Moment: (a.u.)
     X:    11.3346      Y:     3.0075      Z:    -0.3705

  Dipole Moment: (a.u.)
     X:    -0.5169      Y:    -0.4683      Z:     0.9091     Total:     1.1459

  Dipole Moment: (Debye)
     X:    -1.3139      Y:    -1.1902      Z:     2.3108     Total:     2.9125


  Saving occupied orbitals to File 180.

*** tstop() called on cx1-1-2-1.cx1.hpc.ic.ac.uk at Tue Jul  5 16:50:54 2016
Module time:
	user time   =      26.23 seconds =       0.44 minutes
	system time =       0.25 seconds =       0.00 minutes
	total time  =         27 seconds =       0.45 minutes
Total time:
	user time   =      26.23 seconds =       0.44 minutes
	system time =       0.25 seconds =       0.00 minutes
	total time  =         27 seconds =       0.45 minutes


Properties will be evaluated at   0.000000,   0.000000,   0.000000 Bohr

Properties computed using the  density matrix

  Nuclear Dipole Moment: (a.u.)
     X:   -11.8515      Y:    -3.4757      Z:     1.2797

  Electronic Dipole Moment: (a.u.)
     X:    11.3346      Y:     3.0075      Z:    -0.3705

  Dipole Moment: (a.u.)
     X:    -0.5169      Y:    -0.4683      Z:     0.9091     Total:     1.1459

  Dipole Moment: (Debye)
     X:    -1.3139      Y:    -1.1902      Z:     2.3108     Total:     2.9125

  Quadrupole Moment: (Debye Ang)
    XX:   -65.3802     YY:   -59.9852     ZZ:   -55.7152
    XY:    -4.2644     XZ:     6.7326     YZ:     2.3820

  Traceless Quadrupole Moment: (Debye Ang)
    XX:    -5.0200     YY:     0.3750     ZZ:     4.6450
    XY:    -4.2644     XZ:     6.7326     YZ:     2.3820

  Mulliken Charges: (a.u.)
   Center  Symbol    Alpha    Beta     Spin     Total
       1     O     4.26101  4.26101  0.00000 -0.52202
       2     C     2.73575  2.73575  0.00000  0.52851
       3     C     3.21201  3.21201  0.00000 -0.42401
       4     C     3.28673  3.28673  0.00000 -0.57346
       5     C     3.15113  3.15113  0.00000 -0.30226
       6     H     0.40951  0.40951  0.00000  0.18099
       7     H     0.40980  0.40980  0.00000  0.18039
       8     C     3.15764  3.15764  0.00000 -0.31528
       9     H     0.40988  0.40988  0.00000  0.18023
      10     H     0.41038  0.41038  0.00000  0.17925
      11     C     3.15205  3.15205  0.00000 -0.30410
      12     H     0.41851  0.41851  0.00000  0.16298
      13     H     0.42456  0.42456  0.00000  0.15087
      14     C     3.15165  3.15165  0.00000 -0.30330
      15     H     0.42109  0.42109  0.00000  0.15782
      16     H     0.42611  0.42611  0.00000  0.14779
      17     C     3.23924  3.23924  0.00000 -0.47848
      18     H     0.42233  0.42233  0.00000  0.15535
      19     H     0.42380  0.42380  0.00000  0.15241
      20     H     0.42115  0.42115  0.00000  0.15770
      21     H     0.41924  0.41924  0.00000  0.16153
      22     H     0.42235  0.42235  0.00000  0.15529
      23     H     0.40880  0.40880  0.00000  0.18240
      24     H     0.39649  0.39649  0.00000  0.20702
      25     H     0.40880  0.40880  0.00000  0.18240

   Total alpha = 36.00000, Total beta = 36.00000, Total charge =  0.00000


*** PSI4 exiting successfully. Buy a developer a beer!
