    -----------------------------------------------------------------------
          Psi4: An Open-Source Ab Initio Electronic Structure Package
                              Psi4 (no tag) Driver

                          Git: Rev {detached?}  

    J. M. Turney, A. C. Simmonett, R. M. Parrish, E. G. Hohenstein,
    F. A. Evangelista, J. T. Fermann, B. J. Mintz, L. A. Burns, J. J. Wilke,
    M. L. Abrams, N. J. Russ, M. L. Leininger, C. L. Janssen, E. T. Seidl,
    W. D. Allen, H. F. Schaefer, R. A. King, E. F. Valeev, C. D. Sherrill,
    and T. D. Crawford, WIREs Comput. Mol. Sci. 2, 556-565 (2012)
    (doi: 10.1002/wcms.93)

                         Additional Contributions by
    A. E. DePrince, M. Saitow, U. Bozkaya, A. Yu. Sokolov
    -----------------------------------------------------------------------


    Psi4 started on: Tue Jul  5 16:53:28 2016

    Process ID:   5680
    PSI4DATADIR: /export131/home/mjharvey/miniconda3/share
    Memory level set to 256.000 MB

  ==> Input File <==

--------------------------------------------------------------------------
set {
	reference rhf
	basis 6-31G*
}


set_num_threads( 1 )
memory 2 gb

molecule MOL {
0 1

O	 -0.488453	 0.057968	 1.132425
C	 -0.451170	 -1.129930	 1.097049
C	 0.801727	 -1.959116	 0.945507
O	 -1.528589	 -1.897310	 1.185968
C	 1.124911	 -2.785238	 2.184071
H	 1.613075	 -1.280220	 0.700432
H	 0.669725	 -2.590969	 0.072237
H	 1.272053	 -2.149836	 3.048928
H	 2.030738	 -3.360307	 2.024106
H	 0.320287	 -3.472711	 2.414906
C	 -1.934567	 -2.313204	 2.485820
C	 -0.890197	 -3.281709	 2.999240
H	 -2.910032	 -2.775418	 2.419408
H	 -2.021298	 -1.443799	 3.123161
H	 -0.811630	 -4.144125	 2.347148
H	 -1.161527	 -3.625441	 3.992153
H	 0.082013	 -2.805293	 3.054850

	symmetry c1
}
set optking {
	frozen_dihedral = ("
		2 4 11 13,
		4 2 3 6
	")
}

ee = energy('scf')
oeprop('DIPOLE', 'QUADRUPOLE', 'MULLIKEN_CHARGES')
f=open( 'psi4out.xyz', 'w' )
f.write( "17  " )
f.write( str(ee) + "\n" )
f.write( MOL.save_string_xyz() )
f.close()
--------------------------------------------------------------------------

  Memory set to   2.000 GiB by Python script.

*** tstart() called on cx1-3-16-4.cx1.hpc.ic.ac.uk
*** at Tue Jul  5 16:53:29 2016


         ---------------------------------------------------------
                                   SCF
            by Justin Turney, Rob Parrish, and Andy Simmonett
                              RHF Reference
                        1 Threads,   2000 MiB Core
         ---------------------------------------------------------

  ==> Geometry <==

    Molecular point group: c1
    Full point group: C1

    Geometry (in Angstrom), charge = 0, multiplicity = 1:

       Center              X                  Y                   Z               Mass       
    ------------   -----------------  -----------------  -----------------  -----------------
           O         -0.004680451520     1.967624275543    -0.601727260886    15.994914619560
           C          0.032602548480     0.779726275543    -0.637103260886    12.000000000000
           C          1.285499548480    -0.049459724457    -0.788645260886    12.000000000000
           O         -1.044816451520     0.012346275543    -0.548184260886    15.994914619560
           C          1.608683548480    -0.875581724457     0.449918739114    12.000000000000
           H          2.096847548480     0.629436275543    -1.033720260886     1.007825032070
           H          1.153497548480    -0.681312724457    -1.661915260886     1.007825032070
           H          1.755825548480    -0.240179724457     1.314775739114     1.007825032070
           H          2.514510548480    -1.450650724457     0.289953739114     1.007825032070
           H          0.804059548480    -1.563054724457     0.680753739114     1.007825032070
           C         -1.450794451520    -0.403547724457     0.751667739114    12.000000000000
           C         -0.406424451520    -1.372052724457     1.265087739114    12.000000000000
           H         -2.426259451520    -0.865761724457     0.685255739114     1.007825032070
           H         -1.537525451520     0.465857275543     1.389008739114     1.007825032070
           H         -0.327857451520    -2.234468724457     0.612995739114     1.007825032070
           H         -0.677754451520    -1.715784724457     2.258000739114     1.007825032070
           H          0.565785548480    -0.895636724457     1.320697739114     1.007825032070

  Running in c1 symmetry.

  Rotational constants: A =      0.11545  B =      0.09234  C =      0.05940 [cm^-1]
  Rotational constants: A =   3461.10181  B =   2768.31042  C =   1780.71779 [MHz]
  Nuclear repulsion =  338.146627006935717

  Charge       = 0
  Multiplicity = 1
  Electrons    = 56
  Nalpha       = 28
  Nbeta        = 28

  ==> Algorithm <==

  SCF Algorithm Type is DF.
  DIIS enabled.
  MOM disabled.
  Fractional occupation disabled.
  Guess Type is CORE.
  Energy threshold   = 1.00e-06
  Density threshold  = 1.00e-06
  Integral threshold = 0.00e+00

  ==> Primary Basis <==

  Basis Set: 6-31G*
    Number of shells: 62
    Number of basis function: 125
    Number of Cartesian functions: 125
    Spherical Harmonics?: false
    Max angular momentum: 2

  ==> Pre-Iterations <==

   -------------------------------------------------------
    Irrep   Nso     Nmo     Nalpha   Nbeta   Ndocc  Nsocc
   -------------------------------------------------------
     A        125     125       0       0       0       0
   -------------------------------------------------------
    Total     125     125      28      28      28       0
   -------------------------------------------------------

 OEINTS: Overlap, kinetic, potential, dipole, and quadrupole integrals
         stored in file 35.

  ==> Integral Setup <==

  ==> DFJK: Density-Fitted J/K Matrices <==

    J tasked:                  Yes
    K tasked:                  Yes
    wK tasked:                  No
    OpenMP threads:              1
    Integrals threads:           1
    Memory (MB):              1430
    Algorithm:                Core
    Integral Cache:           NONE
    Schwarz Cutoff:          1E-12
    Fitting Condition:       1E-12

   => Auxiliary Basis Set <=

  Basis Set: 
    Number of shells: 258
    Number of basis function: 817
    Number of Cartesian functions: 817
    Spherical Harmonics?: false
    Max angular momentum: 3

  Minimum eigenvalue in the overlap matrix is 3.3586395787E-03.
  Using Symmetric Orthogonalization.
  SCF Guess: Core (One-Electron) Hamiltonian.

  ==> Iterations <==

                           Total Energy        Delta E     RMS |[F,P]|

   @DF-RHF iter   1:  -268.02869712747719   -2.68029e+02   7.23262e-02 
   @DF-RHF iter   2:  -214.89679681413753    5.31319e+01   6.90199e-02 DIIS
   @DF-RHF iter   3:  -305.77520493619085   -9.08784e+01   4.17953e-02 DIIS
   @DF-RHF iter   4:  -317.55972857823662   -1.17845e+01   4.47120e-02 DIIS
   @DF-RHF iter   5:  -343.31009081412680   -2.57504e+01   1.29583e-02 DIIS
   @DF-RHF iter   6:  -343.81185042378053   -5.01760e-01   1.06074e-02 DIIS
   @DF-RHF iter   7:  -344.53821474844261   -7.26364e-01   2.97544e-03 DIIS
   @DF-RHF iter   8:  -344.61096948314758   -7.27547e-02   1.43296e-03 DIIS
   @DF-RHF iter   9:  -344.62710594565243   -1.61365e-02   5.85971e-04 DIIS
   @DF-RHF iter  10:  -344.63078699678221   -3.68105e-03   1.22842e-04 DIIS
   @DF-RHF iter  11:  -344.63100117422078   -2.14177e-04   3.37489e-05 DIIS
   @DF-RHF iter  12:  -344.63102169262919   -2.05184e-05   1.29334e-05 DIIS
   @DF-RHF iter  13:  -344.63102460763906   -2.91501e-06   5.52831e-06 DIIS
   @DF-RHF iter  14:  -344.63102522674848   -6.19109e-07   1.58107e-06 DIIS
   @DF-RHF iter  15:  -344.63102527639268   -4.96442e-08   3.69813e-07 DIIS

  ==> Post-Iterations <==

    Orbital Energies (a.u.)
    -----------------------

    Doubly Occupied:                                                      

       1A    -20.583128     2A    -20.554714     3A    -11.373110  
       4A    -11.298912     5A    -11.239874     6A    -11.201029  
       7A    -11.199504     8A     -1.463758     9A     -1.367097  
      10A     -1.143232    11A     -1.054897    12A     -0.943971  
      13A     -0.889566    14A     -0.767150    15A     -0.721261  
      16A     -0.678204    17A     -0.672313    18A     -0.660299  
      19A     -0.649814    20A     -0.589793    21A     -0.576823  
      22A     -0.561130    23A     -0.530804    24A     -0.507218  
      25A     -0.481186    26A     -0.452118    27A     -0.431958  
      28A     -0.359681  

    Virtual:                                                              

      29A      0.167491    30A      0.227200    31A      0.252458  
      32A      0.262575    33A      0.283511    34A      0.297081  
      35A      0.306019    36A      0.313287    37A      0.329178  
      38A      0.337014    39A      0.353633    40A      0.381523  
      41A      0.404660    42A      0.442331    43A      0.530500  
      44A      0.565685    45A      0.578422    46A      0.686452  
      47A      0.709705    48A      0.731504    49A      0.768385  
      50A      0.784520    51A      0.804037    52A      0.822405  
      53A      0.852290    54A      0.903582    55A      0.913135  
      56A      0.920885    57A      0.972094    58A      1.009623  
      59A      1.034394    60A      1.065121    61A      1.094761  
      62A      1.114603    63A      1.129611    64A      1.143156  
      65A      1.148196    66A      1.162816    67A      1.183617  
      68A      1.189898    69A      1.215623    70A      1.229796  
      71A      1.243918    72A      1.272215    73A      1.322168  
      74A      1.369239    75A      1.379427    76A      1.433280  
      77A      1.456861    78A      1.475037    79A      1.579848  
      80A      1.636600    81A      1.690771    82A      1.752168  
      83A      1.841494    84A      1.921057    85A      1.934505  
      86A      2.000762    87A      2.027785    88A      2.040009  
      89A      2.074263    90A      2.132020    91A      2.143808  
      92A      2.195656    93A      2.228147    94A      2.252779  
      95A      2.258490    96A      2.288522    97A      2.329623  
      98A      2.358809    99A      2.387989   100A      2.433234  
     101A      2.470600   102A      2.560647   103A      2.617033  
     104A      2.620341   105A      2.651212   106A      2.681488  
     107A      2.749575   108A      2.782497   109A      2.848401  
     110A      2.884101   111A      2.950448   112A      2.993296  
     113A      3.037490   114A      3.183632   115A      3.243516  
     116A      3.309356   117A      3.388995   118A      3.497457  
     119A      4.439246   120A      4.556991   121A      4.625293  
     122A      4.759729   123A      4.787579   124A      4.920318  
     125A      5.009683  

    Final Occupation by Irrep:
              A 
    DOCC [    28 ]

  Energy converged.

  @DF-RHF Final Energy:  -344.63102527639268

   => Energetics <=

    Nuclear Repulsion Energy =            338.1466270069357165
    One-Electron Energy =               -1139.6501168742938717
    Two-Electron Energy =                 456.8724645909644551
    DFT Exchange-Correlation Energy =       0.0000000000000000
    Empirical Dispersion Energy =           0.0000000000000000
    PCM Polarization Energy =               0.0000000000000000
    EFP Energy =                            0.0000000000000000
    Total Energy =                       -344.6310252763937569

    Alert: EFP and PCM quantities not currently incorporated into SCF psivars.

Properties will be evaluated at   0.000000,   0.000000,   0.000000 Bohr
  ==> Properties <==


Properties computed using the SCF density matrix

  Nuclear Dipole Moment: (a.u.)
     X:     3.6709      Y:    -8.0073      Z:     5.4841

  Electronic Dipole Moment: (a.u.)
     X:    -3.4055      Y:     6.6793      Z:    -4.7965

  Dipole Moment: (a.u.)
     X:     0.2654      Y:    -1.3280      Z:     0.6876     Total:     1.5189

  Dipole Moment: (Debye)
     X:     0.6747      Y:    -3.3756      Z:     1.7477     Total:     3.8606


  Saving occupied orbitals to File 180.

*** tstop() called on cx1-3-16-4.cx1.hpc.ic.ac.uk at Tue Jul  5 16:53:41 2016
Module time:
	user time   =      11.85 seconds =       0.20 minutes
	system time =       0.08 seconds =       0.00 minutes
	total time  =         12 seconds =       0.20 minutes
Total time:
	user time   =      11.85 seconds =       0.20 minutes
	system time =       0.08 seconds =       0.00 minutes
	total time  =         12 seconds =       0.20 minutes


Properties will be evaluated at   0.000000,   0.000000,   0.000000 Bohr

Properties computed using the  density matrix

  Nuclear Dipole Moment: (a.u.)
     X:     3.6709      Y:    -8.0073      Z:     5.4841

  Electronic Dipole Moment: (a.u.)
     X:    -3.4055      Y:     6.6793      Z:    -4.7965

  Dipole Moment: (a.u.)
     X:     0.2654      Y:    -1.3280      Z:     0.6876     Total:     1.5189

  Dipole Moment: (Debye)
     X:     0.6747      Y:    -3.3756      Z:     1.7477     Total:     3.8606

  Quadrupole Moment: (Debye Ang)
    XX:   -43.0167     YY:   -49.9079     ZZ:   -42.1684
    XY:     0.8209     XZ:    -2.4663     YZ:     1.4082

  Traceless Quadrupole Moment: (Debye Ang)
    XX:     2.0143     YY:    -4.8769     ZZ:     2.8626
    XY:     0.8209     XZ:    -2.4663     YZ:     1.4082

  Mulliken Charges: (a.u.)
   Center  Symbol    Alpha    Beta     Spin     Total
       1     O     4.25798  4.25798  0.00000 -0.51596
       2     C     2.63493  2.63493  0.00000  0.73014
       3     C     3.18753  3.18753  0.00000 -0.37506
       4     O     4.31254  4.31254  0.00000 -0.62507
       5     C     3.31965  3.31965  0.00000 -0.63929
       6     H     0.39773  0.39773  0.00000  0.20454
       7     H     0.40113  0.40113  0.00000  0.19773
       8     H     0.40099  0.40099  0.00000  0.19803
       9     H     0.41094  0.41094  0.00000  0.17812
      10     H     0.36405  0.36405  0.00000  0.27189
      11     C     2.99958  2.99958  0.00000  0.00084
      12     C     3.32232  3.32232  0.00000 -0.64464
      13     H     0.40255  0.40255  0.00000  0.19491
      14     H     0.40760  0.40760  0.00000  0.18481
      15     H     0.40044  0.40044  0.00000  0.19912
      16     H     0.41373  0.41373  0.00000  0.17253
      17     H     0.36632  0.36632  0.00000  0.26736

   Total alpha = 28.00000, Total beta = 28.00000, Total charge = -0.00000


*** PSI4 exiting successfully. Buy a developer a beer!
