
    -----------------------------------------------------------------------
          Psi4: An Open-Source Ab Initio Electronic Structure Package
                               Psi4 1.1 release

                         Git: Rev {HEAD} add49b9 


    R. M. Parrish, L. A. Burns, D. G. A. Smith, A. C. Simmonett,
    A. E. DePrince III, E. G. Hohenstein, U. Bozkaya, A. Yu. Sokolov,
    R. Di Remigio, R. M. Richard, J. F. Gonthier, A. M. James,
    H. R. McAlexander, A. Kumar, M. Saitow, X. Wang, B. P. Pritchard,
    P. Verma, H. F. Schaefer III, K. Patkowski, R. A. King, E. F. Valeev,
    F. A. Evangelista, J. M. Turney, T. D. Crawford, and C. D. Sherrill,
    J. Chem. Theory Comput. in press (2017).
    (doi: 10.1021/acs.jctc.7b00174)

    -----------------------------------------------------------------------


    Psi4 started on: Wednesday, 06 September 2017 12:45PM

    Process ID:  31396
    PSIDATADIR: /home/raimis/opt/miniconda3/envs/htmd/share/psi4
    Memory:     500.0 MiB
    Threads:    1
    
  ==> Input File <==

--------------------------------------------------------------------------
set_num_threads( 8 )
memory 2.000000 gb

set { reference rks }
set { basis cc-pVDZ }

molecule MOL {
    0 1
    noreorient
    nocom
    symmetry c1
    O    1.141000   0.017000   0.083000
    C    2.558000   0.086000  -0.005000
    C    3.192000  -0.789000   1.067000
    O    2.789795  -0.348133   2.358215
    H    0.789000   0.590000  -0.620000
    H    2.874000   1.128000   0.115000
    H    2.871000  -0.243000  -1.001000
    H    4.283538  -0.747996   0.997722
    H    2.889205  -1.833963   0.935677
    H    3.221250  -0.938201   3.000516
}

set optking { frozen_dihedral = (" 1 2 3 4, 2 3 4 10 ") }

energy, wfn = energy('B3LYP-D3', return_wfn=True)

import os
os.chdir(os.environ['HTMD_PSI4_WORKDIR'])

oeprop(wfn, 'DIPOLE', 'QUADRUPOLE', 'MULLIKEN_CHARGES')

with open('psi4out.xyz', 'w') as f:
    f.write('10 ' )
    f.write('%.12f\n' % energy)
    f.write(MOL.save_string_xyz())
--------------------------------------------------------------------------
  Threads set to 8 by Python driver.

  Memory set to   1.863 GiB by Python driver.

*** tstart() called on computer03
*** at Wed Sep  6 12:45:07 2017

   => Loading Basis Set <=

    Name: CC-PVDZ
    Role: ORBITAL
    Keyword: BASIS
    atoms 1, 4 entry O          line   190 file /home/raimis/opt/miniconda3/envs/htmd/share/psi4/basis/cc-pvdz.gbs 
    atoms 2-3  entry C          line   130 file /home/raimis/opt/miniconda3/envs/htmd/share/psi4/basis/cc-pvdz.gbs 
    atoms 5-10 entry H          line    20 file /home/raimis/opt/miniconda3/envs/htmd/share/psi4/basis/cc-pvdz.gbs 


         ---------------------------------------------------------
                                   SCF
            by Justin Turney, Rob Parrish, and Andy Simmonett
                              RKS Reference
                        8 Threads,   1907 MiB Core
         ---------------------------------------------------------

  ==> Geometry <==

    Molecular point group: c1
    Full point group: C1

    Geometry (in Angstrom), charge = 0, multiplicity = 1:

       Center              X                  Y                   Z               Mass       
    ------------   -----------------  -----------------  -----------------  -----------------
           O          1.141000000000     0.017000000000     0.083000000000    15.994914619560
           C          2.558000000000     0.086000000000    -0.005000000000    12.000000000000
           C          3.192000000000    -0.789000000000     1.067000000000    12.000000000000
           O          2.789795000000    -0.348133000000     2.358215000000    15.994914619560
           H          0.789000000000     0.590000000000    -0.620000000000     1.007825032070
           H          2.874000000000     1.128000000000     0.115000000000     1.007825032070
           H          2.871000000000    -0.243000000000    -1.001000000000     1.007825032070
           H          4.283538000000    -0.747996000000     0.997722000000     1.007825032070
           H          2.889205000000    -1.833963000000     0.935677000000     1.007825032070
           H          3.221250000000    -0.938201000000     3.000516000000     1.007825032070

  Running in c1 symmetry.

  Rotational constants: A =      0.32918  B =      0.03450  C =      0.03218 [cm^-1]
  Rotational constants: A =   9868.49207  B =   1034.34475  C =    964.67322 [MHz]
  Nuclear repulsion =  131.829371431303457

  Charge       = 0
  Multiplicity = 1
  Electrons    = 34
  Nalpha       = 17
  Nbeta        = 17

  ==> Algorithm <==

  SCF Algorithm Type is DF.
  DIIS enabled.
  MOM disabled.
  Fractional occupation disabled.
  Guess Type is SAD.
  Energy threshold   = 1.00e-06
  Density threshold  = 1.00e-06
  Integral threshold = 0.00e+00

  ==> Primary Basis <==

  Basis Set: CC-PVDZ
    Blend: CC-PVDZ
    Number of shells: 42
    Number of basis function: 86
    Number of Cartesian functions: 90
    Spherical Harmonics?: true
    Max angular momentum: 2

  ==> DFT Potential <==

   => B3LYP Composite Functional <= 

    B3LYP Hybrid-GGA Exchange-Correlation Functional (VWN1-RPA)

    P.J. Stephens et. al., J. Phys. Chem., 98, 11623-11627, 1994

    Points   =           5000
    Deriv    =              1
    GGA      =           TRUE
    Meta     =          FALSE

    X_LRC        =          FALSE
    X_Hybrid     =           TRUE
    X_Alpha      =   2.000000E-01
    X_Omega      =   0.000000E+00
    C_LRC        =          FALSE
    C_Hybrid     =          FALSE
    C_Alpha      =   0.000000E+00
    C_Omega      =   0.000000E+00

   => Exchange Functionals <=

    0.8000    B3_X
    0.2000      HF 

   => Correlation Functionals <=

    0.1900 VWN3RPA_C
    0.8100   LYP_C

   => Molecular Quadrature <=

    Radial Scheme    =       TREUTLER
    Pruning Scheme   =           FLAT
    Nuclear Scheme   =       TREUTLER

    BS radius alpha  =              1
    Pruning alpha    =              1
    Radial Points    =             75
    Spherical Points =            302
    Total Points     =         222570
    Total Blocks     =            205
    Max Points       =           4934
    Max Functions    =             86

   => -D3ZERO: Empirical Dispersion <=

    Grimme's -D3 (zero-damping) Dispersion Correction
    Grimme S.; Antony J.; Ehrlich S.; Krieg H. (2010), J. Chem. Phys., 132: 154104

        S6 =   1.000000E+00
        S8 =   1.703000E+00
       SR6 =   1.261000E+00
    ALPHA6 =   1.400000E+01

   => Loading Basis Set <=

    Name: (CC-PVDZ AUX)
    Role: JKFIT
    Keyword: DF_BASIS_SCF
    atoms 1, 4 entry O          line   220 file /home/raimis/opt/miniconda3/envs/htmd/share/psi4/basis/cc-pvdz-jkfit.gbs 
    atoms 2-3  entry C          line   120 file /home/raimis/opt/miniconda3/envs/htmd/share/psi4/basis/cc-pvdz-jkfit.gbs 
    atoms 5-10 entry H          line    50 file /home/raimis/opt/miniconda3/envs/htmd/share/psi4/basis/cc-pvdz-jkfit.gbs 

  ==> Pre-Iterations <==

   -------------------------------------------------------
    Irrep   Nso     Nmo     Nalpha   Nbeta   Ndocc  Nsocc
   -------------------------------------------------------
     A         86      86       0       0       0       0
   -------------------------------------------------------
    Total      86      86      17      17      17       0
   -------------------------------------------------------

  ==> Integral Setup <==

  ==> DFJK: Density-Fitted J/K Matrices <==

    J tasked:                  Yes
    K tasked:                  Yes
    wK tasked:                  No
    OpenMP threads:              8
    Integrals threads:           8
    Memory (MB):              1430
    Algorithm:                Core
    Integral Cache:           NONE
    Schwarz Cutoff:          1E-12
    Fitting Condition:       1E-12

   => Auxiliary Basis Set <=

  Basis Set: (CC-PVDZ AUX)
    Blend: CC-PVDZ-JKFIT
    Number of shells: 150
    Number of basis function: 418
    Number of Cartesian functions: 474
    Spherical Harmonics?: true
    Max angular momentum: 3

  Minimum eigenvalue in the overlap matrix is 5.1681647844E-03.
  Using Symmetric Orthogonalization.

  SCF Guess: Superposition of Atomic Densities via on-the-fly atomic UHF.

  ==> Iterations <==

                           Total Energy        Delta E     RMS |[F,P]|

   @DF-RKS iter   0:  -230.85536523173374   -2.30855e+02   6.52091e-02 
   @DF-RKS iter   1:  -230.16518498950055    6.90180e-01   7.65465e-03 
   @DF-RKS iter   2:  -230.11726582128455    4.79192e-02   1.35084e-02 DIIS
   @DF-RKS iter   3:  -230.25413707082387   -1.36871e-01   1.23419e-03 DIIS
   @DF-RKS iter   4:  -230.25535633118838   -1.21926e-03   4.63380e-04 DIIS
   @DF-RKS iter   5:  -230.25570047521489   -3.44144e-04   7.24490e-05 DIIS
   @DF-RKS iter   6:  -230.25570776377052   -7.28856e-06   7.68283e-06 DIIS
   @DF-RKS iter   7:  -230.25570781945569   -5.56852e-08   3.51499e-06 DIIS
   @DF-RKS iter   8:  -230.25570783685401   -1.73983e-08   1.13793e-06 DIIS
   @DF-RKS iter   9:  -230.25570783790448   -1.05047e-09   2.59792e-07 DIIS

  ==> Post-Iterations <==

    Orbital Energies (a.u.)
    -----------------------

    Doubly Occupied:                                                      

       1A    -19.124736     2A    -19.124705     3A    -10.227407  
       4A    -10.227216     5A     -1.016442     6A     -0.998872  
       7A     -0.733847     8A     -0.602007     9A     -0.520242  
      10A     -0.500836    11A     -0.438882    12A     -0.416237  
      13A     -0.403663    14A     -0.340253    15A     -0.318367  
      16A     -0.261211    17A     -0.257267  

    Virtual:                                                              

      18A      0.045417    19A      0.069470    20A      0.096626  
      21A      0.120521    22A      0.132827    23A      0.147121  
      24A      0.199662    25A      0.218100    26A      0.231006  
      27A      0.464183    28A      0.470192    29A      0.502377  
      30A      0.513151    31A      0.543370    32A      0.558186  
      33A      0.609459    34A      0.625747    35A      0.641146  
      36A      0.658180    37A      0.663345    38A      0.695977  
      39A      0.887687    40A      0.913254    41A      0.915067  
      42A      0.990299    43A      0.998748    44A      1.039468  
      45A      1.082752    46A      1.155913    47A      1.202093  
      48A      1.235107    49A      1.277963    50A      1.316685  
      51A      1.327088    52A      1.385445    53A      1.495437  
      54A      1.515069    55A      1.607709    56A      1.611875  
      57A      1.618737    58A      1.630408    59A      1.647616  
      60A      1.705080    61A      1.716271    62A      1.739131  
      63A      1.886184    64A      1.886580    65A      1.933465  
      66A      1.983692    67A      2.011424    68A      2.039865  
      69A      2.150720    70A      2.151548    71A      2.239493  
      72A      2.276115    73A      2.407751    74A      2.411532  
      75A      2.519499    76A      2.528406    77A      2.923506  
      78A      2.954405    79A      2.992174    80A      3.036852  
      81A      3.066597    82A      3.153264    83A      3.196570  
      84A      3.226040    85A      3.656384    86A      3.740197  

    Final Occupation by Irrep:
              A 
    DOCC [    17 ]

  Energy converged.

  @DF-RKS Final Energy:  -230.25570783790448

   => Energetics <=

    Nuclear Repulsion Energy =            131.8293714313034570
    One-Electron Energy =                -575.5151305911308555
    Two-Electron Energy =                 237.9704750097448596
    DFT Exchange-Correlation Energy =     -24.5360894378219569
    Empirical Dispersion Energy =          -0.0043342500000000
    PCM Polarization Energy =               0.0000000000000000
    EFP Energy =                            0.0000000000000000
    Total Energy =                       -230.2557078379044810



Properties will be evaluated at   0.000000,   0.000000,   0.000000 Bohr

Properties computed using the SCF density matrix

  Nuclear Dipole Moment: (a.u.)
     X:   156.6098      Y:   -16.8417      Z:    55.4250

  Electronic Dipole Moment: (a.u.)
     X:  -155.9952      Y:    16.7158      Z:   -55.8922

  Dipole Moment: (a.u.)
     X:     0.6147      Y:    -0.1259      Z:    -0.4672     Total:     0.7823

  Dipole Moment: (Debye)
     X:     1.5623      Y:    -0.3200      Z:    -1.1875     Total:     1.9883


*** tstop() called on computer03 at Wed Sep  6 12:45:26 2017
Module time:
	user time   =      31.91 seconds =       0.53 minutes
	system time =       0.80 seconds =       0.01 minutes
	total time  =         19 seconds =       0.32 minutes
Total time:
	user time   =      31.91 seconds =       0.53 minutes
	system time =       0.80 seconds =       0.01 minutes
	total time  =         19 seconds =       0.32 minutes


Properties will be evaluated at   0.000000,   0.000000,   0.000000 Bohr

Properties computed using the  density matrix

  Nuclear Dipole Moment: (a.u.)
     X:   156.6098      Y:   -16.8417      Z:    55.4250

  Electronic Dipole Moment: (a.u.)
     X:  -155.9952      Y:    16.7158      Z:   -55.8922

  Dipole Moment: (a.u.)
     X:     0.6147      Y:    -0.1259      Z:    -0.4672     Total:     0.7823

  Dipole Moment: (Debye)
     X:     1.5623      Y:    -0.3200      Z:    -1.1875     Total:     1.9883

  Quadrupole Moment: (Debye Ang)
    XX:   -16.5382     YY:   -22.7419     ZZ:   -22.6091
    XY:    -3.8199     XZ:     1.8341     YZ:    -4.3168

  Traceless Quadrupole Moment: (Debye Ang)
    XX:     4.0915     YY:    -2.1121     ZZ:    -1.9794
    XY:    -3.8199     XZ:     1.8341     YZ:    -4.3168

  Mulliken Charges: (a.u.)
   Center  Symbol    Alpha    Beta     Spin     Total
       1     O     4.13461  4.13461  0.00000 -0.26922
       2     C     2.93252  2.93252  0.00000  0.13496
       3     C     2.93266  2.93266  0.00000  0.13469
       4     O     4.13486  4.13486  0.00000 -0.26972
       5     H     0.43067  0.43067  0.00000  0.13865
       6     H     0.49846  0.49846  0.00000  0.00308
       7     H     0.50368  0.50368  0.00000 -0.00735
       8     H     0.50356  0.50356  0.00000 -0.00711
       9     H     0.49836  0.49836  0.00000  0.00328
      10     H     0.43062  0.43062  0.00000  0.13876

   Total alpha = 17.00000, Total beta = 17.00000, Total charge =  0.00000


*** Psi4 exiting successfully. Buy a developer a beer!
