    -----------------------------------------------------------------------
          Psi4: An Open-Source Ab Initio Electronic Structure Package
                              Psi4 (no tag) Driver

                          Git: Rev {detached?}  

    J. M. Turney, A. C. Simmonett, R. M. Parrish, E. G. Hohenstein,
    F. A. Evangelista, J. T. Fermann, B. J. Mintz, L. A. Burns, J. J. Wilke,
    M. L. Abrams, N. J. Russ, M. L. Leininger, C. L. Janssen, E. T. Seidl,
    W. D. Allen, H. F. Schaefer, R. A. King, E. F. Valeev, C. D. Sherrill,
    and T. D. Crawford, WIREs Comput. Mol. Sci. 2, 556-565 (2012)
    (doi: 10.1002/wcms.93)

                         Additional Contributions by
    A. E. DePrince, M. Saitow, U. Bozkaya, A. Yu. Sokolov
    -----------------------------------------------------------------------


    Psi4 started on: Tue Jul  5 16:21:20 2016

    Process ID:  19199
    PSI4DATADIR: /export131/home/mjharvey/miniconda3/share
    Memory level set to 256.000 MB

  ==> Input File <==

--------------------------------------------------------------------------
set {
	reference rhf
	basis 6-31G*
}


set_num_threads( 1 )
memory 2 gb

molecule MOL {
0 1

H	 -1.518340	 -0.270561	 -1.039401
N	 -1.172117	 -0.314371	 -0.100254
C	 -0.024542	 0.565565	 0.069209
H	 -1.923565	 -0.030153	 0.499433
C	 1.271298	 -0.229563	 -0.014192
H	 -0.049409	 1.297310	 -0.731596
H	 -0.046881	 1.125219	 1.006750
H	 1.332152	 -0.753033	 -0.961461
H	 2.134169	 0.422483	 0.080702
H	 1.326077	 -0.968298	 0.781395

	symmetry c1
}
ee = energy('scf')
oeprop('DIPOLE', 'QUADRUPOLE', 'MULLIKEN_CHARGES')
f=open( 'psi4out.xyz', 'w' )
f.write( "10  " )
f.write( str(ee) + "\n" )
f.write( MOL.save_string_xyz() )
f.close()
--------------------------------------------------------------------------

  Memory set to   2.000 GiB by Python script.

*** tstart() called on cx1-3-15-2.cx1.hpc.ic.ac.uk
*** at Tue Jul  5 16:21:21 2016


         ---------------------------------------------------------
                                   SCF
            by Justin Turney, Rob Parrish, and Andy Simmonett
                              RHF Reference
                        1 Threads,   2000 MiB Core
         ---------------------------------------------------------

  ==> Geometry <==

    Molecular point group: c1
    Full point group: C1

    Geometry (in Angstrom), charge = 0, multiplicity = 1:

       Center              X                  Y                   Z               Mass       
    ------------   -----------------  -----------------  -----------------  -----------------
           H         -1.514164214476    -0.280753904745    -1.014750735844     1.007825032070
           N         -1.167941214476    -0.324563904745    -0.075603735844    14.003074004780
           C         -0.020366214476     0.555372095255     0.093859264156    12.000000000000
           H         -1.919389214476    -0.040345904745     0.524083264156     1.007825032070
           C          1.275473785524    -0.239755904745     0.010458264156    12.000000000000
           H         -0.045233214476     1.287117095255    -0.706945735844     1.007825032070
           H         -0.042705214476     1.115026095255     1.031400264156     1.007825032070
           H          1.336327785524    -0.763225904745    -0.936810735844     1.007825032070
           H          2.138344785524     0.412290095255     0.105352264156     1.007825032070
           H          1.330252785524    -0.978490904745     0.806045264156     1.007825032070

  Running in c1 symmetry.

  Rotational constants: A =      1.11368  B =      0.29485  C =      0.26412 [cm^-1]
  Rotational constants: A =  33387.17747  B =   8839.36155  C =   7918.05565 [MHz]
  Nuclear repulsion =   83.251140647889301

  Charge       = 0
  Multiplicity = 1
  Electrons    = 26
  Nalpha       = 13
  Nbeta        = 13

  ==> Algorithm <==

  SCF Algorithm Type is DF.
  DIIS enabled.
  MOM disabled.
  Fractional occupation disabled.
  Guess Type is CORE.
  Energy threshold   = 1.00e-06
  Density threshold  = 1.00e-06
  Integral threshold = 0.00e+00

  ==> Primary Basis <==

  Basis Set: 6-31G*
    Number of shells: 32
    Number of basis function: 59
    Number of Cartesian functions: 59
    Spherical Harmonics?: false
    Max angular momentum: 2

  ==> Pre-Iterations <==

   -------------------------------------------------------
    Irrep   Nso     Nmo     Nalpha   Nbeta   Ndocc  Nsocc
   -------------------------------------------------------
     A         59      59       0       0       0       0
   -------------------------------------------------------
    Total      59      59      13      13      13       0
   -------------------------------------------------------

 OEINTS: Overlap, kinetic, potential, dipole, and quadrupole integrals
         stored in file 35.

  ==> Integral Setup <==

  ==> DFJK: Density-Fitted J/K Matrices <==

    J tasked:                  Yes
    K tasked:                  Yes
    wK tasked:                  No
    OpenMP threads:              1
    Integrals threads:           1
    Memory (MB):              1430
    Algorithm:                Core
    Integral Cache:           NONE
    Schwarz Cutoff:          1E-12
    Fitting Condition:       1E-12

   => Auxiliary Basis Set <=

  Basis Set: 
    Number of shells: 135
    Number of basis function: 418
    Number of Cartesian functions: 418
    Spherical Harmonics?: false
    Max angular momentum: 3

  Minimum eigenvalue in the overlap matrix is 5.8617425996E-03.
  Using Symmetric Orthogonalization.
  SCF Guess: Core (One-Electron) Hamiltonian.

  ==> Iterations <==

                           Total Energy        Delta E     RMS |[F,P]|

   @DF-RHF iter   1:  -108.81939516185018   -1.08819e+02   9.45558e-02 
   @DF-RHF iter   2:  -109.42895507083965   -6.09560e-01   6.29663e-02 DIIS
   @DF-RHF iter   3:  -116.93452968733668   -7.50557e+00   6.88148e-02 DIIS
   @DF-RHF iter   4:  -133.57839369017995   -1.66439e+01   1.86872e-02 DIIS
   @DF-RHF iter   5:  -134.13562144595596   -5.57228e-01   7.35084e-03 DIIS
   @DF-RHF iter   6:  -134.22648646909988   -9.08650e-02   2.53682e-03 DIIS
   @DF-RHF iter   7:  -134.24243138781367   -1.59449e-02   6.08646e-04 DIIS
   @DF-RHF iter   8:  -134.24352480187042   -1.09341e-03   1.74708e-04 DIIS
   @DF-RHF iter   9:  -134.24361338886189   -8.85870e-05   5.57588e-05 DIIS
   @DF-RHF iter  10:  -134.24362209201354   -8.70315e-06   1.09625e-05 DIIS
   @DF-RHF iter  11:  -134.24362247368600   -3.81672e-07   2.56629e-06 DIIS
   @DF-RHF iter  12:  -134.24362248998847   -1.63025e-08   3.24156e-07 DIIS

  ==> Post-Iterations <==

    Orbital Energies (a.u.)
    -----------------------

    Doubly Occupied:                                                      

       1A    -15.531634     2A    -11.242716     3A    -11.200008  
       4A     -1.175832     5A     -0.984712     6A     -0.819381  
       7A     -0.671182     8A     -0.623461     9A     -0.571994  
      10A     -0.522887    11A     -0.509163    12A     -0.478220  
      13A     -0.379469  

    Virtual:                                                              

      14A      0.223617    15A      0.277109    16A      0.279561  
      17A      0.316716    18A      0.333148    19A      0.340425  
      20A      0.378187    21A      0.414728    22A      0.441986  
      23A      0.734817    24A      0.750651    25A      0.789593  
      26A      0.817989    27A      0.880074    28A      0.944310  
      29A      1.007846    30A      1.084187    31A      1.124755  
      32A      1.158859    33A      1.170185    34A      1.197824  
      35A      1.226916    36A      1.242025    37A      1.256221  
      38A      1.259423    39A      1.278619    40A      1.587142  
      41A      1.716962    42A      1.749943    43A      1.768202  
      44A      2.091382    45A      2.223078    46A      2.246381  
      47A      2.339283    48A      2.417650    49A      2.492331  
      50A      2.557127    51A      2.586164    52A      2.698480  
      53A      2.755583    54A      2.919834    55A      2.972605  
      56A      3.080129    57A      4.214740    58A      4.628659  
      59A      4.848178  

    Final Occupation by Irrep:
              A 
    DOCC [    13 ]

  Energy converged.

  @DF-RHF Final Energy:  -134.24362248998847

   => Energetics <=

    Nuclear Repulsion Energy =             83.2511406478893008
    One-Electron Energy =                -345.5681873789062024
    Two-Electron Energy =                 128.0734242410283059
    DFT Exchange-Correlation Energy =       0.0000000000000000
    Empirical Dispersion Energy =           0.0000000000000000
    PCM Polarization Energy =               0.0000000000000000
    EFP Energy =                            0.0000000000000000
    Total Energy =                       -134.2436224899885815

    Alert: EFP and PCM quantities not currently incorporated into SCF psivars.

Properties will be evaluated at   0.000000,   0.000000,   0.000000 Bohr
  ==> Properties <==


Properties computed using the SCF density matrix

  Nuclear Dipole Moment: (a.u.)
     X:     1.2066      Y:     0.7056      Z:    -0.1794

  Electronic Dipole Moment: (a.u.)
     X:    -1.4557      Y:    -0.1497      Z:     0.0532

  Dipole Moment: (a.u.)
     X:    -0.2491      Y:     0.5558      Z:    -0.1262     Total:     0.6220

  Dipole Moment: (Debye)
     X:    -0.6332      Y:     1.4128      Z:    -0.3208     Total:     1.5811


  Saving occupied orbitals to File 180.

*** tstop() called on cx1-3-15-2.cx1.hpc.ic.ac.uk at Tue Jul  5 16:21:23 2016
Module time:
	user time   =       1.62 seconds =       0.03 minutes
	system time =       0.02 seconds =       0.00 minutes
	total time  =          2 seconds =       0.03 minutes
Total time:
	user time   =       1.62 seconds =       0.03 minutes
	system time =       0.02 seconds =       0.00 minutes
	total time  =          2 seconds =       0.03 minutes


Properties will be evaluated at   0.000000,   0.000000,   0.000000 Bohr

Properties computed using the  density matrix

  Nuclear Dipole Moment: (a.u.)
     X:     1.2066      Y:     0.7056      Z:    -0.1794

  Electronic Dipole Moment: (a.u.)
     X:    -1.4557      Y:    -0.1497      Z:     0.0532

  Dipole Moment: (a.u.)
     X:    -0.2491      Y:     0.5558      Z:    -0.1262     Total:     0.6220

  Dipole Moment: (Debye)
     X:    -0.6332      Y:     1.4128      Z:    -0.3208     Total:     1.5811

  Quadrupole Moment: (Debye Ang)
    XX:   -18.8378     YY:   -22.7391     ZZ:   -19.0688
    XY:    -1.2557     XZ:     0.5018     YZ:     0.5620

  Traceless Quadrupole Moment: (Debye Ang)
    XX:     1.3774     YY:    -2.5239     ZZ:     1.1465
    XY:    -1.2557     XZ:     0.5018     YZ:     0.5620

  Mulliken Charges: (a.u.)
   Center  Symbol    Alpha    Beta     Spin     Total
       1     H     0.33225  0.33225  0.00000  0.33550
       2     N     3.92119  3.92119  0.00000 -0.84237
       3     C     3.07061  3.07061  0.00000 -0.14122
       4     H     0.33230  0.33230  0.00000  0.33541
       5     C     3.22557  3.22557  0.00000 -0.45114
       6     H     0.42958  0.42958  0.00000  0.14084
       7     H     0.42168  0.42168  0.00000  0.15663
       8     H     0.42203  0.42203  0.00000  0.15594
       9     H     0.42789  0.42789  0.00000  0.14422
      10     H     0.41691  0.41691  0.00000  0.16619

   Total alpha = 13.00000, Total beta = 13.00000, Total charge =  0.00000


*** PSI4 exiting successfully. Buy a developer a beer!
