    -----------------------------------------------------------------------
          Psi4: An Open-Source Ab Initio Electronic Structure Package
                              Psi4 (no tag) Driver

                          Git: Rev {detached?}  

    J. M. Turney, A. C. Simmonett, R. M. Parrish, E. G. Hohenstein,
    F. A. Evangelista, J. T. Fermann, B. J. Mintz, L. A. Burns, J. J. Wilke,
    M. L. Abrams, N. J. Russ, M. L. Leininger, C. L. Janssen, E. T. Seidl,
    W. D. Allen, H. F. Schaefer, R. A. King, E. F. Valeev, C. D. Sherrill,
    and T. D. Crawford, WIREs Comput. Mol. Sci. 2, 556-565 (2012)
    (doi: 10.1002/wcms.93)

                         Additional Contributions by
    A. E. DePrince, M. Saitow, U. Bozkaya, A. Yu. Sokolov
    -----------------------------------------------------------------------


    Psi4 started on: Tue Jul  5 16:48:21 2016

    Process ID:  18763
    PSI4DATADIR: /export131/home/mjharvey/miniconda3/share
    Memory level set to 256.000 MB

  ==> Input File <==

--------------------------------------------------------------------------
set {
	reference rhf
	basis 6-31G*
}


set_num_threads( 1 )
memory 2 gb

molecule MOL {
0 1

H	 -3.571158	 0.540474	 0.139285
O	 -3.106200	 -0.271124	 -0.011510
C	 -1.775819	 -0.076055	 -0.001477
C	 -1.033503	 0.032601	 -1.173723
C	 -1.153296	 0.015421	 1.237137
H	 -1.523775	 -0.039438	 -2.129628
C	 0.329152	 0.232412	 -1.102536
H	 -1.747426	 -0.071552	 2.126922
C	 0.210320	 0.215371	 1.291962
H	 0.914215	 0.318054	 -1.998899
C	 0.967393	 0.326191	 0.129988
H	 0.693226	 0.286330	 2.251560
C	 2.426065	 0.540081	 0.204420
O	 3.024379	 0.799881	 1.202058
H	 2.956229	 0.443402	 -0.748861

	symmetry c1
}
set optking {
	frozen_dihedral = ("
		7 11 13 14
	")
}

ee = energy('scf')
oeprop('DIPOLE', 'QUADRUPOLE', 'MULLIKEN_CHARGES')
f=open( 'psi4out.xyz', 'w' )
f.write( "15  " )
f.write( str(ee) + "\n" )
f.write( MOL.save_string_xyz() )
f.close()
--------------------------------------------------------------------------

  Memory set to   2.000 GiB by Python script.

*** tstart() called on cx1-1-3-3.cx1.hpc.ic.ac.uk
*** at Tue Jul  5 16:48:21 2016


         ---------------------------------------------------------
                                   SCF
            by Justin Turney, Rob Parrish, and Andy Simmonett
                              RHF Reference
                        1 Threads,   2000 MiB Core
         ---------------------------------------------------------

  ==> Geometry <==

    Molecular point group: c1
    Full point group: C1

    Geometry (in Angstrom), charge = 0, multiplicity = 1:

       Center              X                  Y                   Z               Mass       
    ------------   -----------------  -----------------  -----------------  -----------------
           H         -3.538696509767     0.332516064099    -0.071385346140     1.007825032070
           O         -3.073738509767    -0.479081935901    -0.222180346140    15.994914619560
           C         -1.743357509767    -0.284012935901    -0.212147346140    12.000000000000
           C         -1.001041509767    -0.175356935901    -1.384393346140    12.000000000000
           C         -1.120834509767    -0.192536935901     1.026466653860    12.000000000000
           H         -1.491313509767    -0.247395935901    -2.340298346140     1.007825032070
           C          0.361613490233     0.024454064099    -1.313206346140    12.000000000000
           H         -1.714964509767    -0.279509935901     1.916251653860     1.007825032070
           C          0.242781490233     0.007413064099     1.081291653860    12.000000000000
           H          0.946676490233     0.110096064099    -2.209569346140     1.007825032070
           C          0.999854490233     0.118233064099    -0.080682346140    12.000000000000
           H          0.725687490233     0.078372064099     2.040889653860     1.007825032070
           C          2.458526490233     0.332123064099    -0.006250346140    12.000000000000
           O          3.056840490233     0.591923064099     0.991387653860    15.994914619560
           H          2.988690490233     0.235444064099    -0.959531346140     1.007825032070

  Running in c1 symmetry.

  Rotational constants: A =      0.17127  B =      0.03361  C =      0.02820 [cm^-1]
  Rotational constants: A =   5134.43017  B =   1007.73440  C =    845.39042 [MHz]
  Nuclear repulsion =  401.308994894540490

  Charge       = 0
  Multiplicity = 1
  Electrons    = 64
  Nalpha       = 32
  Nbeta        = 32

  ==> Algorithm <==

  SCF Algorithm Type is DF.
  DIIS enabled.
  MOM disabled.
  Fractional occupation disabled.
  Guess Type is CORE.
  Energy threshold   = 1.00e-06
  Density threshold  = 1.00e-06
  Integral threshold = 0.00e+00

  ==> Primary Basis <==

  Basis Set: 6-31G*
    Number of shells: 66
    Number of basis function: 147
    Number of Cartesian functions: 147
    Spherical Harmonics?: false
    Max angular momentum: 2

  ==> Pre-Iterations <==

   -------------------------------------------------------
    Irrep   Nso     Nmo     Nalpha   Nbeta   Ndocc  Nsocc
   -------------------------------------------------------
     A        147     147       0       0       0       0
   -------------------------------------------------------
    Total     147     147      32      32      32       0
   -------------------------------------------------------

 OEINTS: Overlap, kinetic, potential, dipole, and quadrupole integrals
         stored in file 35.

  ==> Integral Setup <==

  ==> DFJK: Density-Fitted J/K Matrices <==

    J tasked:                  Yes
    K tasked:                  Yes
    wK tasked:                  No
    OpenMP threads:              1
    Integrals threads:           1
    Memory (MB):              1430
    Algorithm:                Core
    Integral Cache:           NONE
    Schwarz Cutoff:          1E-12
    Fitting Condition:       1E-12

   => Auxiliary Basis Set <=

  Basis Set: 
    Number of shells: 270
    Number of basis function: 879
    Number of Cartesian functions: 879
    Spherical Harmonics?: false
    Max angular momentum: 3

  Minimum eigenvalue in the overlap matrix is 4.0001859358E-04.
  Using Symmetric Orthogonalization.
  SCF Guess: Core (One-Electron) Hamiltonian.

  ==> Iterations <==

                           Total Energy        Delta E     RMS |[F,P]|

   @DF-RHF iter   1:  -343.06474685320183   -3.43065e+02   6.07119e-02 
   @DF-RHF iter   2:  -201.97982126515018    1.41085e+02   7.63639e-02 DIIS
   @DF-RHF iter   3:  -327.69822493867417   -1.25718e+02   4.87804e-02 DIIS
   @DF-RHF iter   4:  -313.37310782850290    1.43251e+01   5.62672e-02 DIIS
   @DF-RHF iter   5:  -417.22085337024583   -1.03848e+02   1.04112e-02 DIIS
   @DF-RHF iter   6:  -417.73504797781510   -5.14195e-01   7.96525e-03 DIIS
   @DF-RHF iter   7:  -418.26746383949973   -5.32416e-01   9.74574e-04 DIIS
   @DF-RHF iter   8:  -418.27913792762405   -1.16741e-02   3.36655e-04 DIIS
   @DF-RHF iter   9:  -418.28145023613348   -2.31231e-03   1.55732e-04 DIIS
   @DF-RHF iter  10:  -418.28213661945125   -6.86383e-04   7.86991e-05 DIIS
   @DF-RHF iter  11:  -418.28247557394599   -3.38954e-04   3.19220e-05 DIIS
   @DF-RHF iter  12:  -418.28253225686348   -5.66829e-05   1.53781e-05 DIIS
   @DF-RHF iter  13:  -418.28254232253659   -1.00657e-05   4.88457e-06 DIIS
   @DF-RHF iter  14:  -418.28254330462624   -9.82090e-07   2.13314e-06 DIIS
   @DF-RHF iter  15:  -418.28254343116197   -1.26536e-07   7.43750e-07 DIIS

  ==> Post-Iterations <==

    Orbital Energies (a.u.)
    -----------------------

    Doubly Occupied:                                                      

       1A    -20.593927     2A    -20.560219     3A    -11.330810  
       4A    -11.313199     5A    -11.259653     6A    -11.252540  
       7A    -11.243976     8A    -11.243724     9A    -11.239403  
      10A     -1.420302    11A     -1.400539    12A     -1.169644  
      13A     -1.040942    14A     -1.035814    15A     -0.888736  
      16A     -0.856929    17A     -0.798098    18A     -0.754700  
      19A     -0.707861    20A     -0.671010    21A     -0.647417  
      22A     -0.632886    23A     -0.618353    24A     -0.606055  
      25A     -0.561632    26A     -0.551407    27A     -0.537065  
      28A     -0.494330    29A     -0.479752    30A     -0.421848  
      31A     -0.354976    32A     -0.338749  

    Virtual:                                                              

      33A      0.088864    34A      0.129499    35A      0.208870  
      36A      0.232467    37A      0.244011    38A      0.262345  
      39A      0.300391    40A      0.321528    41A      0.332627  
      42A      0.375614    43A      0.415182    44A      0.426711  
      45A      0.449712    46A      0.489457    47A      0.539083  
      48A      0.565359    49A      0.577434    50A      0.706560  
      51A      0.719989    52A      0.723897    53A      0.750355  
      54A      0.758051    55A      0.768229    56A      0.784486  
      57A      0.808531    58A      0.809232    59A      0.824859  
      60A      0.862838    61A      0.872869    62A      0.891817  
      63A      0.899066    64A      0.933577    65A      0.990327  
      66A      1.013943    67A      1.019648    68A      1.053728  
      69A      1.082787    70A      1.086838    71A      1.109265  
      72A      1.113504    73A      1.127045    74A      1.143670  
      75A      1.180392    76A      1.202478    77A      1.212599  
      78A      1.222883    79A      1.271159    80A      1.299940  
      81A      1.309535    82A      1.352760    83A      1.357338  
      84A      1.403295    85A      1.414806    86A      1.452254  
      87A      1.473161    88A      1.484485    89A      1.533453  
      90A      1.627647    91A      1.653110    92A      1.706859  
      93A      1.714999    94A      1.729301    95A      1.763968  
      96A      1.771639    97A      1.817961    98A      1.830740  
      99A      1.884834   100A      2.026204   101A      2.031977  
     102A      2.043651   103A      2.077000   104A      2.086034  
     105A      2.151388   106A      2.176708   107A      2.229360  
     108A      2.234667   109A      2.278230   110A      2.304251  
     111A      2.337624   112A      2.370677   113A      2.401186  
     114A      2.414666   115A      2.452874   116A      2.458022  
     117A      2.589254   118A      2.605971   119A      2.632836  
     120A      2.634590   121A      2.676488   122A      2.717616  
     123A      2.748283   124A      2.848129   125A      2.890226  
     126A      2.933546   127A      2.952395   128A      3.007861  
     129A      3.033687   130A      3.041685   131A      3.107132  
     132A      3.181995   133A      3.249862   134A      3.318752  
     135A      3.357815   136A      3.410197   137A      3.562818  
     138A      3.831492   139A      4.307519   140A      4.332187  
     141A      4.514660   142A      4.533372   143A      4.586264  
     144A      4.679691   145A      4.742570   146A      4.894072  
     147A      5.178228  

    Final Occupation by Irrep:
              A 
    DOCC [    32 ]

  Energy converged.

  @DF-RHF Final Energy:  -418.28254343116197

   => Energetics <=

    Nuclear Repulsion Energy =            401.3089948945404899
    One-Electron Energy =               -1365.1300639535129449
    Two-Electron Energy =                 545.5385256278100314
    DFT Exchange-Correlation Energy =       0.0000000000000000
    Empirical Dispersion Energy =           0.0000000000000000
    PCM Polarization Energy =               0.0000000000000000
    EFP Energy =                            0.0000000000000000
    Total Energy =                       -418.2825434311623667

    Alert: EFP and PCM quantities not currently incorporated into SCF psivars.

Properties will be evaluated at   0.000000,   0.000000,   0.000000 Bohr
  ==> Properties <==


Properties computed using the SCF density matrix

  Nuclear Dipole Moment: (a.u.)
     X:    -1.9537      Y:     0.2157      Z:    -1.5184

  Electronic Dipole Moment: (a.u.)
     X:     0.9371      Y:     0.1298      Z:     0.7934

  Dipole Moment: (a.u.)
     X:    -1.0166      Y:     0.3455      Z:    -0.7250     Total:     1.2956

  Dipole Moment: (Debye)
     X:    -2.5840      Y:     0.8782      Z:    -1.8429     Total:     3.2931


  Saving occupied orbitals to File 180.

*** tstop() called on cx1-1-3-3.cx1.hpc.ic.ac.uk at Tue Jul  5 16:48:36 2016
Module time:
	user time   =      14.30 seconds =       0.24 minutes
	system time =       0.09 seconds =       0.00 minutes
	total time  =         15 seconds =       0.25 minutes
Total time:
	user time   =      14.30 seconds =       0.24 minutes
	system time =       0.09 seconds =       0.00 minutes
	total time  =         15 seconds =       0.25 minutes


Properties will be evaluated at   0.000000,   0.000000,   0.000000 Bohr

Properties computed using the  density matrix

  Nuclear Dipole Moment: (a.u.)
     X:    -1.9537      Y:     0.2157      Z:    -1.5184

  Electronic Dipole Moment: (a.u.)
     X:     0.9371      Y:     0.1298      Z:     0.7934

  Dipole Moment: (a.u.)
     X:    -1.0166      Y:     0.3455      Z:    -0.7250     Total:     1.2956

  Dipole Moment: (Debye)
     X:    -2.5840      Y:     0.8782      Z:    -1.8429     Total:     3.2931

  Quadrupole Moment: (Debye Ang)
    XX:   -56.2868     YY:   -54.4467     ZZ:   -47.4685
    XY:    -7.9917     XZ:    -8.4423     YZ:    -1.6437

  Traceless Quadrupole Moment: (Debye Ang)
    XX:    -3.5528     YY:    -1.7127     ZZ:     5.2655
    XY:    -7.9917     XZ:    -8.4423     YZ:    -1.6437

  Mulliken Charges: (a.u.)
   Center  Symbol    Alpha    Beta     Spin     Total
       1     H     0.26670  0.26670  0.00000  0.46661
       2     O     4.38298  4.38298  0.00000 -0.76597
       3     C     2.80647  2.80647  0.00000  0.38707
       4     C     3.12389  3.12389  0.00000 -0.24778
       5     C     3.12531  3.12531  0.00000 -0.25062
       6     H     0.38936  0.38936  0.00000  0.22129
       7     C     3.09727  3.09727  0.00000 -0.19454
       8     H     0.38961  0.38961  0.00000  0.22079
       9     C     3.08494  3.08494  0.00000 -0.16988
      10     H     0.39002  0.39002  0.00000  0.21997
      11     C     3.05982  3.05982  0.00000 -0.11963
      12     H     0.37693  0.37693  0.00000  0.24615
      13     C     2.83209  2.83209  0.00000  0.33581
      14     O     4.25052  4.25052  0.00000 -0.50104
      15     H     0.42412  0.42412  0.00000  0.15177

   Total alpha = 32.00000, Total beta = 32.00000, Total charge = -0.00000


*** PSI4 exiting successfully. Buy a developer a beer!
