    -----------------------------------------------------------------------
          Psi4: An Open-Source Ab Initio Electronic Structure Package
                              Psi4 (no tag) Driver

                          Git: Rev {detached?}  

    J. M. Turney, A. C. Simmonett, R. M. Parrish, E. G. Hohenstein,
    F. A. Evangelista, J. T. Fermann, B. J. Mintz, L. A. Burns, J. J. Wilke,
    M. L. Abrams, N. J. Russ, M. L. Leininger, C. L. Janssen, E. T. Seidl,
    W. D. Allen, H. F. Schaefer, R. A. King, E. F. Valeev, C. D. Sherrill,
    and T. D. Crawford, WIREs Comput. Mol. Sci. 2, 556-565 (2012)
    (doi: 10.1002/wcms.93)

                         Additional Contributions by
    A. E. DePrince, M. Saitow, U. Bozkaya, A. Yu. Sokolov
    -----------------------------------------------------------------------


    Psi4 started on: Tue Jul  5 16:21:41 2016

    Process ID:  19265
    PSI4DATADIR: /export131/home/mjharvey/miniconda3/share
    Memory level set to 256.000 MB

  ==> Input File <==

--------------------------------------------------------------------------
set {
	reference rhf
	basis 6-31G*
}


set_num_threads( 1 )
memory 2 gb

molecule MOL {
0 1

H	 -0.879805	 -1.229257	 -0.385425
N	 -1.172117	 -0.314371	 -0.100254
C	 -0.024542	 0.565565	 0.069209
H	 -1.777873	 0.033797	 -0.819223
C	 1.271298	 -0.229563	 -0.014192
H	 -0.049409	 1.297310	 -0.731596
H	 -0.046881	 1.125219	 1.006750
H	 1.332152	 -0.753033	 -0.961461
H	 2.134169	 0.422483	 0.080702
H	 1.326077	 -0.968298	 0.781395

	symmetry c1
}
ee = energy('scf')
oeprop('DIPOLE', 'QUADRUPOLE', 'MULLIKEN_CHARGES')
f=open( 'psi4out.xyz', 'w' )
f.write( "10  " )
f.write( str(ee) + "\n" )
f.write( MOL.save_string_xyz() )
f.close()
--------------------------------------------------------------------------

  Memory set to   2.000 GiB by Python script.

*** tstart() called on cx1-3-15-2.cx1.hpc.ic.ac.uk
*** at Tue Jul  5 16:21:42 2016


         ---------------------------------------------------------
                                   SCF
            by Justin Turney, Rob Parrish, and Andy Simmonett
                              RHF Reference
                        1 Threads,   2000 MiB Core
         ---------------------------------------------------------

  ==> Geometry <==

    Molecular point group: c1
    Full point group: C1

    Geometry (in Angstrom), charge = 0, multiplicity = 1:

       Center              X                  Y                   Z               Mass       
    ------------   -----------------  -----------------  -----------------  -----------------
           H         -0.893170300323    -1.219436800889    -0.345907600511     1.007825032070
           N         -1.185482300323    -0.304550800889    -0.060736600511    14.003074004780
           C         -0.037907300323     0.575385199111     0.108726399489    12.000000000000
           H         -1.791238300323     0.043617199111    -0.779705600511     1.007825032070
           C          1.257932699677    -0.219742800889     0.025325399489    12.000000000000
           H         -0.062774300323     1.307130199111    -0.692078600511     1.007825032070
           H         -0.060246300323     1.135039199111     1.046267399489     1.007825032070
           H          1.318786699677    -0.743212800889    -0.921943600511     1.007825032070
           H          2.120803699677     0.432303199111     0.120219399489     1.007825032070
           H          1.312711699677    -0.958477800889     0.820912399489     1.007825032070

  Running in c1 symmetry.

  Rotational constants: A =      1.06229  B =      0.30880  C =      0.26642 [cm^-1]
  Rotational constants: A =  31846.75537  B =   9257.73565  C =   7987.03663 [MHz]
  Nuclear repulsion =   83.615924390257703

  Charge       = 0
  Multiplicity = 1
  Electrons    = 26
  Nalpha       = 13
  Nbeta        = 13

  ==> Algorithm <==

  SCF Algorithm Type is DF.
  DIIS enabled.
  MOM disabled.
  Fractional occupation disabled.
  Guess Type is CORE.
  Energy threshold   = 1.00e-06
  Density threshold  = 1.00e-06
  Integral threshold = 0.00e+00

  ==> Primary Basis <==

  Basis Set: 6-31G*
    Number of shells: 32
    Number of basis function: 59
    Number of Cartesian functions: 59
    Spherical Harmonics?: false
    Max angular momentum: 2

  ==> Pre-Iterations <==

   -------------------------------------------------------
    Irrep   Nso     Nmo     Nalpha   Nbeta   Ndocc  Nsocc
   -------------------------------------------------------
     A         59      59       0       0       0       0
   -------------------------------------------------------
    Total      59      59      13      13      13       0
   -------------------------------------------------------

 OEINTS: Overlap, kinetic, potential, dipole, and quadrupole integrals
         stored in file 35.

  ==> Integral Setup <==

  ==> DFJK: Density-Fitted J/K Matrices <==

    J tasked:                  Yes
    K tasked:                  Yes
    wK tasked:                  No
    OpenMP threads:              1
    Integrals threads:           1
    Memory (MB):              1430
    Algorithm:                Core
    Integral Cache:           NONE
    Schwarz Cutoff:          1E-12
    Fitting Condition:       1E-12

   => Auxiliary Basis Set <=

  Basis Set: 
    Number of shells: 135
    Number of basis function: 418
    Number of Cartesian functions: 418
    Spherical Harmonics?: false
    Max angular momentum: 3

  Minimum eigenvalue in the overlap matrix is 5.5622766150E-03.
  Using Symmetric Orthogonalization.
  SCF Guess: Core (One-Electron) Hamiltonian.

  ==> Iterations <==

                           Total Energy        Delta E     RMS |[F,P]|

   @DF-RHF iter   1:  -108.78832758900489   -1.08788e+02   9.46561e-02 
   @DF-RHF iter   2:  -108.68652167960630    1.01806e-01   6.44008e-02 DIIS
   @DF-RHF iter   3:  -117.45203074721792   -8.76551e+00   6.91755e-02 DIIS
   @DF-RHF iter   4:  -133.63071322943154   -1.61787e+01   1.77070e-02 DIIS
   @DF-RHF iter   5:  -134.13997310575945   -5.09260e-01   7.10724e-03 DIIS
   @DF-RHF iter   6:  -134.22762833563743   -8.76552e-02   2.25594e-03 DIIS
   @DF-RHF iter   7:  -134.24105079882005   -1.34225e-02   4.81086e-04 DIIS
   @DF-RHF iter   8:  -134.24182554756081   -7.74749e-04   1.19483e-04 DIIS
   @DF-RHF iter   9:  -134.24187354084353   -4.79933e-05   4.53816e-05 DIIS
   @DF-RHF iter  10:  -134.24187886821346   -5.32737e-06   9.98820e-06 DIIS
   @DF-RHF iter  11:  -134.24187917194104   -3.03728e-07   2.44487e-06 DIIS
   @DF-RHF iter  12:  -134.24187918915734   -1.72163e-08   3.88557e-07 DIIS

  ==> Post-Iterations <==

    Orbital Energies (a.u.)
    -----------------------

    Doubly Occupied:                                                      

       1A    -15.529885     2A    -11.242711     3A    -11.213457  
       4A     -1.176974     5A     -0.988797     6A     -0.830394  
       7A     -0.661664     8A     -0.618329     9A     -0.594375  
      10A     -0.527152    11A     -0.509035    12A     -0.491671  
      13A     -0.376535  

    Virtual:                                                              

      14A      0.226351    15A      0.271785    16A      0.282918  
      17A      0.313016    18A      0.324352    19A      0.329120  
      20A      0.365184    21A      0.426803    22A      0.447883  
      23A      0.726432    24A      0.748717    25A      0.787988  
      26A      0.824357    27A      0.904013    28A      0.935601  
      29A      1.007470    30A      1.086273    31A      1.112067  
      32A      1.144352    33A      1.171254    34A      1.187620  
      35A      1.207012    36A      1.236313    37A      1.254782  
      38A      1.270492    39A      1.279950    40A      1.529546  
      41A      1.682308    42A      1.732067    43A      1.863856  
      44A      2.096678    45A      2.220506    46A      2.242264  
      47A      2.307224    48A      2.422090    49A      2.495802  
      50A      2.508906    51A      2.645690    52A      2.703834  
      53A      2.769615    54A      2.837248    55A      2.996308  
      56A      3.090239    57A      4.212448    58A      4.621975  
      59A      4.852294  

    Final Occupation by Irrep:
              A 
    DOCC [    13 ]

  Energy converged.

  @DF-RHF Final Energy:  -134.24187918915734

   => Energetics <=

    Nuclear Repulsion Energy =             83.6159243902577032
    One-Electron Energy =                -346.1936359927089484
    Two-Electron Energy =                 128.3358324132939856
    DFT Exchange-Correlation Energy =       0.0000000000000000
    Empirical Dispersion Energy =           0.0000000000000000
    PCM Polarization Energy =               0.0000000000000000
    EFP Energy =                            0.0000000000000000
    Total Energy =                       -134.2418791891572596

    Alert: EFP and PCM quantities not currently incorporated into SCF psivars.

Properties will be evaluated at   0.000000,   0.000000,   0.000000 Bohr
  ==> Properties <==


Properties computed using the SCF density matrix

  Nuclear Dipole Moment: (a.u.)
     X:     1.8267      Y:    -0.0020      Z:    -0.7050

  Electronic Dipole Moment: (a.u.)
     X:    -1.5198      Y:     0.0250      Z:     0.1463

  Dipole Moment: (a.u.)
     X:     0.3069      Y:     0.0231      Z:    -0.5587     Total:     0.6379

  Dipole Moment: (Debye)
     X:     0.7802      Y:     0.0586      Z:    -1.4201     Total:     1.6214


  Saving occupied orbitals to File 180.

*** tstop() called on cx1-3-15-2.cx1.hpc.ic.ac.uk at Tue Jul  5 16:21:43 2016
Module time:
	user time   =       1.61 seconds =       0.03 minutes
	system time =       0.02 seconds =       0.00 minutes
	total time  =          1 seconds =       0.02 minutes
Total time:
	user time   =       1.61 seconds =       0.03 minutes
	system time =       0.02 seconds =       0.00 minutes
	total time  =          1 seconds =       0.02 minutes


Properties will be evaluated at   0.000000,   0.000000,   0.000000 Bohr

Properties computed using the  density matrix

  Nuclear Dipole Moment: (a.u.)
     X:     1.8267      Y:    -0.0020      Z:    -0.7050

  Electronic Dipole Moment: (a.u.)
     X:    -1.5198      Y:     0.0250      Z:     0.1463

  Dipole Moment: (a.u.)
     X:     0.3069      Y:     0.0231      Z:    -0.5587     Total:     0.6379

  Dipole Moment: (Debye)
     X:     0.7802      Y:     0.0586      Z:    -1.4201     Total:     1.6214

  Quadrupole Moment: (Debye Ang)
    XX:   -22.3227     YY:   -19.5829     ZZ:   -20.5769
    XY:    -0.3866     XZ:     2.9574     YZ:     0.6492

  Traceless Quadrupole Moment: (Debye Ang)
    XX:    -1.4952     YY:     1.2446     ZZ:     0.2505
    XY:    -0.3866     XZ:     2.9574     YZ:     0.6492

  Mulliken Charges: (a.u.)
   Center  Symbol    Alpha    Beta     Spin     Total
       1     H     0.33187  0.33187  0.00000  0.33627
       2     N     3.92633  3.92633  0.00000 -0.85265
       3     C     3.04926  3.04926  0.00000 -0.09853
       4     H     0.33254  0.33254  0.00000  0.33492
       5     C     3.25394  3.25394  0.00000 -0.50789
       6     H     0.42971  0.42971  0.00000  0.14058
       7     H     0.42010  0.42010  0.00000  0.15979
       8     H     0.42321  0.42321  0.00000  0.15357
       9     H     0.41774  0.41774  0.00000  0.16452
      10     H     0.41530  0.41530  0.00000  0.16941

   Total alpha = 13.00000, Total beta = 13.00000, Total charge =  0.00000


*** PSI4 exiting successfully. Buy a developer a beer!
