    -----------------------------------------------------------------------
          Psi4: An Open-Source Ab Initio Electronic Structure Package
                              Psi4 (no tag) Driver

                          Git: Rev {detached?}  

    J. M. Turney, A. C. Simmonett, R. M. Parrish, E. G. Hohenstein,
    F. A. Evangelista, J. T. Fermann, B. J. Mintz, L. A. Burns, J. J. Wilke,
    M. L. Abrams, N. J. Russ, M. L. Leininger, C. L. Janssen, E. T. Seidl,
    W. D. Allen, H. F. Schaefer, R. A. King, E. F. Valeev, C. D. Sherrill,
    and T. D. Crawford, WIREs Comput. Mol. Sci. 2, 556-565 (2012)
    (doi: 10.1002/wcms.93)

                         Additional Contributions by
    A. E. DePrince, M. Saitow, U. Bozkaya, A. Yu. Sokolov
    -----------------------------------------------------------------------


    Psi4 started on: Tue Jul  5 16:32:01 2016

    Process ID:  28942
    PSI4DATADIR: /export131/home/mjharvey/miniconda3/share
    Memory level set to 256.000 MB

  ==> Input File <==

--------------------------------------------------------------------------
set {
	reference rhf
	basis 6-31G*
}


set_num_threads( 1 )
memory 2 gb

molecule MOL {
0 1

H	 -0.384546	 -1.358117	 -0.672294
N	 -0.626943	 -0.667432	 -0.000092
C	 -1.979534	 -0.158301	 -0.000372
C	 0.325755	 -0.252874	 0.869779
H	 -2.520036	 -0.492100	 -0.879827
H	 -1.934183	 0.918568	 -0.005256
H	 -2.517873	 -0.484052	 0.883432
C	 1.674978	 -0.919497	 0.690344
O	 0.127974	 0.574320	 1.716447
H	 2.068026	 -0.726742	 -0.302990
H	 2.359261	 -0.526889	 1.427442
H	 1.590945	 -1.994555	 0.814939

	symmetry c1
}
set optking {
	frozen_dihedral = ("
		4 2 3 5
	")
}

ee = energy('scf')
oeprop('DIPOLE', 'QUADRUPOLE', 'MULLIKEN_CHARGES')
f=open( 'psi4out.xyz', 'w' )
f.write( "12  " )
f.write( str(ee) + "\n" )
f.write( MOL.save_string_xyz() )
f.close()
--------------------------------------------------------------------------

  Memory set to   2.000 GiB by Python script.

*** tstart() called on cx1-3-2-3.cx1.hpc.ic.ac.uk
*** at Tue Jul  5 16:32:02 2016


         ---------------------------------------------------------
                                   SCF
            by Justin Turney, Rob Parrish, and Andy Simmonett
                              RHF Reference
                        1 Threads,   2000 MiB Core
         ---------------------------------------------------------

  ==> Geometry <==

    Molecular point group: c1
    Full point group: C1

    Geometry (in Angstrom), charge = 0, multiplicity = 1:

       Center              X                  Y                   Z               Mass       
    ------------   -----------------  -----------------  -----------------  -----------------
           H         -0.277408546470    -1.073003264491    -1.321762857673     1.007825032070
           N         -0.519805546470    -0.382318264491    -0.649560857673    14.003074004780
           C         -1.872396546470     0.126812735509    -0.649840857673    12.000000000000
           C          0.432892453530     0.032239735509     0.220310142327    12.000000000000
           H         -2.412898546470    -0.206986264491    -1.529295857673     1.007825032070
           H         -1.827045546470     1.203681735509    -0.654724857673     1.007825032070
           H         -2.410735546470    -0.198938264491     0.233963142327     1.007825032070
           C          1.782115453530    -0.634383264491     0.040875142327    12.000000000000
           O          0.235111453530     0.859433735509     1.066978142327    15.994914619560
           H          2.175163453530    -0.441628264491    -0.952458857673     1.007825032070
           H          2.466398453530    -0.241775264491     0.777973142327     1.007825032070
           H          1.698082453530    -1.709441264491     0.165470142327     1.007825032070

  Running in c1 symmetry.

  Rotational constants: A =      0.33878  B =      0.12950  C =      0.09705 [cm^-1]
  Rotational constants: A =  10156.33417  B =   3882.45873  C =   2909.51807 [MHz]
  Nuclear repulsion =  181.177347481605011

  Charge       = 0
  Multiplicity = 1
  Electrons    = 40
  Nalpha       = 20
  Nbeta        = 20

  ==> Algorithm <==

  SCF Algorithm Type is DF.
  DIIS enabled.
  MOM disabled.
  Fractional occupation disabled.
  Guess Type is CORE.
  Energy threshold   = 1.00e-06
  Density threshold  = 1.00e-06
  Integral threshold = 0.00e+00

  ==> Primary Basis <==

  Basis Set: 6-31G*
    Number of shells: 44
    Number of basis function: 89
    Number of Cartesian functions: 89
    Spherical Harmonics?: false
    Max angular momentum: 2

  ==> Pre-Iterations <==

   -------------------------------------------------------
    Irrep   Nso     Nmo     Nalpha   Nbeta   Ndocc  Nsocc
   -------------------------------------------------------
     A         89      89       0       0       0       0
   -------------------------------------------------------
    Total      89      89      20      20      20       0
   -------------------------------------------------------

 OEINTS: Overlap, kinetic, potential, dipole, and quadrupole integrals
         stored in file 35.

  ==> Integral Setup <==

  ==> DFJK: Density-Fitted J/K Matrices <==

    J tasked:                  Yes
    K tasked:                  Yes
    wK tasked:                  No
    OpenMP threads:              1
    Integrals threads:           1
    Memory (MB):              1430
    Algorithm:                Core
    Integral Cache:           NONE
    Schwarz Cutoff:          1E-12
    Fitting Condition:       1E-12

   => Auxiliary Basis Set <=

  Basis Set: 
    Number of shells: 183
    Number of basis function: 580
    Number of Cartesian functions: 580
    Spherical Harmonics?: false
    Max angular momentum: 3

  Minimum eigenvalue in the overlap matrix is 3.6267829056E-03.
  Using Symmetric Orthogonalization.
  SCF Guess: Core (One-Electron) Hamiltonian.

  ==> Iterations <==

                           Total Energy        Delta E     RMS |[F,P]|

   @DF-RHF iter   1:  -191.10463914794946   -1.91105e+02   8.58042e-02 
   @DF-RHF iter   2:  -192.94519826936443   -1.84056e+00   5.94211e-02 DIIS
   @DF-RHF iter   3:  -219.62329959596383   -2.66781e+01   6.49198e-02 DIIS
   @DF-RHF iter   4:  -242.66579866727011   -2.30425e+01   2.84824e-02 DIIS
   @DF-RHF iter   5:  -245.93728569777068   -3.27149e+00   1.45066e-02 DIIS
   @DF-RHF iter   6:  -246.87376596633356   -9.36480e-01   4.98756e-03 DIIS
   @DF-RHF iter   7:  -246.99127314785568   -1.17507e-01   1.45778e-03 DIIS
   @DF-RHF iter   8:  -247.00325881002942   -1.19857e-02   4.26596e-04 DIIS
   @DF-RHF iter   9:  -247.00470562427068   -1.44681e-03   1.88015e-04 DIIS
   @DF-RHF iter  10:  -247.00496213971257   -2.56515e-04   6.97736e-05 DIIS
   @DF-RHF iter  11:  -247.00502738181751   -6.52421e-05   3.06461e-05 DIIS
   @DF-RHF iter  12:  -247.00503486268701   -7.48087e-06   9.65499e-06 DIIS
   @DF-RHF iter  13:  -247.00503573832316   -8.75636e-07   3.02839e-06 DIIS
   @DF-RHF iter  14:  -247.00503582674281   -8.84197e-08   7.66832e-07 DIIS

  ==> Post-Iterations <==

    Orbital Energies (a.u.)
    -----------------------

    Doubly Occupied:                                                      

       1A    -20.516844     2A    -15.580881     3A    -11.342087  
       4A    -11.256273     5A    -11.229233     6A     -1.383789  
       7A     -1.228120     8A     -1.015426     9A     -0.932245  
      10A     -0.785992    11A     -0.688731    12A     -0.647139  
      13A     -0.633852    14A     -0.584863    15A     -0.581201  
      16A     -0.553901    17A     -0.548026    18A     -0.504140  
      19A     -0.412501    20A     -0.384835  

    Virtual:                                                              

      21A      0.209926    22A      0.217194    23A      0.265084  
      24A      0.277432    25A      0.307019    26A      0.315632  
      27A      0.330942    28A      0.361350    29A      0.378186  
      30A      0.425206    31A      0.496755    32A      0.586346  
      33A      0.720733    34A      0.743046    35A      0.752943  
      36A      0.769114    37A      0.809923    38A      0.831750  
      39A      0.874718    40A      0.947905    41A      0.985553  
      42A      1.040363    43A      1.056889    44A      1.070436  
      45A      1.125237    46A      1.141080    47A      1.147861  
      48A      1.188662    49A      1.200299    50A      1.216446  
      51A      1.222503    52A      1.245335    53A      1.306327  
      54A      1.355249    55A      1.389903    56A      1.600309  
      57A      1.625231    58A      1.641530    59A      1.661008  
      60A      1.718878    61A      1.791723    62A      1.931007  
      63A      2.044795    64A      2.116520    65A      2.140712  
      66A      2.213053    67A      2.216125    68A      2.266097  
      69A      2.352144    70A      2.359382    71A      2.446537  
      72A      2.476455    73A      2.522807    74A      2.553441  
      75A      2.654533    76A      2.697476    77A      2.798889  
      78A      2.803500    79A      2.910515    80A      3.000382  
      81A      3.045138    82A      3.281767    83A      3.377838  
      84A      3.555581    85A      4.353233    86A      4.470475  
      87A      4.646995    88A      4.694195    89A      4.903953  

    Final Occupation by Irrep:
              A 
    DOCC [    20 ]

  Energy converged.

  @DF-RHF Final Energy:  -247.00503582674281

   => Energetics <=

    Nuclear Repulsion Energy =            181.1773474816050111
    One-Electron Energy =                -694.7444640443515027
    Two-Electron Energy =                 266.5620807360037929
    DFT Exchange-Correlation Energy =       0.0000000000000000
    Empirical Dispersion Energy =           0.0000000000000000
    PCM Polarization Energy =               0.0000000000000000
    EFP Energy =                            0.0000000000000000
    Total Energy =                       -247.0050358267426986

    Alert: EFP and PCM quantities not currently incorporated into SCF psivars.

Properties will be evaluated at   0.000000,   0.000000,   0.000000 Bohr
  ==> Properties <==


Properties computed using the SCF density matrix

  Nuclear Dipole Moment: (a.u.)
     X:    -0.5490      Y:    -2.4960      Z:    -3.0687

  Electronic Dipole Moment: (a.u.)
     X:     0.4928      Y:     1.4533      Z:     1.8514

  Dipole Moment: (a.u.)
     X:    -0.0562      Y:    -1.0427      Z:    -1.2173     Total:     1.6038

  Dipole Moment: (Debye)
     X:    -0.1429      Y:    -2.6503      Z:    -3.0940     Total:     4.0765


  Saving occupied orbitals to File 180.

*** tstop() called on cx1-3-2-3.cx1.hpc.ic.ac.uk at Tue Jul  5 16:32:07 2016
Module time:
	user time   =       4.52 seconds =       0.08 minutes
	system time =       0.03 seconds =       0.00 minutes
	total time  =          5 seconds =       0.08 minutes
Total time:
	user time   =       4.52 seconds =       0.08 minutes
	system time =       0.03 seconds =       0.00 minutes
	total time  =          5 seconds =       0.08 minutes


Properties will be evaluated at   0.000000,   0.000000,   0.000000 Bohr

Properties computed using the  density matrix

  Nuclear Dipole Moment: (a.u.)
     X:    -0.5490      Y:    -2.4960      Z:    -3.0687

  Electronic Dipole Moment: (a.u.)
     X:     0.4928      Y:     1.4533      Z:     1.8514

  Dipole Moment: (a.u.)
     X:    -0.0562      Y:    -1.0427      Z:    -1.2173     Total:     1.6038

  Dipole Moment: (Debye)
     X:    -0.1429      Y:    -2.6503      Z:    -3.0940     Total:     4.0765

  Quadrupole Moment: (Debye Ang)
    XX:   -26.9249     YY:   -31.6422     ZZ:   -32.0717
    XY:    -1.0411     XZ:     0.6573     YZ:    -1.2345

  Traceless Quadrupole Moment: (Debye Ang)
    XX:     3.2881     YY:    -1.4293     ZZ:    -1.8588
    XY:    -1.0411     XZ:     0.6573     YZ:    -1.2345

  Mulliken Charges: (a.u.)
   Center  Symbol    Alpha    Beta     Spin     Total
       1     H     0.30964  0.30964  0.00000  0.38072
       2     N     3.89261  3.89261  0.00000 -0.78521
       3     C     3.13437  3.13437  0.00000 -0.26874
       4     C     2.63156  2.63156  0.00000  0.73689
       5     H     0.41640  0.41640  0.00000  0.16720
       6     H     0.40205  0.40205  0.00000  0.19589
       7     H     0.40913  0.40913  0.00000  0.18175
       8     C     3.29539  3.29539  0.00000 -0.59077
       9     O     4.30068  4.30068  0.00000 -0.60137
      10     H     0.40807  0.40807  0.00000  0.18385
      11     H     0.39197  0.39197  0.00000  0.21605
      12     H     0.40813  0.40813  0.00000  0.18374

   Total alpha = 20.00000, Total beta = 20.00000, Total charge = -0.00000


*** PSI4 exiting successfully. Buy a developer a beer!
