    -----------------------------------------------------------------------
          Psi4: An Open-Source Ab Initio Electronic Structure Package
                              Psi4 1.0.54 Driver

                          Git: Rev {master} 8d4cec3 dirty

    J. M. Turney, A. C. Simmonett, R. M. Parrish, E. G. Hohenstein,
    F. A. Evangelista, J. T. Fermann, B. J. Mintz, L. A. Burns, J. J. Wilke,
    M. L. Abrams, N. J. Russ, M. L. Leininger, C. L. Janssen, E. T. Seidl,
    W. D. Allen, H. F. Schaefer, R. A. King, E. F. Valeev, C. D. Sherrill,
    and T. D. Crawford, WIREs Comput. Mol. Sci. 2, 556-565 (2012)
    (doi: 10.1002/wcms.93)

                         Additional Contributions by
    A. E. DePrince, U. Bozkaya, A. Yu. Sokolov, D. G. A. Smith, R. Di Remigio,
    R. M. Richard, J. F. Gonthier, H. R. McAlexander, M. Saitow, and
    B. P. Pritchard
    -----------------------------------------------------------------------


    Psi4 started on: Tue Dec 12 14:32:06 2017

    Process ID:  28637
    PSI4DATADIR: /opt/acellera/miniconda3/share/psi4
    Memory level set to 256.000 MB

  ==> Input File <==

--------------------------------------------------------------------------
set_num_threads(1)
set_memory(3145728000)

set { reference rks }
set { basis 6-31G* }

molecule MOL {
    1 1
    noreorient
    nocom
    symmetry c1
    C    0.000000   0.000000  -0.177864
    C    0.036678   1.219374   0.524165
    C    0.031764   1.213119   1.915444
    C   -0.000000  -0.000000   2.610107
    C   -0.031764  -1.213119   1.915444
    C   -0.036677  -1.219374   0.524165
    C    0.000000  -0.000000  -1.644734
    H    0.018170   2.164705  -0.010853
    H    0.042402   2.152895   2.457886
    H   -0.000000  -0.000000   3.695756
    H   -0.042402  -2.152895   2.457886
    H   -0.018170  -2.164705  -0.010853
    N   -0.712590  -0.905950  -2.308460
    N    0.712590   0.905950  -2.308461
    H    0.673432   1.006469  -3.315997
    H    1.377190   1.485970  -1.813317
    H   -1.377190  -1.485970  -1.813316
    H   -0.673432  -1.006470  -3.315997
}

energy, wfn = energy('B3LYP-D3', return_wfn=True)

import os
os.chdir(os.environ['HTMD_PSI4_WORKDIR'])

oeprop(wfn, 'DIPOLE', 'QUADRUPOLE', 'MULLIKEN_CHARGES')
oeprop(wfn, 'GRID_ESP')

with open('psi4out.xyz', 'w') as f:
    f.write('18 ' )
    f.write('%.12f\n' % energy)
    f.write(MOL.save_string_xyz())
--------------------------------------------------------------------------

  Memory set to   3.146 GiB by Python script.

*** tstart() called on computer04
*** at Tue Dec 12 14:32:08 2017


         ---------------------------------------------------------
                                   SCF
            by Justin Turney, Rob Parrish, and Andy Simmonett
                              RKS Reference
                        1 Threads,   3145 MiB Core
         ---------------------------------------------------------

  ==> Geometry <==

    Molecular point group: c1
    Full point group: C1

    Geometry (in Angstrom), charge = 1, multiplicity = 1:

       Center              X                  Y                   Z               Mass       
    ------------   -----------------  -----------------  -----------------  -----------------
           C          0.000000000000     0.000000000000    -0.177864000000    12.000000000000
           C          0.036678000000     1.219374000000     0.524165000000    12.000000000000
           C          0.031764000000     1.213119000000     1.915444000000    12.000000000000
           C          0.000000000000     0.000000000000     2.610107000000    12.000000000000
           C         -0.031764000000    -1.213119000000     1.915444000000    12.000000000000
           C         -0.036677000000    -1.219374000000     0.524165000000    12.000000000000
           C          0.000000000000     0.000000000000    -1.644734000000    12.000000000000
           H          0.018170000000     2.164705000000    -0.010853000000     1.007825032070
           H          0.042402000000     2.152895000000     2.457886000000     1.007825032070
           H          0.000000000000     0.000000000000     3.695756000000     1.007825032070
           H         -0.042402000000    -2.152895000000     2.457886000000     1.007825032070
           H         -0.018170000000    -2.164705000000    -0.010853000000     1.007825032070
           N         -0.712590000000    -0.905950000000    -2.308460000000    14.003074004780
           N          0.712590000000     0.905950000000    -2.308461000000    14.003074004780
           H          0.673432000000     1.006469000000    -3.315997000000     1.007825032070
           H          1.377190000000     1.485970000000    -1.813317000000     1.007825032070
           H         -1.377190000000    -1.485970000000    -1.813316000000     1.007825032070
           H         -0.673432000000    -1.006470000000    -3.315997000000     1.007825032070

  Running in c1 symmetry.

  Rotational constants: A =      0.12190  B =      0.03957  C =      0.03129 [cm^-1]
  Rotational constants: A =   3654.48950  B =   1186.40758  C =    938.04806 [MHz]
  Nuclear repulsion =  416.918647108107734

  Charge       = 1
  Multiplicity = 1
  Electrons    = 64
  Nalpha       = 32
  Nbeta        = 32

  ==> Algorithm <==

  SCF Algorithm Type is DF.
  DIIS enabled.
  MOM disabled.
  Fractional occupation disabled.
  Guess Type is SAD.
  Energy threshold   = 1.00e-06
  Density threshold  = 1.00e-06
  Integral threshold = 0.00e+00

  ==> Primary Basis <==

  Basis Set: 6-31G*
    Number of shells: 72
    Number of basis function: 153
    Number of Cartesian functions: 153
    Spherical Harmonics?: false
    Max angular momentum: 2

  ==> DFT Potential <==

   => B3LYP-D3 Composite Functional <= 

    B3LYP Hybrid-GGA Exchange-Correlation Functional (VWN1-RPA)

    P.J. Stephens et. al., J. Phys. Chem., 98, 11623-11627, 1994

    Points   =           5000
    Deriv    =              1
    GGA      =           TRUE
    Meta     =          FALSE

    X_LRC        =          FALSE
    X_Hybrid     =           TRUE
    X_Alpha      =   2.000000E-01
    X_Omega      =   0.000000E+00
    C_LRC        =          FALSE
    C_Hybrid     =          FALSE
    C_Alpha      =   0.000000E+00
    C_Omega      =   0.000000E+00

   => Exchange Functionals <=

    0.8000    B3_X
    0.2000      HF 

   => Correlation Functionals <=

    0.1900 VWN3RPA_C
    0.8100   LYP_C

   => -D3ZERO: Empirical Dispersion <=

    Grimme's -D3 (zero-damping) Dispersion Correction

    Grimme S.; Antony J.; Ehrlich S.; Krieg H. (2010), J. Chem. Phys., 132: 154104

    S6  =   1.000000E+00
    S8  =   1.703000E+00
    SR6 =   1.261000E+00
    A6  =   1.400000E+01

   => Molecular Quadrature <=

    Radial Scheme    =       TREUTLER
    Pruning Scheme   =           FLAT
    Nuclear Scheme   =       TREUTLER

    BS radius alpha  =              1
    Pruning alpha    =              1
    Radial Points    =             75
    Spherical Points =            302
    Total Points     =         396948
    Total Blocks     =            366
    Max Points       =           4985
    Max Functions    =            150

  ==> Pre-Iterations <==

   -------------------------------------------------------
    Irrep   Nso     Nmo     Nalpha   Nbeta   Ndocc  Nsocc
   -------------------------------------------------------
     A        153     153       0       0       0       0
   -------------------------------------------------------
    Total     153     153      32      32      32       0
   -------------------------------------------------------

  ==> Integral Setup <==

  ==> DFJK: Density-Fitted J/K Matrices <==

    J tasked:                  Yes
    K tasked:                  Yes
    wK tasked:                  No
    OpenMP threads:              1
    Integrals threads:           1
    Memory (MB):              2250
    Algorithm:                Core
    Integral Cache:           NONE
    Schwarz Cutoff:          1E-12
    Fitting Condition:       1E-12

   => Auxiliary Basis Set <=

  Basis Set: 
    Number of shells: 297
    Number of basis function: 954
    Number of Cartesian functions: 954
    Spherical Harmonics?: false
    Max angular momentum: 3

  Minimum eigenvalue in the overlap matrix is 4.8702903751E-04.
  Using Symmetric Orthogonalization.
  SCF Guess: Superposition of Atomic Densities via on-the-fly atomic UHF.

  ==> Iterations <==

                           Total Energy        Delta E     RMS |[F,P]|

   @DF-RKS iter   0:  -380.51354805499420   -3.80514e+02   3.50765e-02 
   @DF-RKS iter   1:  -381.11998327957212   -6.06435e-01   5.46377e-03 
   @DF-RKS iter   2:  -381.04964112968526    7.03421e-02   6.05121e-03 DIIS
   @DF-RKS iter   3:  -381.46201600953395   -4.12375e-01   8.98329e-04 DIIS
   @DF-RKS iter   4:  -381.46921237365291   -7.19636e-03   3.49318e-04 DIIS
   @DF-RKS iter   5:  -381.47038865870672   -1.17629e-03   1.04532e-04 DIIS
   @DF-RKS iter   6:  -381.47049218590564   -1.03527e-04   3.82635e-05 DIIS
   @DF-RKS iter   7:  -381.47050833747539   -1.61516e-05   9.24182e-06 DIIS
   @DF-RKS iter   8:  -381.47050933517596   -9.97701e-07   3.05418e-06 DIIS
   @DF-RKS iter   9:  -381.47050945058368   -1.15408e-07   9.47142e-07 DIIS

  ==> Post-Iterations <==

    Orbital Energies (a.u.)
    -----------------------

    Doubly Occupied:                                                      

       1A    -14.568040     2A    -14.568032     3A    -10.497176  
       4A    -10.373185     5A    -10.356119     6A    -10.356109  
       7A    -10.342976     8A    -10.340409     9A    -10.340352  
      10A     -1.183828    11A     -1.091958    12A     -1.014247  
      13A     -0.926593    14A     -0.902175    15A     -0.845402  
      16A     -0.785713    17A     -0.773383    18A     -0.741669  
      19A     -0.732897    20A     -0.688869    21A     -0.669058  
      22A     -0.625499    23A     -0.617235    24A     -0.586923  
      25A     -0.579018    26A     -0.572822    27A     -0.518319  
      28A     -0.505467    29A     -0.498057    30A     -0.472890  
      31A     -0.411672    32A     -0.405683  

    Virtual:                                                              

      33A     -0.216755    34A     -0.157487    35A     -0.128629  
      36A     -0.107771    37A     -0.067241    38A     -0.061336  
      39A     -0.038527    40A     -0.034369    41A      0.007230  
      42A      0.019736    43A      0.021150    44A      0.056038  
      45A      0.062082    46A      0.083863    47A      0.127081  
      48A      0.148161    49A      0.157318    50A      0.157732  
      51A      0.201444    52A      0.243158    53A      0.298529  
      54A      0.349406    55A      0.355191    56A      0.381354  
      57A      0.387649    58A      0.397312    59A      0.422125  
      60A      0.422696    61A      0.442546    62A      0.448122  
      63A      0.453412    64A      0.471414    65A      0.471931  
      66A      0.475336    67A      0.485107    68A      0.512286  
      69A      0.529514    70A      0.530965    71A      0.539116  
      72A      0.590180    73A      0.606058    74A      0.656572  
      75A      0.656708    76A      0.682941    77A      0.687948  
      78A      0.704266    79A      0.716454    80A      0.719276  
      81A      0.740601    82A      0.773077    83A      0.774950  
      84A      0.800282    85A      0.811166    86A      0.830444  
      87A      0.850127    88A      0.942075    89A      0.961255  
      90A      0.995101    91A      1.001213    92A      1.027611  
      93A      1.065298    94A      1.074785    95A      1.141793  
      96A      1.169409    97A      1.219558    98A      1.272743  
      99A      1.282999   100A      1.307278   101A      1.321709  
     102A      1.343545   103A      1.362355   104A      1.374964  
     105A      1.444051   106A      1.454171   107A      1.471375  
     108A      1.611040   109A      1.621082   110A      1.655455  
     111A      1.665977   112A      1.736557   113A      1.754140  
     114A      1.794675   115A      1.825238   116A      1.856374  
     117A      1.903607   118A      1.906220   119A      1.958683  
     120A      1.974514   121A      1.997456   122A      2.017193  
     123A      2.043840   124A      2.064221   125A      2.125464  
     126A      2.129901   127A      2.151805   128A      2.216082  
     129A      2.229765   130A      2.263853   131A      2.350608  
     132A      2.366092   133A      2.443966   134A      2.453624  
     135A      2.489500   136A      2.514899   137A      2.549975  
     138A      2.587998   139A      2.604119   140A      2.630701  
     141A      2.738317   142A      2.883499   143A      2.984446  
     144A      3.259272   145A      3.638228   146A      3.658051  
     147A      3.911747   148A      3.947946   149A      3.963722  
     150A      4.053814   151A      4.174011   152A      4.257678  
     153A      4.546315  

    Final Occupation by Irrep:
              A 
    DOCC [    32 ]

  Energy converged.

  @DF-RKS Final Energy:  -381.47050945058368

   => Energetics <=

    Nuclear Repulsion Energy =            416.9186471081077343
    One-Electron Energy =               -1329.0468545524279307
    Two-Electron Energy =                 575.0755994754188123
    DFT Exchange-Correlation Energy =     -44.4059693616822955
    Empirical Dispersion Energy =          -0.0119321200000000
    PCM Polarization Energy =               0.0000000000000000
    EFP Energy =                            0.0000000000000000
    Total Energy =                       -381.4705094505836769


  Saving occupied orbitals to File 180.

*** tstop() called on computer04 at Tue Dec 12 14:32:47 2017
Module time:
	user time   =      38.62 seconds =       0.64 minutes
	system time =       0.29 seconds =       0.00 minutes
	total time  =         39 seconds =       0.65 minutes
Total time:
	user time   =      38.62 seconds =       0.64 minutes
	system time =       0.29 seconds =       0.00 minutes
	total time  =         39 seconds =       0.65 minutes


Properties will be evaluated at   0.000000,   0.000000,   0.000000 Bohr

Properties computed using the SCF density matrix

  Nuclear Dipole Moment: (a.u.)
     X:     0.0000      Y:    -0.0000      Z:     0.0248

  Electronic Dipole Moment: (a.u.)
     X:    -0.0000      Y:     0.0000      Z:    -2.2806

  Dipole Moment: (a.u.)
     X:    -0.0000      Y:     0.0000      Z:    -2.2558     Total:     2.2558

  Dipole Moment: (Debye)
     X:    -0.0000      Y:     0.0001      Z:    -5.7336     Total:     5.7336



Properties will be evaluated at   0.000000,   0.000000,   0.000000 Bohr

Properties computed using the  density matrix

  Nuclear Dipole Moment: (a.u.)
     X:     0.0000      Y:    -0.0000      Z:     0.0248

  Electronic Dipole Moment: (a.u.)
     X:    -0.0000      Y:     0.0000      Z:    -2.2806

  Dipole Moment: (a.u.)
     X:    -0.0000      Y:     0.0000      Z:    -2.2558     Total:     2.2558

  Dipole Moment: (Debye)
     X:    -0.0000      Y:     0.0001      Z:    -5.7336     Total:     5.7336

  Quadrupole Moment: (Debye Ang)
    XX:   -49.4115     YY:   -37.9826     ZZ:   -13.2492
    XY:     6.4666     XZ:     0.0002     YZ:     0.0001

  Traceless Quadrupole Moment: (Debye Ang)
    XX:   -15.8637     YY:    -4.4348     ZZ:    20.2986
    XY:     6.4666     XZ:     0.0002     YZ:     0.0001

  Mulliken Charges: (a.u.)
   Center  Symbol    Alpha    Beta     Spin     Total
       1     C     2.95719  2.95719  0.00000  0.08562
       2     C     3.08206  3.08206  0.00000 -0.16412
       3     C     3.06249  3.06249  0.00000 -0.12497
       4     C     3.05149  3.05149  0.00000 -0.10297
       5     C     3.06250  3.06250  0.00000 -0.12499
       6     C     3.08206  3.08206  0.00000 -0.16413
       7     C     2.72192  2.72192  0.00000  0.55616
       8     H     0.41420  0.41420  0.00000  0.17159
       9     H     0.40544  0.40544  0.00000  0.18912
      10     H     0.40388  0.40388  0.00000  0.19224
      11     H     0.40544  0.40544  0.00000  0.18912
      12     H     0.41420  0.41420  0.00000  0.17160
      13     N     3.86322  3.86322  0.00000 -0.72644
      14     N     3.86323  3.86323  0.00000 -0.72645
      15     H     0.30570  0.30570  0.00000  0.38861
      16     H     0.29964  0.29964  0.00000  0.40071
      17     H     0.29964  0.29964  0.00000  0.40071
      18     H     0.30570  0.30570  0.00000  0.38861

   Total alpha = 32.00000, Total beta = 32.00000, Total charge =  1.00000



Properties will be evaluated at   0.000000,   0.000000,   0.000000 Bohr

Properties computed using the  density matrix


 Electrostatic potential computed on the grid and written to grid_esp.dat

*** Psi4 exiting successfully. Buy a developer a beer!
