
    -----------------------------------------------------------------------
          Psi4: An Open-Source Ab Initio Electronic Structure Package
                               Psi4 1.1 release

                         Git: Rev {HEAD} add49b9 


    R. M. Parrish, L. A. Burns, D. G. A. Smith, A. C. Simmonett,
    A. E. DePrince III, E. G. Hohenstein, U. Bozkaya, A. Yu. Sokolov,
    R. Di Remigio, R. M. Richard, J. F. Gonthier, A. M. James,
    H. R. McAlexander, A. Kumar, M. Saitow, X. Wang, B. P. Pritchard,
    P. Verma, H. F. Schaefer III, K. Patkowski, R. A. King, E. F. Valeev,
    F. A. Evangelista, J. M. Turney, T. D. Crawford, and C. D. Sherrill,
    J. Chem. Theory Comput. in press (2017).
    (doi: 10.1021/acs.jctc.7b00174)

    -----------------------------------------------------------------------


    Psi4 started on: Tuesday, 30 January 2018 01:49PM

    Process ID:  24553
    PSIDATADIR: /shared/raimis/opt/miniconda/envs/htmd/share/psi4
    Memory:     500.0 MiB
    Threads:    1
    
  ==> Input File <==

--------------------------------------------------------------------------
set_num_threads(1)
set_memory(4203741184)

set { reference rks }
set { basis cc-pVDZ }

molecule MOL {
    0 1
    noreorient
    nocom
    symmetry c1
    O    1.141000   0.017000   0.083000
    C    2.558000   0.086000  -0.005000
    C    3.192000  -0.789000   1.067000
    O    4.610000  -0.719000   0.979000
    H    0.799494   0.872721  -0.229341
    H    2.874000   1.128000   0.115000
    H    2.871000  -0.243000  -1.001000
    H    2.876000  -1.830000   0.947000
    H    2.879000  -0.459000   2.064000
    H    4.961000  -1.293000   1.682000
}

set optking { frozen_dihedral = (" 3 2 1 5 ") }

energy, wfn = energy('B3LYP-D3', return_wfn=True)

import os
os.chdir(os.environ['HTMD_PSI4_WORKDIR'])

oeprop(wfn, 'DIPOLE', 'QUADRUPOLE', 'MULLIKEN_CHARGES')

with open('psi4out.xyz', 'w') as f:
    f.write('10 ' )
    f.write('%.12f\n' % energy)
    f.write(MOL.save_string_xyz())
--------------------------------------------------------------------------
  Threads set to 1 by Python driver.

  Memory set to   3.915 GiB by Python driver.

*** tstart() called on computer06
*** at Tue Jan 30 13:49:32 2018

   => Loading Basis Set <=

    Name: CC-PVDZ
    Role: ORBITAL
    Keyword: BASIS
    atoms 1, 4 entry O          line   190 file /shared/raimis/opt/miniconda/envs/htmd/share/psi4/basis/cc-pvdz.gbs 
    atoms 2-3  entry C          line   130 file /shared/raimis/opt/miniconda/envs/htmd/share/psi4/basis/cc-pvdz.gbs 
    atoms 5-10 entry H          line    20 file /shared/raimis/opt/miniconda/envs/htmd/share/psi4/basis/cc-pvdz.gbs 


         ---------------------------------------------------------
                                   SCF
            by Justin Turney, Rob Parrish, and Andy Simmonett
                              RKS Reference
                        1 Threads,   4009 MiB Core
         ---------------------------------------------------------

  ==> Geometry <==

    Molecular point group: c1
    Full point group: C1

    Geometry (in Angstrom), charge = 0, multiplicity = 1:

       Center              X                  Y                   Z               Mass       
    ------------   -----------------  -----------------  -----------------  -----------------
           O          1.141000000000     0.017000000000     0.083000000000    15.994914619560
           C          2.558000000000     0.086000000000    -0.005000000000    12.000000000000
           C          3.192000000000    -0.789000000000     1.067000000000    12.000000000000
           O          4.610000000000    -0.719000000000     0.979000000000    15.994914619560
           H          0.799494000000     0.872721000000    -0.229341000000     1.007825032070
           H          2.874000000000     1.128000000000     0.115000000000     1.007825032070
           H          2.871000000000    -0.243000000000    -1.001000000000     1.007825032070
           H          2.876000000000    -1.830000000000     0.947000000000     1.007825032070
           H          2.879000000000    -0.459000000000     2.064000000000     1.007825032070
           H          4.961000000000    -1.293000000000     1.682000000000     1.007825032070

  Running in c1 symmetry.

  Rotational constants: A =      0.82286  B =      0.02536  C =      0.02485 [cm^-1]
  Rotational constants: A =  24668.67627  B =    760.33863  C =    745.03354 [MHz]
  Nuclear repulsion =  129.473333462249144

  Charge       = 0
  Multiplicity = 1
  Electrons    = 34
  Nalpha       = 17
  Nbeta        = 17

  ==> Algorithm <==

  SCF Algorithm Type is DF.
  DIIS enabled.
  MOM disabled.
  Fractional occupation disabled.
  Guess Type is SAD.
  Energy threshold   = 1.00e-06
  Density threshold  = 1.00e-06
  Integral threshold = 0.00e+00

  ==> Primary Basis <==

  Basis Set: CC-PVDZ
    Blend: CC-PVDZ
    Number of shells: 42
    Number of basis function: 86
    Number of Cartesian functions: 90
    Spherical Harmonics?: true
    Max angular momentum: 2

  ==> DFT Potential <==

   => B3LYP Composite Functional <= 

    B3LYP Hybrid-GGA Exchange-Correlation Functional (VWN1-RPA)

    P.J. Stephens et. al., J. Phys. Chem., 98, 11623-11627, 1994

    Points   =           5000
    Deriv    =              1
    GGA      =           TRUE
    Meta     =          FALSE

    X_LRC        =          FALSE
    X_Hybrid     =           TRUE
    X_Alpha      =   2.000000E-01
    X_Omega      =   0.000000E+00
    C_LRC        =          FALSE
    C_Hybrid     =          FALSE
    C_Alpha      =   0.000000E+00
    C_Omega      =   0.000000E+00

   => Exchange Functionals <=

    0.8000    B3_X
    0.2000      HF 

   => Correlation Functionals <=

    0.1900 VWN3RPA_C
    0.8100   LYP_C

   => Molecular Quadrature <=

    Radial Scheme    =       TREUTLER
    Pruning Scheme   =           FLAT
    Nuclear Scheme   =       TREUTLER

    BS radius alpha  =              1
    Pruning alpha    =              1
    Radial Points    =             75
    Spherical Points =            302
    Total Points     =         222568
    Total Blocks     =            212
    Max Points       =           4880
    Max Functions    =             86

   => -D3ZERO: Empirical Dispersion <=

    Grimme's -D3 (zero-damping) Dispersion Correction
    Grimme S.; Antony J.; Ehrlich S.; Krieg H. (2010), J. Chem. Phys., 132: 154104

        S6 =   1.000000E+00
        S8 =   1.703000E+00
       SR6 =   1.261000E+00
    ALPHA6 =   1.400000E+01

   => Loading Basis Set <=

    Name: (CC-PVDZ AUX)
    Role: JKFIT
    Keyword: DF_BASIS_SCF
    atoms 1, 4 entry O          line   220 file /shared/raimis/opt/miniconda/envs/htmd/share/psi4/basis/cc-pvdz-jkfit.gbs 
    atoms 2-3  entry C          line   120 file /shared/raimis/opt/miniconda/envs/htmd/share/psi4/basis/cc-pvdz-jkfit.gbs 
    atoms 5-10 entry H          line    50 file /shared/raimis/opt/miniconda/envs/htmd/share/psi4/basis/cc-pvdz-jkfit.gbs 

  ==> Pre-Iterations <==

   -------------------------------------------------------
    Irrep   Nso     Nmo     Nalpha   Nbeta   Ndocc  Nsocc
   -------------------------------------------------------
     A         86      86       0       0       0       0
   -------------------------------------------------------
    Total      86      86      17      17      17       0
   -------------------------------------------------------

  ==> Integral Setup <==

  ==> DFJK: Density-Fitted J/K Matrices <==

    J tasked:                  Yes
    K tasked:                  Yes
    wK tasked:                  No
    OpenMP threads:              1
    Integrals threads:           1
    Memory (MB):              3006
    Algorithm:                Core
    Integral Cache:           NONE
    Schwarz Cutoff:          1E-12
    Fitting Condition:       1E-12

   => Auxiliary Basis Set <=

  Basis Set: (CC-PVDZ AUX)
    Blend: CC-PVDZ-JKFIT
    Number of shells: 150
    Number of basis function: 418
    Number of Cartesian functions: 474
    Spherical Harmonics?: true
    Max angular momentum: 3

  Minimum eigenvalue in the overlap matrix is 5.0986397018E-03.
  Using Symmetric Orthogonalization.

  SCF Guess: Superposition of Atomic Densities via on-the-fly atomic UHF.

  ==> Iterations <==

                           Total Energy        Delta E     RMS |[F,P]|

   @DF-RKS iter   0:  -231.00400745276625   -2.31004e+02   4.11613e-02 
   @DF-RKS iter   1:  -230.16933673908443    8.34671e-01   5.49360e-03 
   @DF-RKS iter   2:  -230.11277776137987    5.65590e-02   7.33806e-03 DIIS
   @DF-RKS iter   3:  -230.25559456465894   -1.42817e-01   6.51292e-04 DIIS
   @DF-RKS iter   4:  -230.25675186410840   -1.15730e-03   2.18231e-04 DIIS
   @DF-RKS iter   5:  -230.25691848845469   -1.66624e-04   4.81104e-05 DIIS
   @DF-RKS iter   6:  -230.25692668729869   -8.19884e-06   4.51164e-06 DIIS
   @DF-RKS iter   7:  -230.25692674624204   -5.89434e-08   1.97649e-06 DIIS
   @DF-RKS iter   8:  -230.25692675519696   -8.95491e-09   8.29985e-07 DIIS

  ==> Post-Iterations <==

    Orbital Energies (a.u.)
    -----------------------

    Doubly Occupied:                                                      

       1A    -19.132043     2A    -19.131195     3A    -10.226359  
       4A    -10.225308     5A     -1.018927     6A     -1.008546  
       7A     -0.731844     8A     -0.604298     9A     -0.526074  
      10A     -0.485481    11A     -0.466897    12A     -0.414544  
      13A     -0.395295    14A     -0.347060    15A     -0.320145  
      16A     -0.265152    17A     -0.263451  

    Virtual:                                                              

      18A      0.042047    19A      0.056604    20A      0.109522  
      21A      0.118812    22A      0.124062    23A      0.167169  
      24A      0.188937    25A      0.244532    26A      0.245873  
      27A      0.437983    28A      0.445474    29A      0.498425  
      30A      0.537391    31A      0.553562    32A      0.591135  
      33A      0.612228    34A      0.625696    35A      0.630808  
      36A      0.649109    37A      0.655399    38A      0.682609  
      39A      0.887086    40A      0.895350    41A      0.914180  
      42A      0.966412    43A      1.011429    44A      1.056260  
      45A      1.062123    46A      1.176238    47A      1.179861  
      48A      1.214330    49A      1.247463    50A      1.317383  
      51A      1.345112    52A      1.369329    53A      1.474081  
      54A      1.552411    55A      1.599816    56A      1.623878  
      57A      1.626820    58A      1.651378    59A      1.654846  
      60A      1.699782    61A      1.749369    62A      1.764309  
      63A      1.793835    64A      1.879389    65A      1.905512  
      66A      1.986651    67A      2.031574    68A      2.066461  
      69A      2.115189    70A      2.144923    71A      2.258702  
      72A      2.292074    73A      2.404375    74A      2.442853  
      75A      2.471596    76A      2.526467    77A      2.918190  
      78A      2.961305    79A      2.980876    80A      3.022377  
      81A      3.068000    82A      3.144849    83A      3.183365  
      84A      3.213715    85A      3.672220    86A      3.703411  

    Final Occupation by Irrep:
              A 
    DOCC [    17 ]

  Energy converged.

  @DF-RKS Final Energy:  -230.25692675519696

   => Energetics <=

    Nuclear Repulsion Energy =            129.4733334622491441
    One-Electron Energy =                -570.7024057407941200
    Two-Electron Energy =                 235.5155593606131106
    DFT Exchange-Correlation Energy =     -24.5390003372650547
    Empirical Dispersion Energy =          -0.0044135000000000
    PCM Polarization Energy =               0.0000000000000000
    EFP Energy =                            0.0000000000000000
    Total Energy =                       -230.2569267551969574



Properties will be evaluated at   0.000000,   0.000000,   0.000000 Bohr

Properties computed using the SCF density matrix

  Nuclear Dipole Moment: (a.u.)
     X:   184.7557      Y:   -22.0310      Z:    34.8572

  Electronic Dipole Moment: (a.u.)
     X:  -184.7571      Y:    22.2131      Z:   -34.6279

  Dipole Moment: (a.u.)
     X:    -0.0014      Y:     0.1821      Z:     0.2293     Total:     0.2929

  Dipole Moment: (Debye)
     X:    -0.0036      Y:     0.4629      Z:     0.5829     Total:     0.7444


*** tstop() called on computer06 at Tue Jan 30 13:49:47 2018
Module time:
	user time   =      14.90 seconds =       0.25 minutes
	system time =       0.14 seconds =       0.00 minutes
	total time  =         15 seconds =       0.25 minutes
Total time:
	user time   =      14.90 seconds =       0.25 minutes
	system time =       0.14 seconds =       0.00 minutes
	total time  =         15 seconds =       0.25 minutes


Properties will be evaluated at   0.000000,   0.000000,   0.000000 Bohr

Properties computed using the  density matrix

  Nuclear Dipole Moment: (a.u.)
     X:   184.7557      Y:   -22.0310      Z:    34.8572

  Electronic Dipole Moment: (a.u.)
     X:  -184.7571      Y:    22.2131      Z:   -34.6279

  Dipole Moment: (a.u.)
     X:    -0.0014      Y:     0.1821      Z:     0.2293     Total:     0.2929

  Dipole Moment: (Debye)
     X:    -0.0036      Y:     0.4629      Z:     0.5829     Total:     0.7444

  Quadrupole Moment: (Debye Ang)
    XX:   -26.5957     YY:   -21.3366     ZZ:   -21.7812
    XY:    -3.5020     XZ:     4.9067     YZ:    -3.0292

  Traceless Quadrupole Moment: (Debye Ang)
    XX:    -3.3579     YY:     1.9013     ZZ:     1.4566
    XY:    -3.5020     XZ:     4.9067     YZ:    -3.0292

  Mulliken Charges: (a.u.)
   Center  Symbol    Alpha    Beta     Spin     Total
       1     O     4.14026  4.14026  0.00000 -0.28053
       2     C     2.93686  2.93686  0.00000  0.12629
       3     C     2.93599  2.93599  0.00000  0.12801
       4     O     4.14088  4.14088  0.00000 -0.28177
       5     H     0.42699  0.42699  0.00000  0.14601
       6     H     0.49804  0.49804  0.00000  0.00392
       7     H     0.49599  0.49599  0.00000  0.00803
       8     H     0.49731  0.49731  0.00000  0.00539
       9     H     0.50020  0.50020  0.00000 -0.00041
      10     H     0.42748  0.42748  0.00000  0.14505

   Total alpha = 17.00000, Total beta = 17.00000, Total charge = -0.00000


*** Psi4 exiting successfully. Buy a developer a beer!
