    -----------------------------------------------------------------------
          Psi4: An Open-Source Ab Initio Electronic Structure Package
                              Psi4 (no tag) Driver

                          Git: Rev {detached?}  

    J. M. Turney, A. C. Simmonett, R. M. Parrish, E. G. Hohenstein,
    F. A. Evangelista, J. T. Fermann, B. J. Mintz, L. A. Burns, J. J. Wilke,
    M. L. Abrams, N. J. Russ, M. L. Leininger, C. L. Janssen, E. T. Seidl,
    W. D. Allen, H. F. Schaefer, R. A. King, E. F. Valeev, C. D. Sherrill,
    and T. D. Crawford, WIREs Comput. Mol. Sci. 2, 556-565 (2012)
    (doi: 10.1002/wcms.93)

                         Additional Contributions by
    A. E. DePrince, M. Saitow, U. Bozkaya, A. Yu. Sokolov
    -----------------------------------------------------------------------


    Psi4 started on: Tue Jul  5 17:03:08 2016

    Process ID:  16830
    PSI4DATADIR: /export131/home/mjharvey/miniconda3/share
    Memory level set to 256.000 MB

  ==> Input File <==

--------------------------------------------------------------------------
set {
	reference rhf
	basis 6-31G*
}


set_num_threads( 1 )
memory 2 gb

molecule MOL {
0 1

H	 -0.000158	 1.970498	 0.756846
O	 -0.000074	 1.880206	 -0.189275
C	 -0.000015	 0.544847	 -0.545111
C	 -1.146713	 -0.178430	 0.153418
C	 1.372058	 -0.064025	 -0.275501
H	 -0.178470	 0.486751	 -1.608540
F	 -1.052816	 -1.472348	 -0.066818
F	 -1.139097	 0.014871	 1.455315
F	 -2.315133	 0.227581	 -0.317268
F	 2.283717	 0.570380	 -0.981153
F	 1.423530	 -1.339565	 -0.596012
F	 1.696156	 0.053849	 1.002248

	symmetry c1
}
set optking {
	frozen_dihedral = ("
		6 3 2 1
	")
}

ee = energy('scf')
oeprop('DIPOLE', 'QUADRUPOLE', 'MULLIKEN_CHARGES')
f=open( 'psi4out.xyz', 'w' )
f.write( "12  " )
f.write( str(ee) + "\n" )
f.write( MOL.save_string_xyz() )
f.close()
--------------------------------------------------------------------------

  Memory set to   2.000 GiB by Python script.

*** tstart() called on cx1-3-4-4.cx1.hpc.ic.ac.uk
*** at Tue Jul  5 17:03:08 2016


         ---------------------------------------------------------
                                   SCF
            by Justin Turney, Rob Parrish, and Andy Simmonett
                              RHF Reference
                        1 Threads,   2000 MiB Core
         ---------------------------------------------------------

  ==> Geometry <==

    Molecular point group: c1
    Full point group: C1

    Geometry (in Angstrom), charge = 0, multiplicity = 1:

       Center              X                  Y                   Z               Mass       
    ------------   -----------------  -----------------  -----------------  -----------------
           H         -0.116538879781     1.975125272961     0.771506559942     1.007825032070
           O         -0.116454879781     1.884833272961    -0.174614440058    15.994914619560
           C         -0.116395879781     0.549474272961    -0.530450440058    12.000000000000
           C         -1.263093879781    -0.173802727039     0.168078559942    12.000000000000
           C          1.255677120219    -0.059397727039    -0.260840440058    12.000000000000
           H         -0.294850879781     0.491378272961    -1.593879440058     1.007825032070
           F         -1.169196879781    -1.467720727039    -0.052157440058    18.998403224000
           F         -1.255477879781     0.019498272961     1.469975559942    18.998403224000
           F         -2.431513879781     0.232208272961    -0.302607440058    18.998403224000
           F          2.167336120219     0.575007272961    -0.966492440058    18.998403224000
           F          1.307149120219    -1.334937727039    -0.581351440058    18.998403224000
           F          1.579775120219     0.058476272961     1.016908559942    18.998403224000

  Running in c1 symmetry.

  Rotational constants: A =      0.07225  B =      0.03577  C =      0.03173 [cm^-1]
  Rotational constants: A =   2165.95982  B =   1072.42692  C =    951.24458 [MHz]
  Nuclear repulsion =  670.822717444435170

  Charge       = 0
  Multiplicity = 1
  Electrons    = 82
  Nalpha       = 41
  Nbeta        = 41

  ==> Algorithm <==

  SCF Algorithm Type is DF.
  DIIS enabled.
  MOM disabled.
  Fractional occupation disabled.
  Guess Type is CORE.
  Energy threshold   = 1.00e-06
  Density threshold  = 1.00e-06
  Integral threshold = 0.00e+00

  ==> Primary Basis <==

  Basis Set: 6-31G*
    Number of shells: 64
    Number of basis function: 154
    Number of Cartesian functions: 154
    Spherical Harmonics?: false
    Max angular momentum: 2

  ==> Pre-Iterations <==

   -------------------------------------------------------
    Irrep   Nso     Nmo     Nalpha   Nbeta   Ndocc  Nsocc
   -------------------------------------------------------
     A        154     154       0       0       0       0
   -------------------------------------------------------
    Total     154     154      41      41      41       0
   -------------------------------------------------------

 OEINTS: Overlap, kinetic, potential, dipole, and quadrupole integrals
         stored in file 35.

  ==> Integral Setup <==

  ==> DFJK: Density-Fitted J/K Matrices <==

    J tasked:                  Yes
    K tasked:                  Yes
    wK tasked:                  No
    OpenMP threads:              1
    Integrals threads:           1
    Memory (MB):              1430
    Algorithm:                Core
    Integral Cache:           NONE
    Schwarz Cutoff:          1E-12
    Fitting Condition:       1E-12

   => Auxiliary Basis Set <=

  Basis Set: 
    Number of shells: 258
    Number of basis function: 860
    Number of Cartesian functions: 860
    Spherical Harmonics?: false
    Max angular momentum: 3

  Minimum eigenvalue in the overlap matrix is 1.6663289796E-03.
  Using Symmetric Orthogonalization.
  SCF Guess: Core (One-Electron) Hamiltonian.

  ==> Iterations <==

                           Total Energy        Delta E     RMS |[F,P]|

   @DF-RHF iter   1:  -698.66480351848202   -6.98665e+02   6.87212e-02 
   @DF-RHF iter   2:  -536.95652073048029    1.61708e+02   8.66126e-02 DIIS
   @DF-RHF iter   3:  -729.62644084300643   -1.92670e+02   5.26645e-02 DIIS
   @DF-RHF iter   4:  -737.40328006782750   -7.77684e+00   4.63772e-02 DIIS
   @DF-RHF iter   5:  -766.46692813250900   -2.90636e+01   3.35876e-02 DIIS
   @DF-RHF iter   6:  -785.13097013187223   -1.86640e+01   1.13698e-02 DIIS
   @DF-RHF iter   7:  -786.17287156865689   -1.04190e+00   3.15978e-03 DIIS
   @DF-RHF iter   8:  -786.25768234042346   -8.48108e-02   1.37694e-03 DIIS
   @DF-RHF iter   9:  -786.27435032645701   -1.66680e-02   4.18302e-04 DIIS
   @DF-RHF iter  10:  -786.27640030000919   -2.04997e-03   1.62543e-04 DIIS
   @DF-RHF iter  11:  -786.27671046353578   -3.10164e-04   5.52416e-05 DIIS
   @DF-RHF iter  12:  -786.27674848533286   -3.80218e-05   1.34190e-05 DIIS
   @DF-RHF iter  13:  -786.27675191322112   -3.42789e-06   3.31841e-06 DIIS
   @DF-RHF iter  14:  -786.27675216469640   -2.51475e-07   1.00520e-06 DIIS
   @DF-RHF iter  15:  -786.27675218550633   -2.08099e-08   3.07528e-07 DIIS

  ==> Post-Iterations <==

    Orbital Energies (a.u.)
    -----------------------

    Doubly Occupied:                                                      

       1A    -26.369949     2A    -26.360387     3A    -26.360229  
       4A    -26.359651     5A    -26.358881     6A    -26.356428  
       7A    -20.616429     8A    -11.528065     9A    -11.523889  
      10A    -11.349154    11A     -1.766037    12A     -1.757921  
      13A     -1.665129    14A     -1.658110    15A     -1.655558  
      16A     -1.653401    17A     -1.435281    18A     -1.101809  
      19A     -0.997054    20A     -0.938904    21A     -0.864117  
      22A     -0.863084    23A     -0.852329    24A     -0.843943  
      25A     -0.832008    26A     -0.816101    27A     -0.744550  
      28A     -0.727628    29A     -0.723282    30A     -0.717566  
      31A     -0.689990    32A     -0.686582    33A     -0.683303  
      34A     -0.674624    35A     -0.668409    36A     -0.663410  
      37A     -0.654909    38A     -0.653460    39A     -0.622242  
      40A     -0.550950    41A     -0.505188  

    Virtual:                                                              

      42A      0.216982    43A      0.241542    44A      0.296032  
      45A      0.345798    46A      0.357349    47A      0.400685  
      48A      0.451525    49A      0.462952    50A      0.471025  
      51A      0.525178    52A      0.538406    53A      0.664882  
      54A      0.672585    55A      0.715205    56A      0.734410  
      57A      0.745798    58A      0.787213    59A      0.793877  
      60A      0.840496    61A      0.907439    62A      0.949473  
      63A      1.056151    64A      1.107944    65A      1.122443  
      66A      1.163683    67A      1.240664    68A      1.249286  
      69A      1.279373    70A      1.321692    71A      1.346688  
      72A      1.366730    73A      1.369366    74A      1.383735  
      75A      1.453210    76A      1.458102    77A      1.513450  
      78A      1.571441    79A      1.584058    80A      1.588369  
      81A      1.608590    82A      1.615368    83A      1.623468  
      84A      1.637411    85A      1.650263    86A      1.657467  
      87A      1.662600    88A      1.666342    89A      1.690469  
      90A      1.735043    91A      1.756978    92A      1.769247  
      93A      1.874826    94A      1.889930    95A      1.907232  
      96A      1.930517    97A      1.968269    98A      1.976073  
      99A      1.989219   100A      2.095091   101A      2.100778  
     102A      2.114849   103A      2.124757   104A      2.143606  
     105A      2.144178   106A      2.150242   107A      2.173897  
     108A      2.194517   109A      2.288166   110A      2.302417  
     111A      2.317570   112A      2.327301   113A      2.354054  
     114A      2.355710   115A      2.389781   116A      2.399560  
     117A      2.405070   118A      2.425233   119A      2.453803  
     120A      2.468338   121A      2.529151   122A      2.544914  
     123A      2.600686   124A      2.605102   125A      2.658218  
     126A      2.685110   127A      2.710830   128A      2.794357  
     129A      2.881690   130A      2.904443   131A      2.958246  
     132A      3.057123   133A      3.143441   134A      3.172617  
     135A      3.195733   136A      3.230232   137A      3.266703  
     138A      3.335348   139A      3.396928   140A      3.414160  
     141A      3.438906   142A      3.450471   143A      3.457332  
     144A      3.479711   145A      4.183952   146A      4.615979  
     147A      4.753427   148A      4.856929   149A      5.068652  
     150A      5.091919   151A      5.238226   152A      5.634247  
     153A      5.843710   154A      6.296330  

    Final Occupation by Irrep:
              A 
    DOCC [    41 ]

  Energy converged.

  @DF-RHF Final Energy:  -786.27675218550633

   => Energetics <=

    Nuclear Repulsion Energy =            670.8227174444351704
    One-Electron Energy =               -2428.4988867629072047
    Two-Electron Energy =                 971.3994171329646861
    DFT Exchange-Correlation Energy =       0.0000000000000000
    Empirical Dispersion Energy =           0.0000000000000000
    PCM Polarization Energy =               0.0000000000000000
    EFP Energy =                            0.0000000000000000
    Total Energy =                       -786.2767521855074619

    Alert: EFP and PCM quantities not currently incorporated into SCF psivars.

Properties will be evaluated at   0.000000,   0.000000,   0.000000 Bohr
  ==> Properties <==


Properties computed using the SCF density matrix

  Nuclear Dipole Moment: (a.u.)
     X:    -0.5731      Y:     4.1302      Z:    -1.3230

  Electronic Dipole Moment: (a.u.)
     X:     0.4480      Y:    -3.9506      Z:     1.3514

  Dipole Moment: (a.u.)
     X:    -0.1251      Y:     0.1796      Z:     0.0284     Total:     0.2207

  Dipole Moment: (Debye)
     X:    -0.3180      Y:     0.4565      Z:     0.0722     Total:     0.5610


  Saving occupied orbitals to File 180.

*** tstop() called on cx1-3-4-4.cx1.hpc.ic.ac.uk at Tue Jul  5 17:03:24 2016
Module time:
	user time   =      15.02 seconds =       0.25 minutes
	system time =       0.19 seconds =       0.00 minutes
	total time  =         16 seconds =       0.27 minutes
Total time:
	user time   =      15.02 seconds =       0.25 minutes
	system time =       0.19 seconds =       0.00 minutes
	total time  =         16 seconds =       0.27 minutes


Properties will be evaluated at   0.000000,   0.000000,   0.000000 Bohr

Properties computed using the  density matrix

  Nuclear Dipole Moment: (a.u.)
     X:    -0.5731      Y:     4.1302      Z:    -1.3230

  Electronic Dipole Moment: (a.u.)
     X:     0.4480      Y:    -3.9506      Z:     1.3514

  Dipole Moment: (a.u.)
     X:    -0.1251      Y:     0.1796      Z:     0.0284     Total:     0.2207

  Dipole Moment: (Debye)
     X:    -0.3180      Y:     0.4565      Z:     0.0722     Total:     0.5610

  Quadrupole Moment: (Debye Ang)
    XX:   -56.6150     YY:   -55.1045     ZZ:   -50.0078
    XY:    -0.1894     XZ:     0.5675     YZ:     2.9384

  Traceless Quadrupole Moment: (Debye Ang)
    XX:    -2.7059     YY:    -1.1954     ZZ:     3.9013
    XY:    -0.1894     XZ:     0.5675     YZ:     2.9384

  Mulliken Charges: (a.u.)
   Center  Symbol    Alpha    Beta     Spin     Total
       1     H     0.26549  0.26549  0.00000  0.46903
       2     O     4.36421  4.36421  0.00000 -0.72843
       3     C     3.04737  3.04737  0.00000 -0.09474
       4     C     2.44709  2.44709  0.00000  1.10583
       5     C     2.44279  2.44279  0.00000  1.11441
       6     H     0.37451  0.37451  0.00000  0.25098
       7     F     4.67464  4.67464  0.00000 -0.34929
       8     F     4.67658  4.67658  0.00000 -0.35317
       9     F     4.67740  4.67740  0.00000 -0.35479
      10     F     4.67518  4.67518  0.00000 -0.35037
      11     F     4.67358  4.67358  0.00000 -0.34717
      12     F     4.68115  4.68115  0.00000 -0.36230

   Total alpha = 41.00000, Total beta = 41.00000, Total charge =  0.00000


*** PSI4 exiting successfully. Buy a developer a beer!
