    -----------------------------------------------------------------------
          Psi4: An Open-Source Ab Initio Electronic Structure Package
                              Psi4 (no tag) Driver

                          Git: Rev {detached?}  

    J. M. Turney, A. C. Simmonett, R. M. Parrish, E. G. Hohenstein,
    F. A. Evangelista, J. T. Fermann, B. J. Mintz, L. A. Burns, J. J. Wilke,
    M. L. Abrams, N. J. Russ, M. L. Leininger, C. L. Janssen, E. T. Seidl,
    W. D. Allen, H. F. Schaefer, R. A. King, E. F. Valeev, C. D. Sherrill,
    and T. D. Crawford, WIREs Comput. Mol. Sci. 2, 556-565 (2012)
    (doi: 10.1002/wcms.93)

                         Additional Contributions by
    A. E. DePrince, M. Saitow, U. Bozkaya, A. Yu. Sokolov
    -----------------------------------------------------------------------


    Psi4 started on: Tue Jul  5 16:38:09 2016

    Process ID:  24180
    PSI4DATADIR: /export131/home/mjharvey/miniconda3/share
    Memory level set to 256.000 MB

  ==> Input File <==

--------------------------------------------------------------------------
set {
	reference rhf
	basis 6-31G*
}


set_num_threads( 1 )
memory 2 gb

molecule MOL {
0 1

H	 -2.258317	 -0.920211	 0.781428
O	 -2.347518	 -0.290803	 0.079804
C	 -1.184022	 0.487508	 -0.006784
C	 0.062599	 -0.378592	 0.031606
H	 -1.176523	 1.099369	 -0.904519
H	 -1.187323	 1.153111	 0.844927
O	 -0.043959	 -1.331029	 -0.978982
H	 0.152937	 -0.862108	 1.006301
H	 0.944499	 0.244194	 -0.106143
C	 0.607974	 -2.532088	 -0.711431
H	 0.205362	 -3.013883	 0.177618
H	 0.456232	 -3.182616	 -1.561543
H	 1.675934	 -2.381025	 -0.568488

	symmetry c1
}
set optking {
	frozen_dihedral = ("
		8 4 3 5,
		1 2 3 5,
		4 7 10 13
	")
}

ee = energy('scf')
oeprop('DIPOLE', 'QUADRUPOLE', 'MULLIKEN_CHARGES')
f=open( 'psi4out.xyz', 'w' )
f.write( "13  " )
f.write( str(ee) + "\n" )
f.write( MOL.save_string_xyz() )
f.close()
--------------------------------------------------------------------------

  Memory set to   2.000 GiB by Python script.

*** tstart() called on cx1-49-4-2.cx1.hpc.ic.ac.uk
*** at Tue Jul  5 16:38:09 2016


         ---------------------------------------------------------
                                   SCF
            by Justin Turney, Rob Parrish, and Andy Simmonett
                              RHF Reference
                        1 Threads,   2000 MiB Core
         ---------------------------------------------------------

  ==> Geometry <==

    Molecular point group: c1
    Full point group: C1

    Geometry (in Angstrom), charge = 0, multiplicity = 1:

       Center              X                  Y                   Z               Mass       
    ------------   -----------------  -----------------  -----------------  -----------------
           H         -1.658607725723    -0.092573706435     1.083253832906     1.007825032070
           O         -1.747808725723     0.536834293565     0.381629832906    15.994914619560
           C         -0.584312725723     1.315145293565     0.295041832906    12.000000000000
           C          0.662308274277     0.449045293565     0.333431832906    12.000000000000
           H         -0.576813725723     1.927006293565    -0.602693167094     1.007825032070
           H         -0.587613725723     1.980748293565     1.146752832906     1.007825032070
           O          0.555750274277    -0.503391706435    -0.677156167094    15.994914619560
           H          0.752646274277    -0.034470706435     1.308126832906     1.007825032070
           H          1.544208274277     1.071831293565     0.195682832906     1.007825032070
           C          1.207683274277    -1.704450706435    -0.409605167094    12.000000000000
           H          0.805071274277    -2.186245706435     0.479443832906     1.007825032070
           H          1.055941274277    -2.354978706435    -1.259717167094     1.007825032070
           H          2.275643274277    -1.553387706435    -0.266662167094     1.007825032070

  Running in c1 symmetry.

  Rotational constants: A =      0.38287  B =      0.09930  C =      0.08763 [cm^-1]
  Rotational constants: A =  11478.29846  B =   2976.82259  C =   2627.02798 [MHz]
  Nuclear repulsion =  195.223506841314162

  Charge       = 0
  Multiplicity = 1
  Electrons    = 42
  Nalpha       = 21
  Nbeta        = 21

  ==> Algorithm <==

  SCF Algorithm Type is DF.
  DIIS enabled.
  MOM disabled.
  Fractional occupation disabled.
  Guess Type is CORE.
  Energy threshold   = 1.00e-06
  Density threshold  = 1.00e-06
  Integral threshold = 0.00e+00

  ==> Primary Basis <==

  Basis Set: 6-31G*
    Number of shells: 46
    Number of basis function: 91
    Number of Cartesian functions: 91
    Spherical Harmonics?: false
    Max angular momentum: 2

  ==> Pre-Iterations <==

   -------------------------------------------------------
    Irrep   Nso     Nmo     Nalpha   Nbeta   Ndocc  Nsocc
   -------------------------------------------------------
     A         91      91       0       0       0       0
   -------------------------------------------------------
    Total      91      91      21      21      21       0
   -------------------------------------------------------

 OEINTS: Overlap, kinetic, potential, dipole, and quadrupole integrals
         stored in file 35.

  ==> Integral Setup <==

  ==> DFJK: Density-Fitted J/K Matrices <==

    J tasked:                  Yes
    K tasked:                  Yes
    wK tasked:                  No
    OpenMP threads:              1
    Integrals threads:           1
    Memory (MB):              1430
    Algorithm:                Core
    Integral Cache:           NONE
    Schwarz Cutoff:          1E-12
    Fitting Condition:       1E-12

   => Auxiliary Basis Set <=

  Basis Set: 
    Number of shells: 192
    Number of basis function: 605
    Number of Cartesian functions: 605
    Spherical Harmonics?: false
    Max angular momentum: 3

  Minimum eigenvalue in the overlap matrix is 4.7038218951E-03.
  Using Symmetric Orthogonalization.
  SCF Guess: Core (One-Electron) Hamiltonian.

  ==> Iterations <==

                           Total Energy        Delta E     RMS |[F,P]|

   @DF-RHF iter   1:  -223.71803094100986   -2.23718e+02   7.93047e-02 
   @DF-RHF iter   2:  -168.82721408618826    5.48908e+01   6.90788e-02 DIIS
   @DF-RHF iter   3:  -228.92064650300367   -6.00934e+01   6.74425e-02 DIIS
   @DF-RHF iter   4:  -257.38351545700118   -2.84629e+01   3.78472e-02 DIIS
   @DF-RHF iter   5:  -267.55385260876972   -1.01703e+01   9.42629e-03 DIIS
   @DF-RHF iter   6:  -267.90146728144907   -3.47615e-01   3.39192e-03 DIIS
   @DF-RHF iter   7:  -267.94075552640834   -3.92882e-02   7.31542e-04 DIIS
   @DF-RHF iter   8:  -267.94276643591968   -2.01091e-03   2.38780e-04 DIIS
   @DF-RHF iter   9:  -267.94301522868955   -2.48793e-04   6.54984e-05 DIIS
   @DF-RHF iter  10:  -267.94303721869778   -2.19900e-05   2.76734e-05 DIIS
   @DF-RHF iter  11:  -267.94304067233429   -3.45364e-06   9.70775e-06 DIIS
   @DF-RHF iter  12:  -267.94304120996787   -5.37634e-07   2.50294e-06 DIIS
   @DF-RHF iter  13:  -267.94304125748192   -4.75140e-08   6.20921e-07 DIIS

  ==> Post-Iterations <==

    Orbital Energies (a.u.)
    -----------------------

    Doubly Occupied:                                                      

       1A    -20.559409     2A    -20.549651     3A    -11.276286  
       4A    -11.270431     5A    -11.269905     6A     -1.390102  
       7A     -1.353695     8A     -1.019728     9A     -0.918786  
      10A     -0.841080    11A     -0.689218    12A     -0.680516  
      13A     -0.668603    14A     -0.627675    15A     -0.607758  
      16A     -0.574809    17A     -0.532877    18A     -0.499716  
      19A     -0.468461    20A     -0.439178    21A     -0.417195  

    Virtual:                                                              

      22A      0.213148    23A      0.262509    24A      0.274094  
      25A      0.296550    26A      0.310848    27A      0.321648  
      28A      0.328481    29A      0.334872    30A      0.348068  
      31A      0.409536    32A      0.442092    33A      0.448041  
      34A      0.731051    35A      0.766508    36A      0.770748  
      37A      0.811965    38A      0.817392    39A      0.837626  
      40A      0.895392    41A      0.934511    42A      0.955427  
      43A      1.064401    44A      1.090300    45A      1.112237  
      46A      1.141123    47A      1.144326    48A      1.161168  
      49A      1.188049    50A      1.207191    51A      1.230696  
      52A      1.261561    53A      1.283156    54A      1.313983  
      55A      1.364591    56A      1.396614    57A      1.452811  
      58A      1.600324    59A      1.663614    60A      1.701907  
      61A      1.718976    62A      1.784495    63A      1.820356  
      64A      1.928483    65A      1.962671    66A      2.046605  
      67A      2.149968    68A      2.228340    69A      2.250231  
      70A      2.387785    71A      2.411343    72A      2.444871  
      73A      2.467912    74A      2.483395    75A      2.508610  
      76A      2.593403    77A      2.657351    78A      2.742302  
      79A      2.782183    80A      2.804291    81A      2.849855  
      82A      2.899063    83A      3.052443    84A      3.184497  
      85A      3.202446    86A      3.330180    87A      4.171172  
      88A      4.374754    89A      4.626768    90A      4.681997  
      91A      4.867552  

    Final Occupation by Irrep:
              A 
    DOCC [    21 ]

  Energy converged.

  @DF-RHF Final Energy:  -267.94304125748192

   => Energetics <=

    Nuclear Repulsion Energy =            195.2235068413141619
    One-Electron Energy =                -753.0229079463238122
    Two-Electron Energy =                 289.8563598475276422
    DFT Exchange-Correlation Energy =       0.0000000000000000
    Empirical Dispersion Energy =           0.0000000000000000
    PCM Polarization Energy =               0.0000000000000000
    EFP Energy =                            0.0000000000000000
    Total Energy =                       -267.9430412574820366

    Alert: EFP and PCM quantities not currently incorporated into SCF psivars.

Properties will be evaluated at   0.000000,   0.000000,   0.000000 Bohr
  ==> Properties <==


Properties computed using the SCF density matrix

  Nuclear Dipole Moment: (a.u.)
     X:     3.3790      Y:    -1.1642      Z:     1.9524

  Electronic Dipole Moment: (a.u.)
     X:    -2.5098      Y:     0.9428      Z:    -1.1054

  Dipole Moment: (a.u.)
     X:     0.8692      Y:    -0.2214      Z:     0.8471     Total:     1.2337

  Dipole Moment: (Debye)
     X:     2.2092      Y:    -0.5628      Z:     2.1530     Total:     3.1357


  Saving occupied orbitals to File 180.

*** tstop() called on cx1-49-4-2.cx1.hpc.ic.ac.uk at Tue Jul  5 16:38:15 2016
Module time:
	user time   =       5.31 seconds =       0.09 minutes
	system time =       0.05 seconds =       0.00 minutes
	total time  =          6 seconds =       0.10 minutes
Total time:
	user time   =       5.31 seconds =       0.09 minutes
	system time =       0.05 seconds =       0.00 minutes
	total time  =          6 seconds =       0.10 minutes


Properties will be evaluated at   0.000000,   0.000000,   0.000000 Bohr

Properties computed using the  density matrix

  Nuclear Dipole Moment: (a.u.)
     X:     3.3790      Y:    -1.1642      Z:     1.9524

  Electronic Dipole Moment: (a.u.)
     X:    -2.5098      Y:     0.9428      Z:    -1.1054

  Dipole Moment: (a.u.)
     X:     0.8692      Y:    -0.2214      Z:     0.8471     Total:     1.2337

  Dipole Moment: (Debye)
     X:     2.2092      Y:    -0.5628      Z:     2.1530     Total:     3.1357

  Quadrupole Moment: (Debye Ang)
    XX:   -34.9357     YY:   -27.5734     ZZ:   -30.5352
    XY:     0.8255     XZ:    -1.3353     YZ:    -0.5523

  Traceless Quadrupole Moment: (Debye Ang)
    XX:    -3.9209     YY:     3.4414     ZZ:     0.4796
    XY:     0.8255     XZ:    -1.3353     YZ:    -0.5523

  Mulliken Charges: (a.u.)
   Center  Symbol    Alpha    Beta     Spin     Total
       1     H     0.28292  0.28292  0.00000  0.43415
       2     O     4.36480  4.36480  0.00000 -0.72960
       3     C     2.99355  2.99355  0.00000  0.01290
       4     C     3.01221  3.01221  0.00000 -0.02441
       5     H     0.40915  0.40915  0.00000  0.18170
       6     H     0.42993  0.42993  0.00000  0.14014
       7     O     4.29594  4.29594  0.00000 -0.59187
       8     H     0.43613  0.43613  0.00000  0.12775
       9     H     0.42513  0.42513  0.00000  0.14975
      10     C     3.07953  3.07953  0.00000 -0.15905
      11     H     0.43172  0.43172  0.00000  0.13656
      12     H     0.40935  0.40935  0.00000  0.18130
      13     H     0.42966  0.42966  0.00000  0.14069

   Total alpha = 21.00000, Total beta = 21.00000, Total charge = -0.00000


*** PSI4 exiting successfully. Buy a developer a beer!
