    -----------------------------------------------------------------------
          Psi4: An Open-Source Ab Initio Electronic Structure Package
                              Psi4 (no tag) Driver

                          Git: Rev {detached?}  

    J. M. Turney, A. C. Simmonett, R. M. Parrish, E. G. Hohenstein,
    F. A. Evangelista, J. T. Fermann, B. J. Mintz, L. A. Burns, J. J. Wilke,
    M. L. Abrams, N. J. Russ, M. L. Leininger, C. L. Janssen, E. T. Seidl,
    W. D. Allen, H. F. Schaefer, R. A. King, E. F. Valeev, C. D. Sherrill,
    and T. D. Crawford, WIREs Comput. Mol. Sci. 2, 556-565 (2012)
    (doi: 10.1002/wcms.93)

                         Additional Contributions by
    A. E. DePrince, M. Saitow, U. Bozkaya, A. Yu. Sokolov
    -----------------------------------------------------------------------


    Psi4 started on: Tue Jul  5 17:00:44 2016

    Process ID:  17746
    PSI4DATADIR: /export131/home/mjharvey/miniconda3/share
    Memory level set to 256.000 MB

  ==> Input File <==

--------------------------------------------------------------------------
set {
	reference rhf
	basis 6-31G*
}


set_num_threads( 1 )
memory 2 gb

molecule MOL {
0 1

H	 2.451652	 -2.178703	 0.543297
O	 2.773837	 -1.297590	 0.410870
C	 1.759943	 -0.431505	 0.213148
C	 1.739271	 0.263133	 -0.992253
C	 0.767600	 -0.221248	 1.150795
H	 2.521858	 0.082130	 -1.704751
C	 0.727406	 1.163606	 -1.253679
H	 0.758767	 -0.742584	 2.087628
C	 -0.233454	 0.690144	 0.855713
H	 0.719196	 1.695565	 -2.186851
C	 -0.281345	 1.392521	 -0.327470
N	 -1.280796	 0.908816	 1.851074
H	 -1.072838	 2.087822	 -0.515884
O	 -1.323424	 0.163868	 2.783420
O	 -2.031874	 1.818203	 1.674551

	symmetry c1
}
set optking {
	frozen_dihedral = ("
		11 9 12 14
	")
}

ee = energy('scf')
oeprop('DIPOLE', 'QUADRUPOLE', 'MULLIKEN_CHARGES')
f=open( 'psi4out.xyz', 'w' )
f.write( "15  " )
f.write( str(ee) + "\n" )
f.write( MOL.save_string_xyz() )
f.close()
--------------------------------------------------------------------------

  Memory set to   2.000 GiB by Python script.

*** tstart() called on cx1-1-4-3.cx1.hpc.ic.ac.uk
*** at Tue Jul  5 17:00:45 2016


         ---------------------------------------------------------
                                   SCF
            by Justin Turney, Rob Parrish, and Andy Simmonett
                              RHF Reference
                        1 Threads,   2000 MiB Core
         ---------------------------------------------------------

  ==> Geometry <==

    Molecular point group: c1
    Full point group: C1

    Geometry (in Angstrom), charge = 0, multiplicity = 1:

       Center              X                  Y                   Z               Mass       
    ------------   -----------------  -----------------  -----------------  -----------------
           H          2.221924768184    -2.602404062595    -0.159890493938     1.007825032070
           O          2.544109768184    -1.721291062595    -0.292317493938    15.994914619560
           C          1.530215768184    -0.855206062595    -0.490039493938    12.000000000000
           C          1.509543768184    -0.160568062595    -1.695440493938    12.000000000000
           C          0.537872768184    -0.644949062595     0.447607506062    12.000000000000
           H          2.292130768184    -0.341571062595    -2.407938493938     1.007825032070
           C          0.497678768184     0.739904937405    -1.956866493938    12.000000000000
           H          0.529039768184    -1.166285062595     1.384440506062     1.007825032070
           C         -0.463181231816     0.266442937405     0.152525506062    12.000000000000
           H          0.489468768184     1.271863937405    -2.890038493938     1.007825032070
           C         -0.511072231816     0.968819937405    -1.030657493938    12.000000000000
           N         -1.510523231816     0.485114937405     1.147886506062    14.003074004780
           H         -1.302565231816     1.664120937405    -1.219071493938     1.007825032070
           O         -1.553151231816    -0.259833062595     2.080232506062    15.994914619560
           O         -2.261601231816     1.394501937405     0.971363506062    15.994914619560

  Running in c1 symmetry.

  Rotational constants: A =      0.09375  B =      0.03329  C =      0.02466 [cm^-1]
  Rotational constants: A =   2810.50144  B =    997.87981  C =    739.27852 [MHz]
  Nuclear repulsion =  503.272347335654729

  Charge       = 0
  Multiplicity = 1
  Electrons    = 72
  Nalpha       = 36
  Nbeta        = 36

  ==> Algorithm <==

  SCF Algorithm Type is DF.
  DIIS enabled.
  MOM disabled.
  Fractional occupation disabled.
  Guess Type is CORE.
  Energy threshold   = 1.00e-06
  Density threshold  = 1.00e-06
  Integral threshold = 0.00e+00

  ==> Primary Basis <==

  Basis Set: 6-31G*
    Number of shells: 70
    Number of basis function: 160
    Number of Cartesian functions: 160
    Spherical Harmonics?: false
    Max angular momentum: 2

  ==> Pre-Iterations <==

   -------------------------------------------------------
    Irrep   Nso     Nmo     Nalpha   Nbeta   Ndocc  Nsocc
   -------------------------------------------------------
     A        160     160       0       0       0       0
   -------------------------------------------------------
    Total     160     160      36      36      36       0
   -------------------------------------------------------

 OEINTS: Overlap, kinetic, potential, dipole, and quadrupole integrals
         stored in file 35.

  ==> Integral Setup <==

  ==> DFJK: Density-Fitted J/K Matrices <==

    J tasked:                  Yes
    K tasked:                  Yes
    wK tasked:                  No
    OpenMP threads:              1
    Integrals threads:           1
    Memory (MB):              1430
    Algorithm:                Core
    Integral Cache:           NONE
    Schwarz Cutoff:          1E-12
    Fitting Condition:       1E-12

   => Auxiliary Basis Set <=

  Basis Set: 
    Number of shells: 285
    Number of basis function: 935
    Number of Cartesian functions: 935
    Spherical Harmonics?: false
    Max angular momentum: 3

  Minimum eigenvalue in the overlap matrix is 4.1540792659E-04.
  Using Symmetric Orthogonalization.
  SCF Guess: Core (One-Electron) Hamiltonian.

  ==> Iterations <==

                           Total Energy        Delta E     RMS |[F,P]|

   @DF-RHF iter   1:  -421.56728127170715   -4.21567e+02   6.02721e-02 
   @DF-RHF iter   2:  -311.17848977543241    1.10389e+02   5.66521e-02 DIIS
   @DF-RHF iter   3:  -328.27138861324153   -1.70929e+01   7.15372e-02 DIIS
   @DF-RHF iter   4:  -495.80017170534273   -1.67529e+02   2.34796e-02 DIIS
   @DF-RHF iter   5:  -501.37299383979854   -5.57282e+00   2.15050e-02 DIIS
   @DF-RHF iter   6:  -508.30150137147911   -6.92851e+00   7.43110e-03 DIIS
   @DF-RHF iter   7:  -508.86663460499216   -5.65133e-01   3.03755e-03 DIIS
   @DF-RHF iter   8:  -508.97401926031722   -1.07385e-01   1.60203e-03 DIIS
   @DF-RHF iter   9:  -509.02041939824306   -4.64001e-02   4.62582e-04 DIIS
   @DF-RHF iter  10:  -509.02317012574468   -2.75073e-03   1.52806e-04 DIIS
   @DF-RHF iter  11:  -509.02368228474569   -5.12159e-04   7.17497e-05 DIIS
   @DF-RHF iter  12:  -509.02380473546719   -1.22451e-04   3.59614e-05 DIIS
   @DF-RHF iter  13:  -509.02384174996467   -3.70145e-05   1.42779e-05 DIIS
   @DF-RHF iter  14:  -509.02385092619335   -9.17623e-06   5.77088e-06 DIIS
   @DF-RHF iter  15:  -509.02385282617450   -1.89998e-06   2.59202e-06 DIIS
   @DF-RHF iter  16:  -509.02385329702889   -4.70854e-07   9.81331e-07 DIIS

  ==> Post-Iterations <==

    Orbital Energies (a.u.)
    -----------------------

    Doubly Occupied:                                                      

       1A    -20.605107     2A    -20.604475     3A    -20.603769  
       4A    -15.858649     5A    -11.323268     6A    -11.309655  
       7A    -11.267897     8A    -11.267620     9A    -11.265223  
      10A    -11.261799    11A     -1.637541    12A     -1.428913  
      13A     -1.420749    14A     -1.200269    15A     -1.094048  
      16A     -1.045801    17A     -0.964224    18A     -0.873228  
      19A     -0.829972    20A     -0.791866    21A     -0.744796  
      22A     -0.735753    23A     -0.722926    24A     -0.708738  
      25A     -0.677207    26A     -0.640649    27A     -0.627774  
      28A     -0.570134    29A     -0.556374    30A     -0.533185  
      31A     -0.513510    32A     -0.490603    33A     -0.486008  
      34A     -0.454041    35A     -0.376377    36A     -0.353063  

    Virtual:                                                              

      37A      0.058895    38A      0.120224    39A      0.178443  
      40A      0.213537    41A      0.227844    42A      0.288994  
      43A      0.296264    44A      0.323847    45A      0.356169  
      46A      0.384901    47A      0.429018    48A      0.433694  
      49A      0.451800    50A      0.520878    51A      0.534594  
      52A      0.556509    53A      0.613883    54A      0.680583  
      55A      0.694561    56A      0.708854    57A      0.715865  
      58A      0.754829    59A      0.786020    60A      0.798043  
      61A      0.802867    62A      0.812540    63A      0.832580  
      64A      0.872883    65A      0.876848    66A      0.885837  
      67A      0.896380    68A      0.946795    69A      0.977896  
      70A      0.992878    71A      1.006501    72A      1.039593  
      73A      1.053767    74A      1.068023    75A      1.076573  
      76A      1.092845    77A      1.123428    78A      1.139468  
      79A      1.166657    80A      1.169492    81A      1.200462  
      82A      1.222466    83A      1.237637    84A      1.267646  
      85A      1.272816    86A      1.297262    87A      1.298633  
      88A      1.344831    89A      1.379431    90A      1.404129  
      91A      1.413161    92A      1.452651    93A      1.470047  
      94A      1.510339    95A      1.542691    96A      1.588119  
      97A      1.633910    98A      1.652876    99A      1.676549  
     100A      1.706890   101A      1.714081   102A      1.731216  
     103A      1.739173   104A      1.747933   105A      1.904451  
     106A      1.971463   107A      2.010780   108A      2.017966  
     109A      2.055679   110A      2.076241   111A      2.089677  
     112A      2.109383   113A      2.118074   114A      2.177288  
     115A      2.217531   116A      2.225613   117A      2.239953  
     118A      2.256435   119A      2.270808   120A      2.291810  
     121A      2.367372   122A      2.390541   123A      2.430386  
     124A      2.458688   125A      2.472205   126A      2.478430  
     127A      2.546078   128A      2.572689   129A      2.604987  
     130A      2.617936   131A      2.722456   132A      2.742908  
     133A      2.827069   134A      2.860136   135A      2.895276  
     136A      2.918657   137A      2.963862   138A      2.988156  
     139A      3.010241   140A      3.093834   141A      3.097514  
     142A      3.110526   143A      3.164608   144A      3.253599  
     145A      3.294681   146A      3.300240   147A      3.415125  
     148A      3.498130   149A      3.606939   150A      3.834034  
     151A      4.160564   152A      4.271785   153A      4.351447  
     154A      4.435465   155A      4.503105   156A      4.534812  
     157A      4.608367   158A      4.757874   159A      4.870731  
     160A      5.159537  

    Final Occupation by Irrep:
              A 
    DOCC [    36 ]

  Energy converged.

  @DF-RHF Final Energy:  -509.02385329702889

   => Energetics <=

    Nuclear Repulsion Energy =            503.2723473356547288
    One-Electron Energy =               -1692.9024027648581523
    Two-Electron Energy =                 680.6062021321738484
    DFT Exchange-Correlation Energy =       0.0000000000000000
    Empirical Dispersion Energy =           0.0000000000000000
    PCM Polarization Energy =               0.0000000000000000
    EFP Energy =                            0.0000000000000000
    Total Energy =                       -509.0238532970295182

    Alert: EFP and PCM quantities not currently incorporated into SCF psivars.

Properties will be evaluated at   0.000000,   0.000000,   0.000000 Bohr
  ==> Properties <==


Properties computed using the SCF density matrix

  Nuclear Dipole Moment: (a.u.)
     X:     3.9638      Y:    -1.1051      Z:    -4.9516

  Electronic Dipole Moment: (a.u.)
     X:    -3.0757      Y:     0.4360      Z:     3.6077

  Dipole Moment: (a.u.)
     X:     0.8881      Y:    -0.6691      Z:    -1.3439     Total:     1.7442

  Dipole Moment: (Debye)
     X:     2.2572      Y:    -1.7006      Z:    -3.4158     Total:     4.4334


  Saving occupied orbitals to File 180.

*** tstop() called on cx1-1-4-3.cx1.hpc.ic.ac.uk at Tue Jul  5 17:01:05 2016
Module time:
	user time   =      20.12 seconds =       0.34 minutes
	system time =       0.27 seconds =       0.00 minutes
	total time  =         20 seconds =       0.33 minutes
Total time:
	user time   =      20.12 seconds =       0.34 minutes
	system time =       0.27 seconds =       0.00 minutes
	total time  =         20 seconds =       0.33 minutes


Properties will be evaluated at   0.000000,   0.000000,   0.000000 Bohr

Properties computed using the  density matrix

  Nuclear Dipole Moment: (a.u.)
     X:     3.9638      Y:    -1.1051      Z:    -4.9516

  Electronic Dipole Moment: (a.u.)
     X:    -3.0757      Y:     0.4360      Z:     3.6077

  Dipole Moment: (a.u.)
     X:     0.8881      Y:    -0.6691      Z:    -1.3439     Total:     1.7442

  Dipole Moment: (Debye)
     X:     2.2572      Y:    -1.7006      Z:    -3.4158     Total:     4.4334

  Quadrupole Moment: (Debye Ang)
    XX:   -66.5381     YY:   -50.9637     ZZ:   -56.4256
    XY:    -0.0343     XZ:     4.3501     YZ:    -3.2848

  Traceless Quadrupole Moment: (Debye Ang)
    XX:    -8.5623     YY:     7.0121     ZZ:     1.5502
    XY:    -0.0343     XZ:     4.3501     YZ:    -3.2848

  Mulliken Charges: (a.u.)
   Center  Symbol    Alpha    Beta     Spin     Total
       1     H     0.26706  0.26706  0.00000  0.46589
       2     O     4.38135  4.38135  0.00000 -0.76270
       3     C     2.81148  2.81148  0.00000  0.37705
       4     C     3.10329  3.10329  0.00000 -0.20657
       5     C     3.11969  3.11969  0.00000 -0.23939
       6     H     0.38187  0.38187  0.00000  0.23626
       7     C     3.10477  3.10477  0.00000 -0.20953
       8     H     0.36305  0.36305  0.00000  0.27390
       9     C     2.91513  2.91513  0.00000  0.16975
      10     H     0.38726  0.38726  0.00000  0.22547
      11     C     3.09252  3.09252  0.00000 -0.18504
      12     N     3.24204  3.24204  0.00000  0.51591
      13     H     0.36485  0.36485  0.00000  0.27031
      14     O     4.23385  4.23385  0.00000 -0.46770
      15     O     4.23180  4.23180  0.00000 -0.46360

   Total alpha = 36.00000, Total beta = 36.00000, Total charge = -0.00000


*** PSI4 exiting successfully. Buy a developer a beer!
