    -----------------------------------------------------------------------
          Psi4: An Open-Source Ab Initio Electronic Structure Package
                              Psi4 (no tag) Driver

                          Git: Rev {detached?}  

    J. M. Turney, A. C. Simmonett, R. M. Parrish, E. G. Hohenstein,
    F. A. Evangelista, J. T. Fermann, B. J. Mintz, L. A. Burns, J. J. Wilke,
    M. L. Abrams, N. J. Russ, M. L. Leininger, C. L. Janssen, E. T. Seidl,
    W. D. Allen, H. F. Schaefer, R. A. King, E. F. Valeev, C. D. Sherrill,
    and T. D. Crawford, WIREs Comput. Mol. Sci. 2, 556-565 (2012)
    (doi: 10.1002/wcms.93)

                         Additional Contributions by
    A. E. DePrince, M. Saitow, U. Bozkaya, A. Yu. Sokolov
    -----------------------------------------------------------------------


    Psi4 started on: Tue Jul  5 17:35:53 2016

    Process ID:  20543
    PSI4DATADIR: /export131/home/mjharvey/miniconda3/share
    Memory level set to 256.000 MB

  ==> Input File <==

--------------------------------------------------------------------------
set {
	reference rhf
	basis 6-31G*
}


set_num_threads( 1 )
memory 2 gb

molecule MOL {
0 1

H	 -0.266772	 -2.423286	 1.148494
O	 0.141052	 -2.643897	 0.316770
C	 0.102382	 -1.563045	 -0.462125
C	 0.624473	 -0.343591	 0.253101
O	 -0.302492	 -1.603202	 -1.578136
C	 -0.265902	 0.883932	 0.072916
H	 0.740303	 -0.614115	 1.297502
H	 1.628992	 -0.158063	 -0.118751
C	 -1.728698	 0.646073	 0.462102
H	 -0.209144	 1.219470	 -0.958188
H	 0.135059	 1.692851	 0.673903
C	 -1.933463	 -0.055758	 1.807637
H	 -2.191054	 0.043809	 -0.316529
H	 -2.262759	 1.595242	 0.465784
C	 -1.105121	 0.571202	 2.928908
H	 -2.987870	 -0.018849	 2.073919
H	 -1.675047	 -1.108293	 1.725337
H	 -1.265435	 0.056496	 3.871082
H	 -1.367390	 1.615363	 3.073030
H	 -0.043259	 0.525961	 2.703877

	symmetry c1
}
set optking {
	frozen_dihedral = ("
		16 12 9 6,
		7 4 6 10,
		12 9 6 10,
		5 3 4 7
	")
}

ee = energy('scf')
oeprop('DIPOLE', 'QUADRUPOLE', 'MULLIKEN_CHARGES')
f=open( 'psi4out.xyz', 'w' )
f.write( "20  " )
f.write( str(ee) + "\n" )
f.write( MOL.save_string_xyz() )
f.close()
--------------------------------------------------------------------------

  Memory set to   2.000 GiB by Python script.

*** tstart() called on cx1-1-1-2.cx1.hpc.ic.ac.uk
*** at Tue Jul  5 17:35:53 2016


         ---------------------------------------------------------
                                   SCF
            by Justin Turney, Rob Parrish, and Andy Simmonett
                              RHF Reference
                        1 Threads,   2000 MiB Core
         ---------------------------------------------------------

  ==> Geometry <==

    Molecular point group: c1
    Full point group: C1

    Geometry (in Angstrom), charge = 0, multiplicity = 1:

       Center              X                  Y                   Z               Mass       
    ------------   -----------------  -----------------  -----------------  -----------------
           H          0.285406585054    -1.873504768993     0.663181665666     1.007825032070
           O          0.693230585054    -2.094115768993    -0.168542334334    15.994914619560
           C          0.654560585054    -1.013263768993    -0.947437334334    12.000000000000
           C          1.176651585054     0.206190231007    -0.232211334334    12.000000000000
           O          0.249686585054    -1.053420768993    -2.063448334334    15.994914619560
           C          0.286276585054     1.433713231007    -0.412396334334    12.000000000000
           H          1.292481585054    -0.064333768993     0.812189665666     1.007825032070
           H          2.181170585054     0.391718231007    -0.604063334334     1.007825032070
           C         -1.176519414946     1.195854231007    -0.023210334334    12.000000000000
           H          0.343034585054     1.769251231007    -1.443500334334     1.007825032070
           H          0.687237585054     2.242632231007     0.188590665666     1.007825032070
           C         -1.381284414946     0.494023231007     1.322324665666    12.000000000000
           H         -1.638875414946     0.593590231007    -0.801841334334     1.007825032070
           H         -1.710580414946     2.145023231007    -0.019528334334     1.007825032070
           C         -0.552942414946     1.120983231007     2.443595665666    12.000000000000
           H         -2.435691414946     0.530932231007     1.588606665666     1.007825032070
           H         -1.122868414946    -0.558511768993     1.240024665666     1.007825032070
           H         -0.713256414946     0.606277231007     3.385769665666     1.007825032070
           H         -0.815211414946     2.165144231007     2.587717665666     1.007825032070
           H          0.508919585054     1.075742231007     2.218564665666     1.007825032070

  Running in c1 symmetry.

  Rotational constants: A =      0.10426  B =      0.04407  C =      0.03928 [cm^-1]
  Rotational constants: A =   3125.51557  B =   1321.03730  C =   1177.60712 [MHz]
  Nuclear repulsion =  402.588088577691167

  Charge       = 0
  Multiplicity = 1
  Electrons    = 64
  Nalpha       = 32
  Nbeta        = 32

  ==> Algorithm <==

  SCF Algorithm Type is DF.
  DIIS enabled.
  MOM disabled.
  Fractional occupation disabled.
  Guess Type is CORE.
  Energy threshold   = 1.00e-06
  Density threshold  = 1.00e-06
  Integral threshold = 0.00e+00

  ==> Primary Basis <==

  Basis Set: 6-31G*
    Number of shells: 72
    Number of basis function: 144
    Number of Cartesian functions: 144
    Spherical Harmonics?: false
    Max angular momentum: 2

  ==> Pre-Iterations <==

   -------------------------------------------------------
    Irrep   Nso     Nmo     Nalpha   Nbeta   Ndocc  Nsocc
   -------------------------------------------------------
     A        144     144       0       0       0       0
   -------------------------------------------------------
    Total     144     144      32      32      32       0
   -------------------------------------------------------

 OEINTS: Overlap, kinetic, potential, dipole, and quadrupole integrals
         stored in file 35.

  ==> Integral Setup <==

  ==> DFJK: Density-Fitted J/K Matrices <==

    J tasked:                  Yes
    K tasked:                  Yes
    wK tasked:                  No
    OpenMP threads:              1
    Integrals threads:           1
    Memory (MB):              1430
    Algorithm:                Core
    Integral Cache:           NONE
    Schwarz Cutoff:          1E-12
    Fitting Condition:       1E-12

   => Auxiliary Basis Set <=

  Basis Set: 
    Number of shells: 300
    Number of basis function: 948
    Number of Cartesian functions: 948
    Spherical Harmonics?: false
    Max angular momentum: 3

  Minimum eigenvalue in the overlap matrix is 2.9913746903E-03.
  Using Symmetric Orthogonalization.
  SCF Guess: Core (One-Electron) Hamiltonian.

  ==> Iterations <==

                           Total Energy        Delta E     RMS |[F,P]|

   @DF-RHF iter   1:  -300.59366070182551   -3.00594e+02   6.38120e-02 
   @DF-RHF iter   2:  -152.60881479635424    1.47985e+02   8.50309e-02 DIIS
   @DF-RHF iter   3:  -352.79753707230128   -2.00189e+02   3.08239e-02 DIIS
   @DF-RHF iter   4:  -258.51306607105261    9.42845e+01   7.97994e-02 DIIS
   @DF-RHF iter   5:  -306.39062439397372   -4.78776e+01   6.35827e-02 DIIS
   @DF-RHF iter   6:  -340.23761121142599   -3.38470e+01   5.09486e-02 DIIS
   @DF-RHF iter   7:  -352.48274605366538   -1.22451e+01   4.02264e-02 DIIS
   @DF-RHF iter   8:  -369.26780761263586   -1.67851e+01   2.78562e-02 DIIS
   @DF-RHF iter   9:  -380.68674551319469   -1.14189e+01   1.36865e-02 DIIS
   @DF-RHF iter  10:  -383.51314179889647   -2.82640e+00   6.41564e-03 DIIS
   @DF-RHF iter  11:  -383.89206814992104   -3.78926e-01   1.21520e-03 DIIS
   @DF-RHF iter  12:  -383.91404016590587   -2.19720e-02   4.92765e-04 DIIS
   @DF-RHF iter  13:  -383.91771593161280   -3.67577e-03   2.32314e-04 DIIS
   @DF-RHF iter  14:  -383.91853007136393   -8.14140e-04   5.36113e-05 DIIS
   @DF-RHF iter  15:  -383.91860393371968   -7.38624e-05   1.88364e-05 DIIS
   @DF-RHF iter  16:  -383.91861438636516   -1.04526e-05   7.47042e-06 DIIS
   @DF-RHF iter  17:  -383.91861606067306   -1.67431e-06   3.16351e-06 DIIS
   @DF-RHF iter  18:  -383.91861634364562   -2.82973e-07   1.07799e-06 DIIS
   @DF-RHF iter  19:  -383.91861638926326   -4.56176e-08   4.67243e-07 DIIS

  ==> Post-Iterations <==

    Orbital Energies (a.u.)
    -----------------------

    Doubly Occupied:                                                      

       1A    -20.603985     2A    -20.552697     3A    -11.378883  
       4A    -11.245057     5A    -11.237683     6A    -11.234094  
       7A    -11.227335     8A    -11.225151     9A     -1.467702  
      10A     -1.368842    11A     -1.111372    12A     -1.043921  
      13A     -0.964499    14A     -0.886297    15A     -0.828489  
      16A     -0.783618    17A     -0.714738    18A     -0.684366  
      19A     -0.656549    20A     -0.643849    21A     -0.631993  
      22A     -0.602709    23A     -0.575743    24A     -0.555111  
      25A     -0.537497    26A     -0.533744    27A     -0.511796  
      28A     -0.488107    29A     -0.476498    30A     -0.470013  
      31A     -0.465291    32A     -0.436757  

    Virtual:                                                              

      33A      0.174670    34A      0.184054    35A      0.236245  
      36A      0.252823    37A      0.277769    38A      0.282441  
      39A      0.300903    40A      0.312970    41A      0.323597  
      42A      0.332079    43A      0.347677    44A      0.360320  
      45A      0.372156    46A      0.387018    47A      0.407324  
      48A      0.423512    49A      0.447715    50A      0.493507  
      51A      0.529745    52A      0.591222    53A      0.689525  
      54A      0.700992    55A      0.715072    56A      0.735291  
      57A      0.760428    58A      0.775254    59A      0.831920  
      60A      0.853958    61A      0.887540    62A      0.910397  
      63A      0.916839    64A      0.938908    65A      0.955696  
      66A      0.968028    67A      0.998866    68A      1.028725  
      69A      1.050840    70A      1.072297    71A      1.095124  
      72A      1.118292    73A      1.120516    74A      1.150819  
      75A      1.163559    76A      1.177464    77A      1.187529  
      78A      1.198820    79A      1.215484    80A      1.219148  
      81A      1.233813    82A      1.254678    83A      1.272724  
      84A      1.303944    85A      1.312716    86A      1.322274  
      87A      1.363214    88A      1.379172    89A      1.422212  
      90A      1.481265    91A      1.513366    92A      1.642075  
      93A      1.651980    94A      1.705484    95A      1.725398  
      96A      1.757395    97A      1.856335    98A      1.866030  
      99A      1.902116   100A      1.927631   101A      2.000462  
     102A      2.014916   103A      2.067795   104A      2.102305  
     105A      2.110911   106A      2.136135   107A      2.140464  
     108A      2.218352   109A      2.263214   110A      2.268158  
     111A      2.297165   112A      2.306518   113A      2.340235  
     114A      2.359886   115A      2.409604   116A      2.425766  
     117A      2.498235   118A      2.563476   119A      2.622403  
     120A      2.654629   121A      2.659118   122A      2.683002  
     123A      2.716888   124A      2.744351   125A      2.787595  
     126A      2.824806   127A      2.869343   128A      2.877071  
     129A      2.961843   130A      2.997461   131A      3.047095  
     132A      3.109928   133A      3.142672   134A      3.248458  
     135A      3.388730   136A      3.484141   137A      4.317427  
     138A      4.529649   139A      4.601008   140A      4.684766  
     141A      4.763999   142A      4.837093   143A      4.918304  
     144A      5.036204  

    Final Occupation by Irrep:
              A 
    DOCC [    32 ]

  Energy converged.

  @DF-RHF Final Energy:  -383.91861638926326

   => Energetics <=

    Nuclear Repulsion Energy =            402.5880885776911668
    One-Electron Energy =               -1320.7244891997913783
    Two-Electron Energy =                 534.2177842328364932
    DFT Exchange-Correlation Energy =       0.0000000000000000
    Empirical Dispersion Energy =           0.0000000000000000
    PCM Polarization Energy =               0.0000000000000000
    EFP Energy =                            0.0000000000000000
    Total Energy =                       -383.9186163892636614

    Alert: EFP and PCM quantities not currently incorporated into SCF psivars.

Properties will be evaluated at   0.000000,   0.000000,   0.000000 Bohr
  ==> Properties <==


Properties computed using the SCF density matrix

  Nuclear Dipole Moment: (a.u.)
     X:    -2.9375      Y:     8.4446      Z:     9.1912

  Electronic Dipole Moment: (a.u.)
     X:     2.9786      Y:    -7.5663      Z:    -7.7396

  Dipole Moment: (a.u.)
     X:     0.0411      Y:     0.8782      Z:     1.4516     Total:     1.6971

  Dipole Moment: (Debye)
     X:     0.1045      Y:     2.2323      Z:     3.6896     Total:     4.3136


  Saving occupied orbitals to File 180.

*** tstop() called on cx1-1-1-2.cx1.hpc.ic.ac.uk at Tue Jul  5 17:36:13 2016
Module time:
	user time   =      19.33 seconds =       0.32 minutes
	system time =       0.26 seconds =       0.00 minutes
	total time  =         20 seconds =       0.33 minutes
Total time:
	user time   =      19.33 seconds =       0.32 minutes
	system time =       0.26 seconds =       0.00 minutes
	total time  =         20 seconds =       0.33 minutes


Properties will be evaluated at   0.000000,   0.000000,   0.000000 Bohr

Properties computed using the  density matrix

  Nuclear Dipole Moment: (a.u.)
     X:    -2.9375      Y:     8.4446      Z:     9.1912

  Electronic Dipole Moment: (a.u.)
     X:     2.9786      Y:    -7.5663      Z:    -7.7396

  Dipole Moment: (a.u.)
     X:     0.0411      Y:     0.8782      Z:     1.4516     Total:     1.6971

  Dipole Moment: (Debye)
     X:     0.1045      Y:     2.2323      Z:     3.6896     Total:     4.3136

  Quadrupole Moment: (Debye Ang)
    XX:   -48.3041     YY:   -54.4108     ZZ:   -56.5498
    XY:     1.0934     XZ:    -0.8830     YZ:    -5.7159

  Traceless Quadrupole Moment: (Debye Ang)
    XX:     4.7841     YY:    -1.3226     ZZ:    -3.4615
    XY:     1.0934     XZ:    -0.8830     YZ:    -5.7159

  Mulliken Charges: (a.u.)
   Center  Symbol    Alpha    Beta     Spin     Total
       1     H     0.26043  0.26043  0.00000  0.47913
       2     O     4.35774  4.35774  0.00000 -0.71548
       3     C     2.61942  2.61942  0.00000  0.76116
       4     C     3.22655  3.22655  0.00000 -0.45309
       5     O     4.26055  4.26055  0.00000 -0.52111
       6     C     3.15873  3.15873  0.00000 -0.31746
       7     H     0.41449  0.41449  0.00000  0.17101
       8     H     0.39047  0.39047  0.00000  0.21906
       9     C     3.16776  3.16776  0.00000 -0.33553
      10     H     0.40143  0.40143  0.00000  0.19714
      11     H     0.41422  0.41422  0.00000  0.17157
      12     C     3.15706  3.15706  0.00000 -0.31412
      13     H     0.40424  0.40424  0.00000  0.19152
      14     H     0.41487  0.41487  0.00000  0.17025
      15     C     3.24518  3.24518  0.00000 -0.49037
      16     H     0.40994  0.40994  0.00000  0.18013
      17     H     0.44465  0.44465  0.00000  0.11069
      18     H     0.41620  0.41620  0.00000  0.16760
      19     H     0.41597  0.41597  0.00000  0.16806
      20     H     0.42009  0.42009  0.00000  0.15983

   Total alpha = 32.00000, Total beta = 32.00000, Total charge = -0.00000


*** PSI4 exiting successfully. Buy a developer a beer!
