    -----------------------------------------------------------------------
          Psi4: An Open-Source Ab Initio Electronic Structure Package
                              Psi4 (no tag) Driver

                          Git: Rev {detached?}  

    J. M. Turney, A. C. Simmonett, R. M. Parrish, E. G. Hohenstein,
    F. A. Evangelista, J. T. Fermann, B. J. Mintz, L. A. Burns, J. J. Wilke,
    M. L. Abrams, N. J. Russ, M. L. Leininger, C. L. Janssen, E. T. Seidl,
    W. D. Allen, H. F. Schaefer, R. A. King, E. F. Valeev, C. D. Sherrill,
    and T. D. Crawford, WIREs Comput. Mol. Sci. 2, 556-565 (2012)
    (doi: 10.1002/wcms.93)

                         Additional Contributions by
    A. E. DePrince, M. Saitow, U. Bozkaya, A. Yu. Sokolov
    -----------------------------------------------------------------------


    Psi4 started on: Tue Jul  5 16:42:36 2016

    Process ID:  27243
    PSI4DATADIR: /export131/home/mjharvey/miniconda3/share
    Memory level set to 256.000 MB

  ==> Input File <==

--------------------------------------------------------------------------
set {
	reference rhf
	basis 6-31G*
}


set_num_threads( 1 )
memory 2 gb

molecule MOL {
0 1

H	 0.133812	 -0.807139	 -2.701401
O	 -0.693165	 -1.018407	 -2.279191
C	 -0.424494	 -1.592694	 -1.107166
C	 -0.318135	 -0.576402	 0.000164
O	 -0.292714	 -2.767802	 -0.994247
C	 -1.454360	 0.441875	 -0.000474
H	 -0.278694	 -1.122640	 0.938818
H	 0.648115	 -0.089019	 -0.098941
C	 -2.826123	 -0.230780	 0.000056
H	 -1.357605	 1.085198	 -0.868380
H	 -1.357504	 1.086451	 0.866496
H	 -2.959731	 -0.858053	 -0.876869
H	 -3.619374	 0.509403	 -0.000080
H	 -2.959371	 -0.857318	 0.877556

	symmetry c1
}
set optking {
	frozen_dihedral = ("
		7 4 6 10,
		2 3 4 7
	")
}

ee = energy('scf')
oeprop('DIPOLE', 'QUADRUPOLE', 'MULLIKEN_CHARGES')
f=open( 'psi4out.xyz', 'w' )
f.write( "14  " )
f.write( str(ee) + "\n" )
f.write( MOL.save_string_xyz() )
f.close()
--------------------------------------------------------------------------

  Memory set to   2.000 GiB by Python script.

*** tstart() called on cx1-3-16-4.cx1.hpc.ic.ac.uk
*** at Tue Jul  5 16:42:37 2016


         ---------------------------------------------------------
                                   SCF
            by Justin Turney, Rob Parrish, and Andy Simmonett
                              RHF Reference
                        1 Threads,   2000 MiB Core
         ---------------------------------------------------------

  ==> Geometry <==

    Molecular point group: c1
    Full point group: C1

    Geometry (in Angstrom), charge = 0, multiplicity = 1:

       Center              X                  Y                   Z               Mass       
    ------------   -----------------  -----------------  -----------------  -----------------
           H          1.131952469432     0.159528925560    -1.934530861530     1.007825032070
           O          0.304975469432    -0.051739074440    -1.512320861530    15.994914619560
           C          0.573646469432    -0.626026074440    -0.340295861530    12.000000000000
           C          0.680005469432     0.390265925560     0.767034138470    12.000000000000
           O          0.705426469432    -1.801134074440    -0.227376861530    15.994914619560
           C         -0.456219530568     1.408542925560     0.766396138470    12.000000000000
           H          0.719446469432    -0.155972074440     1.705688138470     1.007825032070
           H          1.646255469432     0.877648925560     0.667929138470     1.007825032070
           C         -1.827982530568     0.735887925560     0.766926138470    12.000000000000
           H         -0.359464530568     2.051865925560    -0.101509861530     1.007825032070
           H         -0.359363530568     2.053118925560     1.633366138470     1.007825032070
           H         -1.961590530568     0.108614925560    -0.109998861530     1.007825032070
           H         -2.621233530568     1.476070925560     0.766790138470     1.007825032070
           H         -1.961230530568     0.109349925560     1.644426138470     1.007825032070

  Running in c1 symmetry.

  Rotational constants: A =      0.19482  B =      0.08113  C =      0.07853 [cm^-1]
  Rotational constants: A =   5840.70198  B =   2432.34128  C =   2354.37001 [MHz]
  Nuclear repulsion =  247.763843336881109

  Charge       = 0
  Multiplicity = 1
  Electrons    = 48
  Nalpha       = 24
  Nbeta        = 24

  ==> Algorithm <==

  SCF Algorithm Type is DF.
  DIIS enabled.
  MOM disabled.
  Fractional occupation disabled.
  Guess Type is CORE.
  Energy threshold   = 1.00e-06
  Density threshold  = 1.00e-06
  Integral threshold = 0.00e+00

  ==> Primary Basis <==

  Basis Set: 6-31G*
    Number of shells: 52
    Number of basis function: 106
    Number of Cartesian functions: 106
    Spherical Harmonics?: false
    Max angular momentum: 2

  ==> Pre-Iterations <==

   -------------------------------------------------------
    Irrep   Nso     Nmo     Nalpha   Nbeta   Ndocc  Nsocc
   -------------------------------------------------------
     A        106     106       0       0       0       0
   -------------------------------------------------------
    Total     106     106      24      24      24       0
   -------------------------------------------------------

 OEINTS: Overlap, kinetic, potential, dipole, and quadrupole integrals
         stored in file 35.

  ==> Integral Setup <==

  ==> DFJK: Density-Fitted J/K Matrices <==

    J tasked:                  Yes
    K tasked:                  Yes
    wK tasked:                  No
    OpenMP threads:              1
    Integrals threads:           1
    Memory (MB):              1430
    Algorithm:                Core
    Integral Cache:           NONE
    Schwarz Cutoff:          1E-12
    Fitting Condition:       1E-12

   => Auxiliary Basis Set <=

  Basis Set: 
    Number of shells: 216
    Number of basis function: 686
    Number of Cartesian functions: 686
    Spherical Harmonics?: false
    Max angular momentum: 3

  Minimum eigenvalue in the overlap matrix is 3.5977082736E-03.
  Using Symmetric Orthogonalization.
  SCF Guess: Core (One-Electron) Hamiltonian.

  ==> Iterations <==

                           Total Energy        Delta E     RMS |[F,P]|

   @DF-RHF iter   1:  -244.29997690101345   -2.44300e+02   7.47848e-02 
   @DF-RHF iter   2:  -164.98049560755811    7.93195e+01   8.49190e-02 DIIS
   @DF-RHF iter   3:  -279.66203276401006   -1.14682e+02   3.82208e-02 DIIS
   @DF-RHF iter   4:  -239.11244084579607    4.05496e+01   7.75929e-02 DIIS
   @DF-RHF iter   5:  -280.44177954089957   -4.13293e+01   4.94939e-02 DIIS
   @DF-RHF iter   6:  -299.66953007013910   -1.92278e+01   2.75190e-02 DIIS
   @DF-RHF iter   7:  -305.27279116655700   -5.60326e+00   9.51567e-03 DIIS
   @DF-RHF iter   8:  -305.70388749091831   -4.31096e-01   5.58231e-03 DIIS
   @DF-RHF iter   9:  -305.83952348463799   -1.35636e-01   1.31213e-03 DIIS
   @DF-RHF iter  10:  -305.85170514583740   -1.21817e-02   5.64809e-04 DIIS
   @DF-RHF iter  11:  -305.85403036438356   -2.32522e-03   1.91167e-04 DIIS
   @DF-RHF iter  12:  -305.85426781176466   -2.37447e-04   5.64203e-05 DIIS
   @DF-RHF iter  13:  -305.85429838856373   -3.05768e-05   1.41794e-05 DIIS
   @DF-RHF iter  14:  -305.85430088782061   -2.49926e-06   4.86061e-06 DIIS
   @DF-RHF iter  15:  -305.85430131985242   -4.32032e-07   1.94514e-06 DIIS
   @DF-RHF iter  16:  -305.85430142499104   -1.05139e-07   8.09269e-07 DIIS

  ==> Post-Iterations <==

    Orbital Energies (a.u.)
    -----------------------

    Doubly Occupied:                                                      

       1A    -20.598953     2A    -20.559676     3A    -11.379488  
       4A    -11.240264     5A    -11.232713     6A    -11.216117  
       7A     -1.469555     8A     -1.368913     9A     -1.086758  
      10A     -0.970896    11A     -0.854480    12A     -0.813313  
      13A     -0.695539    14A     -0.684002    15A     -0.667509  
      16A     -0.620775    17A     -0.603822    18A     -0.560709  
      19A     -0.518740    20A     -0.512740    21A     -0.501492  
      22A     -0.485450    23A     -0.482247    24A     -0.439830  

    Virtual:                                                              

      25A      0.163817    26A      0.211212    27A      0.252496  
      28A      0.281574    29A      0.287600    30A      0.307249  
      31A      0.323418    32A      0.334503    33A      0.348108  
      34A      0.388527    35A      0.416059    36A      0.442660  
      37A      0.508979    38A      0.575737    39A      0.704745  
      40A      0.716463    41A      0.739288    42A      0.789051  
      43A      0.838523    44A      0.847941    45A      0.868954  
      46A      0.900536    47A      0.931837    48A      0.960880  
      49A      1.014397    50A      1.051756    51A      1.061888  
      52A      1.099023    53A      1.126769    54A      1.146185  
      55A      1.160602    56A      1.184059    57A      1.193995  
      58A      1.207871    59A      1.225975    60A      1.250426  
      61A      1.272676    62A      1.301384    63A      1.329075  
      64A      1.358889    65A      1.392085    66A      1.438680  
      67A      1.561502    68A      1.635192    69A      1.695770  
      70A      1.795476    71A      1.841704    72A      1.904195  
      73A      1.955725    74A      2.004277    75A      2.027197  
      76A      2.055462    77A      2.113552    78A      2.125060  
      79A      2.136942    80A      2.206425    81A      2.258517  
      82A      2.279759    83A      2.330720    84A      2.386274  
      85A      2.420349    86A      2.470908    87A      2.599229  
      88A      2.643248    89A      2.662622    90A      2.696278  
      91A      2.761947    92A      2.799473    93A      2.850798  
      94A      2.914089    95A      2.999438    96A      3.044635  
      97A      3.165564    98A      3.237635    99A      3.379387  
     100A      3.483770   101A      4.255410   102A      4.513280  
     103A      4.614648   104A      4.707074   105A      4.855134  
     106A      4.964624  

    Final Occupation by Irrep:
              A 
    DOCC [    24 ]

  Energy converged.

  @DF-RHF Final Energy:  -305.85430142499104

   => Energetics <=

    Nuclear Repulsion Energy =            247.7638433368811093
    One-Electron Energy =                -908.1085053929385822
    Two-Electron Energy =                 354.4903606310666078
    DFT Exchange-Correlation Energy =       0.0000000000000000
    Empirical Dispersion Energy =           0.0000000000000000
    PCM Polarization Energy =               0.0000000000000000
    EFP Energy =                            0.0000000000000000
    Total Energy =                       -305.8543014249908651

    Alert: EFP and PCM quantities not currently incorporated into SCF psivars.

Properties will be evaluated at   0.000000,   0.000000,   0.000000 Bohr
  ==> Properties <==


Properties computed using the SCF density matrix

  Nuclear Dipole Moment: (a.u.)
     X:    -3.5249      Y:     6.2536      Z:     3.9967

  Electronic Dipole Moment: (a.u.)
     X:     4.0238      Y:    -4.9821      Z:    -3.9269

  Dipole Moment: (a.u.)
     X:     0.4988      Y:     1.2715      Z:     0.0698     Total:     1.3676

  Dipole Moment: (Debye)
     X:     1.2679      Y:     3.2318      Z:     0.1773     Total:     3.4762


  Saving occupied orbitals to File 180.

*** tstop() called on cx1-3-16-4.cx1.hpc.ic.ac.uk at Tue Jul  5 16:42:44 2016
Module time:
	user time   =       6.62 seconds =       0.11 minutes
	system time =       0.04 seconds =       0.00 minutes
	total time  =          7 seconds =       0.12 minutes
Total time:
	user time   =       6.62 seconds =       0.11 minutes
	system time =       0.04 seconds =       0.00 minutes
	total time  =          7 seconds =       0.12 minutes


Properties will be evaluated at   0.000000,   0.000000,   0.000000 Bohr

Properties computed using the  density matrix

  Nuclear Dipole Moment: (a.u.)
     X:    -3.5249      Y:     6.2536      Z:     3.9967

  Electronic Dipole Moment: (a.u.)
     X:     4.0238      Y:    -4.9821      Z:    -3.9269

  Dipole Moment: (a.u.)
     X:     0.4988      Y:     1.2715      Z:     0.0698     Total:     1.3676

  Dipole Moment: (Debye)
     X:     1.2679      Y:     3.2318      Z:     0.1773     Total:     3.4762

  Quadrupole Moment: (Debye Ang)
    XX:   -33.6738     YY:   -43.0935     ZZ:   -34.9824
    XY:     2.5786     XZ:    -3.5691     YZ:    -0.9819

  Traceless Quadrupole Moment: (Debye Ang)
    XX:     3.5761     YY:    -5.8436     ZZ:     2.2675
    XY:     2.5786     XZ:    -3.5691     YZ:    -0.9819

  Mulliken Charges: (a.u.)
   Center  Symbol    Alpha    Beta     Spin     Total
       1     H     0.26490  0.26490  0.00000  0.47021
       2     O     4.35346  4.35346  0.00000 -0.70691
       3     C     2.64411  2.64411  0.00000  0.71179
       4     C     3.20766  3.20766  0.00000 -0.41531
       5     O     4.25083  4.25083  0.00000 -0.50166
       6     C     3.15332  3.15332  0.00000 -0.30663
       7     H     0.39930  0.39930  0.00000  0.20140
       8     H     0.40810  0.40810  0.00000  0.18380
       9     C     3.25073  3.25073  0.00000 -0.50146
      10     H     0.41266  0.41266  0.00000  0.17468
      11     H     0.41443  0.41443  0.00000  0.17114
      12     H     0.40828  0.40828  0.00000  0.18345
      13     H     0.41513  0.41513  0.00000  0.16975
      14     H     0.41712  0.41712  0.00000  0.16575

   Total alpha = 24.00000, Total beta = 24.00000, Total charge = -0.00000


*** PSI4 exiting successfully. Buy a developer a beer!
