    -----------------------------------------------------------------------
          Psi4: An Open-Source Ab Initio Electronic Structure Package
                              Psi4 (no tag) Driver

                          Git: Rev {detached?}  

    J. M. Turney, A. C. Simmonett, R. M. Parrish, E. G. Hohenstein,
    F. A. Evangelista, J. T. Fermann, B. J. Mintz, L. A. Burns, J. J. Wilke,
    M. L. Abrams, N. J. Russ, M. L. Leininger, C. L. Janssen, E. T. Seidl,
    W. D. Allen, H. F. Schaefer, R. A. King, E. F. Valeev, C. D. Sherrill,
    and T. D. Crawford, WIREs Comput. Mol. Sci. 2, 556-565 (2012)
    (doi: 10.1002/wcms.93)

                         Additional Contributions by
    A. E. DePrince, M. Saitow, U. Bozkaya, A. Yu. Sokolov
    -----------------------------------------------------------------------


    Psi4 started on: Tue Jul  5 16:48:42 2016

    Process ID:  32184
    PSI4DATADIR: /export131/home/mjharvey/miniconda3/share
    Memory level set to 256.000 MB

  ==> Input File <==

--------------------------------------------------------------------------
set {
	reference rhf
	basis 6-31G*
}


set_num_threads( 1 )
memory 2 gb

molecule MOL {
0 1

O	 0.888560	 1.036733	 0.704466
C	 0.576249	 0.131685	 -0.000108
C	 -0.766779	 -0.556801	 -0.000461
O	 1.391071	 -0.402883	 -0.900645
C	 -1.945214	 0.412366	 0.000161
H	 -0.796911	 -1.211249	 -0.867467
H	 -0.796854	 -1.212390	 0.865687
C	 -1.851003	 1.430701	 -1.135043
H	 -1.986407	 0.925269	 0.955062
H	 -2.870006	 -0.148553	 -0.081713
H	 -0.946584	 2.027704	 -1.057156
H	 -2.696928	 2.110022	 -1.116727
H	 -1.841119	 0.942075	 -2.105414
C	 0.883960	 -0.559491	 -2.213473
H	 0.019211	 -1.207372	 -2.211978
H	 1.682623	 -1.003109	 -2.787238
H	 0.609558	 0.398283	 -2.631663

	symmetry c1
}
set optking {
	frozen_dihedral = ("
		1 2 3 6,
		9 5 3 6
	")
}

ee = energy('scf')
oeprop('DIPOLE', 'QUADRUPOLE', 'MULLIKEN_CHARGES')
f=open( 'psi4out.xyz', 'w' )
f.write( "17  " )
f.write( str(ee) + "\n" )
f.write( MOL.save_string_xyz() )
f.close()
--------------------------------------------------------------------------

  Memory set to   2.000 GiB by Python script.

*** tstart() called on cx1-3-2-3.cx1.hpc.ic.ac.uk
*** at Tue Jul  5 16:48:42 2016


         ---------------------------------------------------------
                                   SCF
            by Justin Turney, Rob Parrish, and Andy Simmonett
                              RHF Reference
                        1 Threads,   2000 MiB Core
         ---------------------------------------------------------

  ==> Geometry <==

    Molecular point group: c1
    Full point group: C1

    Geometry (in Angstrom), charge = 0, multiplicity = 1:

       Center              X                  Y                   Z               Mass       
    ------------   -----------------  -----------------  -----------------  -----------------
           O          0.991135275078     0.820472846975     1.237932868817    15.994914619560
           C          0.678824275078    -0.084575153025     0.533358868817    12.000000000000
           C         -0.664203724922    -0.773061153025     0.533005868817    12.000000000000
           O          1.493646275078    -0.619143153025    -0.367178131183    15.994914619560
           C         -1.842638724922     0.196105846975     0.533627868817    12.000000000000
           H         -0.694335724922    -1.427509153025    -0.334000131183     1.007825032070
           H         -0.694278724922    -1.428650153025     1.399153868817     1.007825032070
           C         -1.748427724922     1.214440846975    -0.601576131183    12.000000000000
           H         -1.883831724922     0.709008846975     1.488528868817     1.007825032070
           H         -2.767430724922    -0.364813153025     0.451753868817     1.007825032070
           H         -0.844008724922     1.811443846975    -0.523689131183     1.007825032070
           H         -2.594352724922     1.893761846975    -0.583260131183     1.007825032070
           H         -1.738543724922     0.725814846975    -1.571947131183     1.007825032070
           C          0.986535275078    -0.775751153025    -1.680006131183    12.000000000000
           H          0.121786275078    -1.423632153025    -1.678511131183     1.007825032070
           H          1.785198275078    -1.219369153025    -2.253771131183     1.007825032070
           H          0.712133275078     0.182022846975    -2.098196131183     1.007825032070

  Running in c1 symmetry.

  Rotational constants: A =      0.11941  B =      0.06993  C =      0.05726 [cm^-1]
  Rotational constants: A =   3579.67783  B =   2096.29930  C =   1716.47854 [MHz]
  Nuclear repulsion =  326.840266206104047

  Charge       = 0
  Multiplicity = 1
  Electrons    = 56
  Nalpha       = 28
  Nbeta        = 28

  ==> Algorithm <==

  SCF Algorithm Type is DF.
  DIIS enabled.
  MOM disabled.
  Fractional occupation disabled.
  Guess Type is CORE.
  Energy threshold   = 1.00e-06
  Density threshold  = 1.00e-06
  Integral threshold = 0.00e+00

  ==> Primary Basis <==

  Basis Set: 6-31G*
    Number of shells: 62
    Number of basis function: 125
    Number of Cartesian functions: 125
    Spherical Harmonics?: false
    Max angular momentum: 2

  ==> Pre-Iterations <==

   -------------------------------------------------------
    Irrep   Nso     Nmo     Nalpha   Nbeta   Ndocc  Nsocc
   -------------------------------------------------------
     A        125     125       0       0       0       0
   -------------------------------------------------------
    Total     125     125      28      28      28       0
   -------------------------------------------------------

 OEINTS: Overlap, kinetic, potential, dipole, and quadrupole integrals
         stored in file 35.

  ==> Integral Setup <==

  ==> DFJK: Density-Fitted J/K Matrices <==

    J tasked:                  Yes
    K tasked:                  Yes
    wK tasked:                  No
    OpenMP threads:              1
    Integrals threads:           1
    Memory (MB):              1430
    Algorithm:                Core
    Integral Cache:           NONE
    Schwarz Cutoff:          1E-12
    Fitting Condition:       1E-12

   => Auxiliary Basis Set <=

  Basis Set: 
    Number of shells: 258
    Number of basis function: 817
    Number of Cartesian functions: 817
    Spherical Harmonics?: false
    Max angular momentum: 3

  Minimum eigenvalue in the overlap matrix is 2.9392105555E-03.
  Using Symmetric Orthogonalization.
  SCF Guess: Core (One-Electron) Hamiltonian.

  ==> Iterations <==

                           Total Energy        Delta E     RMS |[F,P]|

   @DF-RHF iter   1:  -247.99293935659489   -2.47993e+02   8.05319e-02 
   @DF-RHF iter   2:  -210.54599503151235    3.74469e+01   6.73665e-02 DIIS
   @DF-RHF iter   3:  -298.36599017890012   -8.78200e+01   4.89068e-02 DIIS
   @DF-RHF iter   4:  -311.47687536983221   -1.31109e+01   4.88647e-02 DIIS
   @DF-RHF iter   5:  -335.97962956967501   -2.45028e+01   2.61522e-02 DIIS
   @DF-RHF iter   6:  -344.62252727367706   -8.64290e+00   5.28582e-03 DIIS
   @DF-RHF iter   7:  -344.84116300916912   -2.18636e-01   1.92694e-03 DIIS
   @DF-RHF iter   8:  -344.86714065432375   -2.59776e-02   6.53704e-04 DIIS
   @DF-RHF iter   9:  -344.87081682025541   -3.67617e-03   2.54422e-04 DIIS
   @DF-RHF iter  10:  -344.87153119358118   -7.14373e-04   1.02883e-04 DIIS
   @DF-RHF iter  11:  -344.87166343819683   -1.32245e-04   4.91320e-05 DIIS
   @DF-RHF iter  12:  -344.87168735287696   -2.39147e-05   1.23251e-05 DIIS
   @DF-RHF iter  13:  -344.87168924289313   -1.89002e-06   4.30635e-06 DIIS
   @DF-RHF iter  14:  -344.87168946738223   -2.24489e-07   7.67999e-07 DIIS

  ==> Post-Iterations <==

    Orbital Energies (a.u.)
    -----------------------

    Doubly Occupied:                                                      

       1A    -20.598204     2A    -20.549911     3A    -11.374918  
       4A    -11.296317     5A    -11.236671     6A    -11.232356  
       7A    -11.220056     8A     -1.466650     9A     -1.369821  
      10A     -1.086141    11A     -0.992281    12A     -0.967026  
      13A     -0.850813    14A     -0.765344    15A     -0.707141  
      16A     -0.683524    17A     -0.678489    18A     -0.636275  
      19A     -0.614659    20A     -0.597406    21A     -0.570391  
      22A     -0.547728    23A     -0.515073    24A     -0.507633  
      25A     -0.487339    26A     -0.482129    27A     -0.456816  
      28A     -0.430063  

    Virtual:                                                              

      29A      0.174635    30A      0.220784    31A      0.254672  
      32A      0.266867    33A      0.277479    34A      0.297304  
      35A      0.310325    36A      0.315937    37A      0.328693  
      38A      0.338064    39A      0.353943    40A      0.392761  
      41A      0.418709    42A      0.424282    43A      0.450811  
      44A      0.523052    45A      0.606391    46A      0.663609  
      47A      0.712782    48A      0.735376    49A      0.747287  
      50A      0.764346    51A      0.787755    52A      0.829601  
      53A      0.843475    54A      0.901231    55A      0.907986  
      56A      0.944476    57A      0.957993    58A      0.980604  
      59A      1.013694    60A      1.056760    61A      1.096527  
      62A      1.118022    63A      1.126529    64A      1.134000  
      65A      1.154426    66A      1.165087    67A      1.178945  
      68A      1.193288    69A      1.226182    70A      1.236972  
      71A      1.246162    72A      1.249563    73A      1.310556  
      74A      1.345755    75A      1.372834    76A      1.381375  
      77A      1.408379    78A      1.425387    79A      1.573234  
      80A      1.631207    81A      1.696051    82A      1.714131  
      83A      1.761319    84A      1.817321    85A      1.856734  
      86A      1.917565    87A      1.960413    88A      2.012260  
      89A      2.054358    90A      2.096150    91A      2.125848  
      92A      2.143613    93A      2.152002    94A      2.241843  
      95A      2.262287    96A      2.295821    97A      2.325850  
      98A      2.380643    99A      2.410134   100A      2.434670  
     101A      2.460720   102A      2.517052   103A      2.589836  
     104A      2.636781   105A      2.665381   106A      2.695868  
     107A      2.714201   108A      2.725497   109A      2.785591  
     110A      2.836620   111A      2.871550   112A      3.008115  
     113A      3.060858   114A      3.130498   115A      3.215412  
     116A      3.281368   117A      3.398208   118A      3.534733  
     119A      4.411603   120A      4.565540   121A      4.644745  
     122A      4.685817   123A      4.767489   124A      4.876722  
     125A      5.009941  

    Final Occupation by Irrep:
              A 
    DOCC [    28 ]

  Energy converged.

  @DF-RHF Final Energy:  -344.87168946738223

   => Energetics <=

    Nuclear Repulsion Energy =            326.8402662061040473
    One-Electron Energy =               -1117.5814699104228112
    Two-Electron Energy =                 445.8695142369363680
    DFT Exchange-Correlation Energy =       0.0000000000000000
    Empirical Dispersion Energy =           0.0000000000000000
    PCM Polarization Energy =               0.0000000000000000
    EFP Energy =                            0.0000000000000000
    Total Energy =                       -344.8716894673823958

    Alert: EFP and PCM quantities not currently incorporated into SCF psivars.

Properties will be evaluated at   0.000000,   0.000000,   0.000000 Bohr
  ==> Properties <==


Properties computed using the SCF density matrix

  Nuclear Dipole Moment: (a.u.)
     X:    -8.0481      Y:    -0.5071      Z:    -5.3431

  Electronic Dipole Moment: (a.u.)
     X:     7.0777      Y:    -0.3201      Z:     4.2562

  Dipole Moment: (a.u.)
     X:    -0.9705      Y:    -0.8272      Z:    -1.0868     Total:     1.6755

  Dipole Moment: (Debye)
     X:    -2.4666      Y:    -2.1024      Z:    -2.7625     Total:     4.2586


  Saving occupied orbitals to File 180.

*** tstop() called on cx1-3-2-3.cx1.hpc.ic.ac.uk at Tue Jul  5 16:48:54 2016
Module time:
	user time   =      10.89 seconds =       0.18 minutes
	system time =       0.05 seconds =       0.00 minutes
	total time  =         12 seconds =       0.20 minutes
Total time:
	user time   =      10.89 seconds =       0.18 minutes
	system time =       0.05 seconds =       0.00 minutes
	total time  =         12 seconds =       0.20 minutes


Properties will be evaluated at   0.000000,   0.000000,   0.000000 Bohr

Properties computed using the  density matrix

  Nuclear Dipole Moment: (a.u.)
     X:    -8.0481      Y:    -0.5071      Z:    -5.3431

  Electronic Dipole Moment: (a.u.)
     X:     7.0777      Y:    -0.3201      Z:     4.2562

  Dipole Moment: (a.u.)
     X:    -0.9705      Y:    -0.8272      Z:    -1.0868     Total:     1.6755

  Dipole Moment: (Debye)
     X:    -2.4666      Y:    -2.1024      Z:    -2.7625     Total:     4.2586

  Quadrupole Moment: (Debye Ang)
    XX:   -46.7525     YY:   -43.9186     ZZ:   -42.0361
    XY:    -1.6205     XZ:    -3.8657     YZ:    -1.4558

  Traceless Quadrupole Moment: (Debye Ang)
    XX:    -2.5168     YY:     0.3172     ZZ:     2.1996
    XY:    -1.6205     XZ:    -3.8657     YZ:    -1.4558

  Mulliken Charges: (a.u.)
   Center  Symbol    Alpha    Beta     Spin     Total
       1     O     4.26435  4.26435  0.00000 -0.52870
       2     C     2.60660  2.60660  0.00000  0.78680
       3     C     3.22487  3.22487  0.00000 -0.44975
       4     O     4.30284  4.30284  0.00000 -0.60567
       5     C     3.14939  3.14939  0.00000 -0.29878
       6     H     0.41261  0.41261  0.00000  0.17479
       7     H     0.39422  0.39422  0.00000  0.21156
       8     C     3.25548  3.25548  0.00000 -0.51095
       9     H     0.40500  0.40500  0.00000  0.19000
      10     H     0.41613  0.41613  0.00000  0.16775
      11     H     0.40691  0.40691  0.00000  0.18619
      12     H     0.41255  0.41255  0.00000  0.17491
      13     H     0.42621  0.42621  0.00000  0.14758
      14     C     3.09837  3.09837  0.00000 -0.19674
      15     H     0.41744  0.41744  0.00000  0.16512
      16     H     0.39822  0.39822  0.00000  0.20356
      17     H     0.40883  0.40883  0.00000  0.18234

   Total alpha = 28.00000, Total beta = 28.00000, Total charge = -0.00000


*** PSI4 exiting successfully. Buy a developer a beer!
