    -----------------------------------------------------------------------
          Psi4: An Open-Source Ab Initio Electronic Structure Package
                              Psi4 (no tag) Driver

                          Git: Rev {detached?}  

    J. M. Turney, A. C. Simmonett, R. M. Parrish, E. G. Hohenstein,
    F. A. Evangelista, J. T. Fermann, B. J. Mintz, L. A. Burns, J. J. Wilke,
    M. L. Abrams, N. J. Russ, M. L. Leininger, C. L. Janssen, E. T. Seidl,
    W. D. Allen, H. F. Schaefer, R. A. King, E. F. Valeev, C. D. Sherrill,
    and T. D. Crawford, WIREs Comput. Mol. Sci. 2, 556-565 (2012)
    (doi: 10.1002/wcms.93)

                         Additional Contributions by
    A. E. DePrince, M. Saitow, U. Bozkaya, A. Yu. Sokolov
    -----------------------------------------------------------------------


    Psi4 started on: Tue Jul  5 16:36:39 2016

    Process ID:  18047
    PSI4DATADIR: /export131/home/mjharvey/miniconda3/share
    Memory level set to 256.000 MB

  ==> Input File <==

--------------------------------------------------------------------------
set {
	reference rhf
	basis 6-31G*
}


set_num_threads( 1 )
memory 2 gb

molecule MOL {
0 1

O	 -0.682937	 1.318834	 -0.186099
C	 -0.860635	 0.152188	 -0.042321
C	 -2.173363	 -0.477127	 0.338347
O	 0.083258	 -0.765189	 -0.202595
H	 -2.477673	 -1.180929	 -0.427595
H	 -2.923125	 0.290956	 0.455536
H	 -2.058825	 -1.029004	 1.264191
C	 1.395325	 -0.479096	 0.276393
C	 2.039022	 0.650935	 -0.505484
H	 1.992859	 -1.376947	 0.232154
H	 1.251667	 -0.201639	 1.310743
H	 3.003040	 0.895951	 -0.070321
H	 2.194875	 0.365686	 -1.538301
H	 1.416291	 1.538479	 -0.475707

	symmetry c1
}
set optking {
	frozen_dihedral = ("
		10 8 4 2
	")
}

ee = energy('scf')
oeprop('DIPOLE', 'QUADRUPOLE', 'MULLIKEN_CHARGES')
f=open( 'psi4out.xyz', 'w' )
f.write( "14  " )
f.write( str(ee) + "\n" )
f.write( MOL.save_string_xyz() )
f.close()
--------------------------------------------------------------------------

  Memory set to   2.000 GiB by Python script.

*** tstart() called on cx1-1-2-4.cx1.hpc.ic.ac.uk
*** at Tue Jul  5 16:36:39 2016


         ---------------------------------------------------------
                                   SCF
            by Justin Turney, Rob Parrish, and Andy Simmonett
                              RHF Reference
                        1 Threads,   2000 MiB Core
         ---------------------------------------------------------

  ==> Geometry <==

    Molecular point group: c1
    Full point group: C1

    Geometry (in Angstrom), charge = 0, multiplicity = 1:

       Center              X                  Y                   Z               Mass       
    ------------   -----------------  -----------------  -----------------  -----------------
           O         -0.656024121924     1.247110823302    -0.133206273266    15.994914619560
           C         -0.833722121924     0.080464823302     0.010571726734    12.000000000000
           C         -2.146450121924    -0.548850176698     0.391239726734    12.000000000000
           O          0.110170878076    -0.836912176698    -0.149702273266    15.994914619560
           H         -2.450760121924    -1.252652176698    -0.374702273266     1.007825032070
           H         -2.896212121924     0.219232823302     0.508428726734     1.007825032070
           H         -2.031912121924    -1.100727176698     1.317083726734     1.007825032070
           C          1.422237878076    -0.550819176698     0.329285726734    12.000000000000
           C          2.065934878076     0.579211823302    -0.452591273266    12.000000000000
           H          2.019771878076    -1.448670176698     0.285046726734     1.007825032070
           H          1.278579878076    -0.273362176698     1.363635726734     1.007825032070
           H          3.029952878076     0.824227823302    -0.017428273266     1.007825032070
           H          2.221787878076     0.293962823302    -1.485408273266     1.007825032070
           H          1.443203878076     1.466755823302    -0.422814273266     1.007825032070

  Running in c1 symmetry.

  Rotational constants: A =      0.25938  B =      0.08492  C =      0.06832 [cm^-1]
  Rotational constants: A =   7775.89976  B =   2545.77552  C =   2048.30745 [MHz]
  Nuclear repulsion =  250.819818124825275

  Charge       = 0
  Multiplicity = 1
  Electrons    = 48
  Nalpha       = 24
  Nbeta        = 24

  ==> Algorithm <==

  SCF Algorithm Type is DF.
  DIIS enabled.
  MOM disabled.
  Fractional occupation disabled.
  Guess Type is CORE.
  Energy threshold   = 1.00e-06
  Density threshold  = 1.00e-06
  Integral threshold = 0.00e+00

  ==> Primary Basis <==

  Basis Set: 6-31G*
    Number of shells: 52
    Number of basis function: 106
    Number of Cartesian functions: 106
    Spherical Harmonics?: false
    Max angular momentum: 2

  ==> Pre-Iterations <==

   -------------------------------------------------------
    Irrep   Nso     Nmo     Nalpha   Nbeta   Ndocc  Nsocc
   -------------------------------------------------------
     A        106     106       0       0       0       0
   -------------------------------------------------------
    Total     106     106      24      24      24       0
   -------------------------------------------------------

 OEINTS: Overlap, kinetic, potential, dipole, and quadrupole integrals
         stored in file 35.

  ==> Integral Setup <==

  ==> DFJK: Density-Fitted J/K Matrices <==

    J tasked:                  Yes
    K tasked:                  Yes
    wK tasked:                  No
    OpenMP threads:              1
    Integrals threads:           1
    Memory (MB):              1430
    Algorithm:                Core
    Integral Cache:           NONE
    Schwarz Cutoff:          1E-12
    Fitting Condition:       1E-12

   => Auxiliary Basis Set <=

  Basis Set: 
    Number of shells: 216
    Number of basis function: 686
    Number of Cartesian functions: 686
    Spherical Harmonics?: false
    Max angular momentum: 3

  Minimum eigenvalue in the overlap matrix is 3.9120440107E-03.
  Using Symmetric Orthogonalization.
  SCF Guess: Core (One-Electron) Hamiltonian.

  ==> Iterations <==

                           Total Energy        Delta E     RMS |[F,P]|

   @DF-RHF iter   1:  -236.26375398579930   -2.36264e+02   8.49762e-02 
   @DF-RHF iter   2:  -221.27967012411787    1.49841e+01   6.30806e-02 DIIS
   @DF-RHF iter   3:  -275.85370043665773   -5.45740e+01   5.63634e-02 DIIS
   @DF-RHF iter   4:  -298.55609876142887   -2.27024e+01   2.60152e-02 DIIS
   @DF-RHF iter   5:  -305.21970691703814   -6.66361e+00   9.77157e-03 DIIS
   @DF-RHF iter   6:  -305.80706053804067   -5.87354e-01   3.07069e-03 DIIS
   @DF-RHF iter   7:  -305.85423101020399   -4.71705e-02   1.02184e-03 DIIS
   @DF-RHF iter   8:  -305.85877950062275   -4.54849e-03   5.30272e-04 DIIS
   @DF-RHF iter   9:  -305.86001327458064   -1.23377e-03   2.52268e-04 DIIS
   @DF-RHF iter  10:  -305.86039530982464   -3.82035e-04   7.09824e-05 DIIS
   @DF-RHF iter  11:  -305.86043370140806   -3.83916e-05   1.89954e-05 DIIS
   @DF-RHF iter  12:  -305.86043610111744   -2.39971e-06   5.26204e-06 DIIS
   @DF-RHF iter  13:  -305.86043639542629   -2.94309e-07   1.39625e-06 DIIS
   @DF-RHF iter  14:  -305.86043641809249   -2.26662e-08   5.17813e-07 DIIS

  ==> Post-Iterations <==

    Orbital Energies (a.u.)
    -----------------------

    Doubly Occupied:                                                      

       1A    -20.593820     2A    -20.548904     3A    -11.378595  
       4A    -11.290915     5A    -11.234185     6A    -11.205631  
       7A     -1.467095     8A     -1.365521     9A     -1.052605  
      10A     -0.996660    11A     -0.882146    12A     -0.765087  
      13A     -0.699938    14A     -0.683434    15A     -0.662865  
      16A     -0.605603    17A     -0.587720    18A     -0.571971  
      19A     -0.554973    20A     -0.533487    21A     -0.511383  
      22A     -0.492585    23A     -0.448683    24A     -0.429413  

    Virtual:                                                              

      25A      0.184760    26A      0.242559    27A      0.264675  
      28A      0.294137    29A      0.301759    30A      0.307366  
      31A      0.322982    32A      0.334665    33A      0.349277  
      34A      0.374004    35A      0.415469    36A      0.419888  
      37A      0.509291    38A      0.564494    39A      0.713092  
      40A      0.730407    41A      0.748844    42A      0.755032  
      43A      0.782355    44A      0.808508    45A      0.818255  
      46A      0.855864    47A      0.885263    48A      0.914951  
      49A      0.976433    50A      1.022105    51A      1.058054  
      52A      1.096909    53A      1.128975    54A      1.143173  
      55A      1.169616    56A      1.177150    57A      1.195214  
      58A      1.208834    59A      1.215414    60A      1.267742  
      61A      1.280310    62A      1.313399    63A      1.341986  
      64A      1.409479    65A      1.443545    66A      1.471920  
      67A      1.603537    68A      1.624135    69A      1.719640  
      70A      1.748085    71A      1.825710    72A      1.863647  
      73A      1.890359    74A      2.000555    75A      2.036497  
      76A      2.090306    77A      2.099829    78A      2.158931  
      79A      2.185211    80A      2.232025    81A      2.280764  
      82A      2.303721    83A      2.345423    84A      2.418483  
      85A      2.451488    86A      2.550261    87A      2.553066  
      88A      2.593177    89A      2.664761    90A      2.691238  
      91A      2.715317    92A      2.795048    93A      2.819643  
      94A      2.888071    95A      3.008529    96A      3.146375  
      97A      3.160760    98A      3.349044    99A      3.386991  
     100A      3.528627   101A      4.394654   102A      4.524667  
     103A      4.629210   104A      4.649164   105A      4.824403  
     106A      4.897366  

    Final Occupation by Irrep:
              A 
    DOCC [    24 ]

  Energy converged.

  @DF-RHF Final Energy:  -305.86043641809249

   => Energetics <=

    Nuclear Repulsion Energy =            250.8198181248252752
    One-Electron Energy =                -914.2341011502564925
    Two-Electron Energy =                 357.5538466073383574
    DFT Exchange-Correlation Energy =       0.0000000000000000
    Empirical Dispersion Energy =           0.0000000000000000
    PCM Polarization Energy =               0.0000000000000000
    EFP Energy =                            0.0000000000000000
    Total Energy =                       -305.8604364180928883

    Alert: EFP and PCM quantities not currently incorporated into SCF psivars.

Properties will be evaluated at   0.000000,   0.000000,   0.000000 Bohr
  ==> Properties <==


Properties computed using the SCF density matrix

  Nuclear Dipole Moment: (a.u.)
     X:     2.4483      Y:    -1.1898      Z:     1.0991

  Electronic Dipole Moment: (a.u.)
     X:    -2.3424      Y:     0.4321      Z:    -0.6577

  Dipole Moment: (a.u.)
     X:     0.1059      Y:    -0.7577      Z:     0.4414     Total:     0.8832

  Dipole Moment: (Debye)
     X:     0.2691      Y:    -1.9258      Z:     1.1220     Total:     2.2450


  Saving occupied orbitals to File 180.

*** tstop() called on cx1-1-2-4.cx1.hpc.ic.ac.uk at Tue Jul  5 16:36:45 2016
Module time:
	user time   =       5.47 seconds =       0.09 minutes
	system time =       0.04 seconds =       0.00 minutes
	total time  =          6 seconds =       0.10 minutes
Total time:
	user time   =       5.47 seconds =       0.09 minutes
	system time =       0.04 seconds =       0.00 minutes
	total time  =          6 seconds =       0.10 minutes


Properties will be evaluated at   0.000000,   0.000000,   0.000000 Bohr

Properties computed using the  density matrix

  Nuclear Dipole Moment: (a.u.)
     X:     2.4483      Y:    -1.1898      Z:     1.0991

  Electronic Dipole Moment: (a.u.)
     X:    -2.3424      Y:     0.4321      Z:    -0.6577

  Dipole Moment: (a.u.)
     X:     0.1059      Y:    -0.7577      Z:     0.4414     Total:     0.8832

  Dipole Moment: (Debye)
     X:     0.2691      Y:    -1.9258      Z:     1.1220     Total:     2.2450

  Quadrupole Moment: (Debye Ang)
    XX:   -31.5160     YY:   -41.0059     ZZ:   -35.7046
    XY:     1.4234     XZ:     0.1240     YZ:    -0.1984

  Traceless Quadrupole Moment: (Debye Ang)
    XX:     4.5595     YY:    -4.9304     ZZ:     0.3709
    XY:     1.4234     XZ:     0.1240     YZ:    -0.1984

  Mulliken Charges: (a.u.)
   Center  Symbol    Alpha    Beta     Spin     Total
       1     O     4.27565  4.27565  0.00000 -0.55129
       2     C     2.62015  2.62015  0.00000  0.75969
       3     C     3.28153  3.28153  0.00000 -0.56306
       4     O     4.31027  4.31027  0.00000 -0.62054
       5     H     0.39868  0.39868  0.00000  0.20263
       6     H     0.39827  0.39827  0.00000  0.20347
       7     H     0.40297  0.40297  0.00000  0.19406
       8     C     3.00675  3.00675  0.00000 -0.01350
       9     C     3.26001  3.26001  0.00000 -0.52002
      10     H     0.40558  0.40558  0.00000  0.18885
      11     H     0.41853  0.41853  0.00000  0.16294
      12     H     0.42419  0.42419  0.00000  0.15162
      13     H     0.41628  0.41628  0.00000  0.16744
      14     H     0.38114  0.38114  0.00000  0.23772

   Total alpha = 24.00000, Total beta = 24.00000, Total charge =  0.00000


*** PSI4 exiting successfully. Buy a developer a beer!
