    -----------------------------------------------------------------------
          Psi4: An Open-Source Ab Initio Electronic Structure Package
                              Psi4 (no tag) Driver

                          Git: Rev {detached?}  

    J. M. Turney, A. C. Simmonett, R. M. Parrish, E. G. Hohenstein,
    F. A. Evangelista, J. T. Fermann, B. J. Mintz, L. A. Burns, J. J. Wilke,
    M. L. Abrams, N. J. Russ, M. L. Leininger, C. L. Janssen, E. T. Seidl,
    W. D. Allen, H. F. Schaefer, R. A. King, E. F. Valeev, C. D. Sherrill,
    and T. D. Crawford, WIREs Comput. Mol. Sci. 2, 556-565 (2012)
    (doi: 10.1002/wcms.93)

                         Additional Contributions by
    A. E. DePrince, M. Saitow, U. Bozkaya, A. Yu. Sokolov
    -----------------------------------------------------------------------


    Psi4 started on: Tue Jul  5 16:30:23 2016

    Process ID:  12604
    PSI4DATADIR: /export131/home/mjharvey/miniconda3/share
    Memory level set to 256.000 MB

  ==> Input File <==

--------------------------------------------------------------------------
set {
	reference rhf
	basis 6-31G*
}


set_num_threads( 1 )
memory 2 gb

molecule MOL {
0 1

H	 0.466481	 2.644633	 -0.365937
C	 0.557503	 1.679937	 -0.867300
N	 0.538815	 0.649616	 0.000000
O	 0.660176	 1.591772	 -2.055111
C	 1.521968	 -0.411503	 0.000000
H	 -0.192644	 0.624219	 0.672761
H	 2.150599	 -0.357004	 -0.881901
H	 0.999455	 -1.354525	 0.000000
H	 2.150599	 -0.357004	 0.881901

	symmetry c1
}
set optking {
	frozen_dihedral = ("
		6 3 5 7
	")
}

ee = energy('scf')
oeprop('DIPOLE', 'QUADRUPOLE', 'MULLIKEN_CHARGES')
f=open( 'psi4out.xyz', 'w' )
f.write( "9  " )
f.write( str(ee) + "\n" )
f.write( MOL.save_string_xyz() )
f.close()
--------------------------------------------------------------------------

  Memory set to   2.000 GiB by Python script.

*** tstart() called on cx1-1-4-3.cx1.hpc.ic.ac.uk
*** at Tue Jul  5 16:30:23 2016


         ---------------------------------------------------------
                                   SCF
            by Justin Turney, Rob Parrish, and Andy Simmonett
                              RHF Reference
                        1 Threads,   2000 MiB Core
         ---------------------------------------------------------

  ==> Geometry <==

    Molecular point group: c1
    Full point group: C1

    Geometry (in Angstrom), charge = 0, multiplicity = 1:

       Center              X                  Y                   Z               Mass       
    ------------   -----------------  -----------------  -----------------  -----------------
           H         -0.358022172942     1.780976319948     0.361905154137     1.007825032070
           C         -0.267000172942     0.816280319948    -0.139457845863    12.000000000000
           N         -0.285688172942    -0.214040680052     0.727842154137    14.003074004780
           O         -0.164327172942     0.728115319948    -1.327268845863    15.994914619560
           C          0.697464827058    -1.275159680052     0.727842154137    12.000000000000
           H         -1.017147172942    -0.239437680052     1.400603154137     1.007825032070
           H          1.326095827058    -1.220660680052    -0.154058845863     1.007825032070
           H          0.174951827058    -2.218181680052     0.727842154137     1.007825032070
           H          1.326095827058    -1.220660680052     1.609743154137     1.007825032070

  Running in c1 symmetry.

  Rotational constants: A =      0.74276  B =      0.18930  C =      0.16070 [cm^-1]
  Rotational constants: A =  22267.36938  B =   5674.99131  C =   4817.66131 [MHz]
  Nuclear repulsion =  121.829848258902814

  Charge       = 0
  Multiplicity = 1
  Electrons    = 32
  Nalpha       = 16
  Nbeta        = 16

  ==> Algorithm <==

  SCF Algorithm Type is DF.
  DIIS enabled.
  MOM disabled.
  Fractional occupation disabled.
  Guess Type is CORE.
  Energy threshold   = 1.00e-06
  Density threshold  = 1.00e-06
  Integral threshold = 0.00e+00

  ==> Primary Basis <==

  Basis Set: 6-31G*
    Number of shells: 34
    Number of basis function: 70
    Number of Cartesian functions: 70
    Spherical Harmonics?: false
    Max angular momentum: 2

  ==> Pre-Iterations <==

   -------------------------------------------------------
    Irrep   Nso     Nmo     Nalpha   Nbeta   Ndocc  Nsocc
   -------------------------------------------------------
     A         70      70       0       0       0       0
   -------------------------------------------------------
    Total      70      70      16      16      16       0
   -------------------------------------------------------

 OEINTS: Overlap, kinetic, potential, dipole, and quadrupole integrals
         stored in file 35.

  ==> Integral Setup <==

  ==> DFJK: Density-Fitted J/K Matrices <==

    J tasked:                  Yes
    K tasked:                  Yes
    wK tasked:                  No
    OpenMP threads:              1
    Integrals threads:           1
    Memory (MB):              1430
    Algorithm:                Core
    Integral Cache:           NONE
    Schwarz Cutoff:          1E-12
    Fitting Condition:       1E-12

   => Auxiliary Basis Set <=

  Basis Set: 
    Number of shells: 141
    Number of basis function: 449
    Number of Cartesian functions: 449
    Spherical Harmonics?: false
    Max angular momentum: 3

  Minimum eigenvalue in the overlap matrix is 4.9631478738E-03.
  Using Symmetric Orthogonalization.
  SCF Guess: Core (One-Electron) Hamiltonian.

  ==> Iterations <==

                           Total Energy        Delta E     RMS |[F,P]|

   @DF-RHF iter   1:  -166.75395643249055   -1.66754e+02   9.42840e-02 
   @DF-RHF iter   2:  -129.75463411665589    3.69993e+01   8.28953e-02 DIIS
   @DF-RHF iter   3:  -189.98468008022246   -6.02300e+01   5.38655e-02 DIIS
   @DF-RHF iter   4:  -207.22287827786158   -1.72382e+01   1.75885e-02 DIIS
   @DF-RHF iter   5:  -207.87892754579514   -6.56049e-01   5.09203e-03 DIIS
   @DF-RHF iter   6:  -207.93304434228816   -5.41168e-02   8.75879e-04 DIIS
   @DF-RHF iter   7:  -207.93536836636076   -2.32402e-03   3.13154e-04 DIIS
   @DF-RHF iter   8:  -207.93573161479418   -3.63248e-04   1.46601e-04 DIIS
   @DF-RHF iter   9:  -207.93580208185557   -7.04671e-05   6.68169e-05 DIIS
   @DF-RHF iter  10:  -207.93581833182276   -1.62500e-05   2.08644e-05 DIIS
   @DF-RHF iter  11:  -207.93581993129305   -1.59947e-06   8.29945e-06 DIIS
   @DF-RHF iter  12:  -207.93582013315859   -2.01866e-07   2.46592e-06 DIIS
   @DF-RHF iter  13:  -207.93582017399666   -4.08381e-08   1.00315e-06 DIIS
   @DF-RHF iter  14:  -207.93582018346837   -9.47171e-09   2.04437e-07 DIIS

  ==> Post-Iterations <==

    Orbital Energies (a.u.)
    -----------------------

    Doubly Occupied:                                                      

       1A    -20.542834     2A    -15.570111     3A    -11.345930  
       4A    -11.262806     5A     -1.396159     6A     -1.230597  
       7A     -0.964163     8A     -0.810779     9A     -0.735931  
      10A     -0.645010    11A     -0.639885    12A     -0.596815  
      13A     -0.559248    14A     -0.519117    15A     -0.431372  
      16A     -0.381892  

    Virtual:                                                              

      17A      0.178849    18A      0.232119    19A      0.270517  
      20A      0.289801    21A      0.317951    22A      0.318809  
      23A      0.384638    24A      0.456782    25A      0.577438  
      26A      0.710134    27A      0.720984    28A      0.779555  
      29A      0.809889    30A      0.879943    31A      0.939629  
      32A      0.984312    33A      1.034964    34A      1.065699  
      35A      1.113277    36A      1.117826    37A      1.146270  
      38A      1.181009    39A      1.206639    40A      1.221612  
      41A      1.305283    42A      1.321804    43A      1.341360  
      44A      1.420939    45A      1.552680    46A      1.684775  
      47A      1.805069    48A      1.838372    49A      1.901737  
      50A      2.041103    51A      2.145468    52A      2.155075  
      53A      2.269060    54A      2.288638    55A      2.365946  
      56A      2.433620    57A      2.477561    58A      2.595688  
      59A      2.660658    60A      2.782323    61A      2.826059  
      62A      2.925780    63A      3.045576    64A      3.155794  
      65A      3.320884    66A      3.440538    67A      4.283296  
      68A      4.323193    69A      4.589570    70A      4.717390  

    Final Occupation by Irrep:
              A 
    DOCC [    16 ]

  Energy converged.

  @DF-RHF Final Energy:  -207.93582018346837

   => Energetics <=

    Nuclear Repulsion Energy =            121.8298482589028140
    One-Electron Energy =                -524.2660569077074797
    Two-Electron Energy =                 194.5003884653362434
    DFT Exchange-Correlation Energy =       0.0000000000000000
    Empirical Dispersion Energy =           0.0000000000000000
    PCM Polarization Energy =               0.0000000000000000
    EFP Energy =                            0.0000000000000000
    Total Energy =                       -207.9358201834684223

    Alert: EFP and PCM quantities not currently incorporated into SCF psivars.

Properties will be evaluated at   0.000000,   0.000000,   0.000000 Bohr
  ==> Properties <==


Properties computed using the SCF density matrix

  Nuclear Dipole Moment: (a.u.)
     X:     1.3612      Y:    -2.9189      Z:     3.6908

  Electronic Dipole Moment: (a.u.)
     X:    -1.4347      Y:     2.6035      Z:    -2.2723

  Dipole Moment: (a.u.)
     X:    -0.0735      Y:    -0.3153      Z:     1.4184     Total:     1.4549

  Dipole Moment: (Debye)
     X:    -0.1867      Y:    -0.8015      Z:     3.6053     Total:     3.6981


  Saving occupied orbitals to File 180.

*** tstop() called on cx1-1-4-3.cx1.hpc.ic.ac.uk at Tue Jul  5 16:30:26 2016
Module time:
	user time   =       2.36 seconds =       0.04 minutes
	system time =       0.03 seconds =       0.00 minutes
	total time  =          3 seconds =       0.05 minutes
Total time:
	user time   =       2.36 seconds =       0.04 minutes
	system time =       0.03 seconds =       0.00 minutes
	total time  =          3 seconds =       0.05 minutes


Properties will be evaluated at   0.000000,   0.000000,   0.000000 Bohr

Properties computed using the  density matrix

  Nuclear Dipole Moment: (a.u.)
     X:     1.3612      Y:    -2.9189      Z:     3.6908

  Electronic Dipole Moment: (a.u.)
     X:    -1.4347      Y:     2.6035      Z:    -2.2723

  Dipole Moment: (a.u.)
     X:    -0.0735      Y:    -0.3153      Z:     1.4184     Total:     1.4549

  Dipole Moment: (Debye)
     X:    -0.1867      Y:    -0.8015      Z:     3.6053     Total:     3.6981

  Quadrupole Moment: (Debye Ang)
    XX:   -22.2432     YY:   -22.8240     ZZ:   -27.3144
    XY:    -0.9465     XZ:    -1.9221     YZ:     1.3931

  Traceless Quadrupole Moment: (Debye Ang)
    XX:     1.8840     YY:     1.3032     ZZ:    -3.1871
    XY:    -0.9465     XZ:    -1.9221     YZ:     1.3931

  Mulliken Charges: (a.u.)
   Center  Symbol    Alpha    Beta     Spin     Total
       1     H     0.43007  0.43007  0.00000  0.13986
       2     C     2.75589  2.75589  0.00000  0.48821
       3     N     3.88556  3.88556  0.00000 -0.77111
       4     O     4.25491  4.25491  0.00000 -0.50982
       5     C     3.13796  3.13796  0.00000 -0.27592
       6     H     0.30879  0.30879  0.00000  0.38242
       7     H     0.39668  0.39668  0.00000  0.20664
       8     H     0.41357  0.41357  0.00000  0.17285
       9     H     0.41657  0.41657  0.00000  0.16687

   Total alpha = 16.00000, Total beta = 16.00000, Total charge = -0.00000


*** PSI4 exiting successfully. Buy a developer a beer!
