    -----------------------------------------------------------------------
          Psi4: An Open-Source Ab Initio Electronic Structure Package
                              Psi4 (no tag) Driver

                          Git: Rev {detached?}  

    J. M. Turney, A. C. Simmonett, R. M. Parrish, E. G. Hohenstein,
    F. A. Evangelista, J. T. Fermann, B. J. Mintz, L. A. Burns, J. J. Wilke,
    M. L. Abrams, N. J. Russ, M. L. Leininger, C. L. Janssen, E. T. Seidl,
    W. D. Allen, H. F. Schaefer, R. A. King, E. F. Valeev, C. D. Sherrill,
    and T. D. Crawford, WIREs Comput. Mol. Sci. 2, 556-565 (2012)
    (doi: 10.1002/wcms.93)

                         Additional Contributions by
    A. E. DePrince, M. Saitow, U. Bozkaya, A. Yu. Sokolov
    -----------------------------------------------------------------------


    Psi4 started on: Tue Jul  5 16:58:06 2016

    Process ID:  11533
    PSI4DATADIR: /export131/home/mjharvey/miniconda3/share
    Memory level set to 256.000 MB

  ==> Input File <==

--------------------------------------------------------------------------
set {
	reference rhf
	basis 6-31G*
}


set_num_threads( 1 )
memory 2 gb

molecule MOL {
0 1

O	 -2.042549	 -1.228399	 -0.269030
C	 -1.653912	 -0.146171	 0.050137
C	 -0.332303	 0.024011	 0.778412
C	 -2.438579	 1.106236	 -0.272369
C	 0.640195	 0.885441	 -0.042599
H	 -0.490354	 0.473358	 1.754880
H	 0.092248	 -0.963064	 0.924568
C	 1.110022	 0.188064	 -1.320080
H	 1.506358	 1.142767	 0.564547
H	 0.147476	 1.819978	 -0.293617
C	 -0.041119	 -0.424896	 -2.116549
H	 1.644055	 0.900257	 -1.945394
H	 1.825139	 -0.589152	 -1.061022
H	 -0.756837	 0.333963	 -2.419754
H	 -0.574180	 -1.165364	 -1.527486
H	 0.321609	 -0.914744	 -3.014604
H	 -3.277823	 0.863061	 -0.908988
H	 -1.806773	 1.843019	 -0.759671
H	 -2.802853	 1.554979	 0.648059

	symmetry c1
}
set optking {
	frozen_dihedral = ("
		11 8 5 9,
		9 5 3 2
	")
}

ee = energy('scf')
oeprop('DIPOLE', 'QUADRUPOLE', 'MULLIKEN_CHARGES')
f=open( 'psi4out.xyz', 'w' )
f.write( "19  " )
f.write( str(ee) + "\n" )
f.write( MOL.save_string_xyz() )
f.close()
--------------------------------------------------------------------------

  Memory set to   2.000 GiB by Python script.

*** tstart() called on cx1-1-2-2.cx1.hpc.ic.ac.uk
*** at Tue Jul  5 16:58:06 2016


         ---------------------------------------------------------
                                   SCF
            by Justin Turney, Rob Parrish, and Andy Simmonett
                              RHF Reference
                        1 Threads,   2000 MiB Core
         ---------------------------------------------------------

  ==> Geometry <==

    Molecular point group: c1
    Full point group: C1

    Geometry (in Angstrom), charge = 0, multiplicity = 1:

       Center              X                  Y                   Z               Mass       
    ------------   -----------------  -----------------  -----------------  -----------------
           O         -1.348532097278    -1.281198168167     0.205359383643    15.994914619560
           C         -0.959895097278    -0.198970168167     0.524526383643    12.000000000000
           C          0.361713902722    -0.028788168167     1.252801383643    12.000000000000
           C         -1.744562097278     1.053436831833     0.202020383643    12.000000000000
           C          1.334211902722     0.832641831833     0.431790383643    12.000000000000
           H          0.203662902722     0.420558831833     2.229269383643     1.007825032070
           H          0.786264902722    -1.015863168167     1.398957383643     1.007825032070
           C          1.804038902722     0.135264831833    -0.845690616357    12.000000000000
           H          2.200374902722     1.089967831833     1.038936383643     1.007825032070
           H          0.841492902722     1.767178831833     0.180772383643     1.007825032070
           C          0.652897902722    -0.477695168167    -1.642159616357    12.000000000000
           H          2.338071902722     0.847457831833    -1.471004616357     1.007825032070
           H          2.519155902722    -0.641951168167    -0.586632616357     1.007825032070
           H         -0.062820097278     0.281163831833    -1.945364616357     1.007825032070
           H          0.119836902722    -1.218163168167    -1.053096616357     1.007825032070
           H          1.015625902722    -0.967543168167    -2.540214616357     1.007825032070
           H         -2.583806097278     0.810261831833    -0.434598616357     1.007825032070
           H         -1.112756097278     1.790219831833    -0.285281616357     1.007825032070
           H         -2.108836097278     1.502179831833     1.122448383643     1.007825032070

  Running in c1 symmetry.

  Rotational constants: A =      0.11907  B =      0.06934  C =      0.06024 [cm^-1]
  Rotational constants: A =   3569.72590  B =   2078.79934  C =   1806.06228 [MHz]
  Nuclear repulsion =  325.117973988523715

  Charge       = 0
  Multiplicity = 1
  Electrons    = 56
  Nalpha       = 28
  Nbeta        = 28

  ==> Algorithm <==

  SCF Algorithm Type is DF.
  DIIS enabled.
  MOM disabled.
  Fractional occupation disabled.
  Guess Type is CORE.
  Energy threshold   = 1.00e-06
  Density threshold  = 1.00e-06
  Integral threshold = 0.00e+00

  ==> Primary Basis <==

  Basis Set: 6-31G*
    Number of shells: 66
    Number of basis function: 129
    Number of Cartesian functions: 129
    Spherical Harmonics?: false
    Max angular momentum: 2

  ==> Pre-Iterations <==

   -------------------------------------------------------
    Irrep   Nso     Nmo     Nalpha   Nbeta   Ndocc  Nsocc
   -------------------------------------------------------
     A        129     129       0       0       0       0
   -------------------------------------------------------
    Total     129     129      28      28      28       0
   -------------------------------------------------------

 OEINTS: Overlap, kinetic, potential, dipole, and quadrupole integrals
         stored in file 35.

  ==> Integral Setup <==

  ==> DFJK: Density-Fitted J/K Matrices <==

    J tasked:                  Yes
    K tasked:                  Yes
    wK tasked:                  No
    OpenMP threads:              1
    Integrals threads:           1
    Memory (MB):              1430
    Algorithm:                Core
    Integral Cache:           NONE
    Schwarz Cutoff:          1E-12
    Fitting Condition:       1E-12

   => Auxiliary Basis Set <=

  Basis Set: 
    Number of shells: 276
    Number of basis function: 867
    Number of Cartesian functions: 867
    Spherical Harmonics?: false
    Max angular momentum: 3

  Minimum eigenvalue in the overlap matrix is 3.1181404519E-03.
  Using Symmetric Orthogonalization.
  SCF Guess: Core (One-Electron) Hamiltonian.

  ==> Iterations <==

                           Total Energy        Delta E     RMS |[F,P]|

   @DF-RHF iter   1:  -239.94795931188077   -2.39948e+02   6.94800e-02 
   @DF-RHF iter   2:  -221.72605831034542    1.82219e+01   5.59289e-02 DIIS
   @DF-RHF iter   3:  -267.39603440127502   -4.56700e+01   5.00300e-02 DIIS
   @DF-RHF iter   4:  -306.35076111224970   -3.89547e+01   1.60835e-02 DIIS
   @DF-RHF iter   5:  -308.26130398177446   -1.91054e+00   9.96119e-03 DIIS
   @DF-RHF iter   6:  -308.98408044056640   -7.22776e-01   2.68838e-03 DIIS
   @DF-RHF iter   7:  -309.03363886959511   -4.95584e-02   8.11230e-04 DIIS
   @DF-RHF iter   8:  -309.04032163371227   -6.68276e-03   1.97040e-04 DIIS
   @DF-RHF iter   9:  -309.04086446585239   -5.42832e-04   5.64739e-05 DIIS
   @DF-RHF iter  10:  -309.04092124800997   -5.67822e-05   1.63177e-05 DIIS
   @DF-RHF iter  11:  -309.04092540338837   -4.15538e-06   6.24918e-06 DIIS
   @DF-RHF iter  12:  -309.04092610805407   -7.04666e-07   2.19702e-06 DIIS
   @DF-RHF iter  13:  -309.04092623822913   -1.30175e-07   8.09460e-07 DIIS

  ==> Post-Iterations <==

    Orbital Energies (a.u.)
    -----------------------

    Doubly Occupied:                                                      

       1A    -20.546156     2A    -11.328157     3A    -11.231333  
       4A    -11.230439     5A    -11.229270     6A    -11.219426  
       7A    -11.196482     8A     -1.398567     9A     -1.097636  
      10A     -1.022115    11A     -0.979861    12A     -0.900048  
      13A     -0.798615    14A     -0.735135    15A     -0.663746  
      16A     -0.655488    17A     -0.627806    18A     -0.608710  
      19A     -0.586909    20A     -0.565673    21A     -0.548799  
      22A     -0.544624    23A     -0.518437    24A     -0.511277  
      25A     -0.477683    26A     -0.465929    27A     -0.437484  
      28A     -0.400298  

    Virtual:                                                              

      29A      0.157613    30A      0.215878    31A      0.260535  
      32A      0.274296    33A      0.281576    34A      0.294615  
      35A      0.305058    36A      0.324123    37A      0.334151  
      38A      0.339268    39A      0.347580    40A      0.377965  
      41A      0.383103    42A      0.402613    43A      0.407693  
      44A      0.424627    45A      0.458082    46A      0.499284  
      47A      0.543868    48A      0.705510    49A      0.707450  
      50A      0.732227    51A      0.744862    52A      0.775173  
      53A      0.794061    54A      0.822734    55A      0.867703  
      56A      0.894487    57A      0.918322    58A      0.939869  
      59A      0.960663    60A      0.972104    61A      0.991996  
      62A      1.011917    63A      1.037244    64A      1.070785  
      65A      1.113085    66A      1.119703    67A      1.141864  
      68A      1.152247    69A      1.169176    70A      1.188444  
      71A      1.196261    72A      1.213993    73A      1.226112  
      74A      1.240344    75A      1.251260    76A      1.257469  
      77A      1.275538    78A      1.310724    79A      1.343363  
      80A      1.382322    81A      1.455341    82A      1.501711  
      83A      1.519155    84A      1.630160    85A      1.655694  
      86A      1.753718    87A      1.797971    88A      1.865380  
      89A      1.898444    90A      1.947820    91A      1.988720  
      92A      2.043043    93A      2.062931    94A      2.090869  
      95A      2.125281    96A      2.167329    97A      2.209752  
      98A      2.272241    99A      2.278119   100A      2.299662  
     101A      2.320902   102A      2.326811   103A      2.415173  
     104A      2.445490   105A      2.463024   106A      2.510840  
     107A      2.580734   108A      2.642758   109A      2.644931  
     110A      2.691999   111A      2.694820   112A      2.739765  
     113A      2.752630   114A      2.779360   115A      2.867317  
     116A      2.962234   117A      2.991707   118A      2.998851  
     119A      3.088682   120A      3.117683   121A      3.379752  
     122A      3.390447   123A      4.536059   124A      4.561208  
     125A      4.641894   126A      4.760607   127A      4.813443  
     128A      4.966047   129A      5.037476  

    Final Occupation by Irrep:
              A 
    DOCC [    28 ]

  Energy converged.

  @DF-RHF Final Energy:  -309.04092623822913

   => Energetics <=

    Nuclear Repulsion Energy =            325.1179739885237154
    One-Electron Energy =               -1063.2659136946824674
    Two-Electron Energy =                 429.1070134679291641
    DFT Exchange-Correlation Energy =       0.0000000000000000
    Empirical Dispersion Energy =           0.0000000000000000
    PCM Polarization Energy =               0.0000000000000000
    EFP Energy =                            0.0000000000000000
    Total Energy =                       -309.0409262382295310

    Alert: EFP and PCM quantities not currently incorporated into SCF psivars.

Properties will be evaluated at   0.000000,   0.000000,   0.000000 Bohr
  ==> Properties <==


Properties computed using the SCF density matrix

  Nuclear Dipole Moment: (a.u.)
     X:     3.8899      Y:     4.3676      Z:    -2.1981

  Electronic Dipole Moment: (a.u.)
     X:    -3.4707      Y:    -3.3140      Z:     2.5449

  Dipole Moment: (a.u.)
     X:     0.4192      Y:     1.0536      Z:     0.3468     Total:     1.1858

  Dipole Moment: (Debye)
     X:     1.0654      Y:     2.6780      Z:     0.8815     Total:     3.0140


  Saving occupied orbitals to File 180.

*** tstop() called on cx1-1-2-2.cx1.hpc.ic.ac.uk at Tue Jul  5 16:58:18 2016
Module time:
	user time   =      10.65 seconds =       0.18 minutes
	system time =       0.06 seconds =       0.00 minutes
	total time  =         12 seconds =       0.20 minutes
Total time:
	user time   =      10.65 seconds =       0.18 minutes
	system time =       0.06 seconds =       0.00 minutes
	total time  =         12 seconds =       0.20 minutes


Properties will be evaluated at   0.000000,   0.000000,   0.000000 Bohr

Properties computed using the  density matrix

  Nuclear Dipole Moment: (a.u.)
     X:     3.8899      Y:     4.3676      Z:    -2.1981

  Electronic Dipole Moment: (a.u.)
     X:    -3.4707      Y:    -3.3140      Z:     2.5449

  Dipole Moment: (a.u.)
     X:     0.4192      Y:     1.0536      Z:     0.3468     Total:     1.1858

  Dipole Moment: (Debye)
     X:     1.0654      Y:     2.6780      Z:     0.8815     Total:     3.0140

  Quadrupole Moment: (Debye Ang)
    XX:   -46.2813     YY:   -48.1807     ZZ:   -43.9614
    XY:    -4.5261     XZ:    -0.1111     YZ:     0.4987

  Traceless Quadrupole Moment: (Debye Ang)
    XX:    -0.1402     YY:    -2.0396     ZZ:     2.1798
    XY:    -4.5261     XZ:    -0.1111     YZ:     0.4987

  Mulliken Charges: (a.u.)
   Center  Symbol    Alpha    Beta     Spin     Total
       1     O     4.26750  4.26750  0.00000 -0.53500
       2     C     2.73584  2.73584  0.00000  0.52831
       3     C     3.20282  3.20282  0.00000 -0.40565
       4     C     3.28770  3.28770  0.00000 -0.57539
       5     C     3.16938  3.16938  0.00000 -0.33875
       6     H     0.40737  0.40737  0.00000  0.18526
       7     H     0.39956  0.39956  0.00000  0.20088
       8     C     3.14799  3.14799  0.00000 -0.29598
       9     H     0.41266  0.41266  0.00000  0.17469
      10     H     0.42031  0.42031  0.00000  0.15939
      11     C     3.27645  3.27645  0.00000 -0.55289
      12     H     0.42013  0.42013  0.00000  0.15974
      13     H     0.41993  0.41993  0.00000  0.16014
      14     H     0.42597  0.42597  0.00000  0.14806
      15     H     0.38070  0.38070  0.00000  0.23860
      16     H     0.41641  0.41641  0.00000  0.16718
      17     H     0.39552  0.39552  0.00000  0.20896
      18     H     0.40704  0.40704  0.00000  0.18592
      19     H     0.40673  0.40673  0.00000  0.18654

   Total alpha = 28.00000, Total beta = 28.00000, Total charge = -0.00000


*** PSI4 exiting successfully. Buy a developer a beer!
