    -----------------------------------------------------------------------
          Psi4: An Open-Source Ab Initio Electronic Structure Package
                              Psi4 (no tag) Driver

                          Git: Rev {detached?}  

    J. M. Turney, A. C. Simmonett, R. M. Parrish, E. G. Hohenstein,
    F. A. Evangelista, J. T. Fermann, B. J. Mintz, L. A. Burns, J. J. Wilke,
    M. L. Abrams, N. J. Russ, M. L. Leininger, C. L. Janssen, E. T. Seidl,
    W. D. Allen, H. F. Schaefer, R. A. King, E. F. Valeev, C. D. Sherrill,
    and T. D. Crawford, WIREs Comput. Mol. Sci. 2, 556-565 (2012)
    (doi: 10.1002/wcms.93)

                         Additional Contributions by
    A. E. DePrince, M. Saitow, U. Bozkaya, A. Yu. Sokolov
    -----------------------------------------------------------------------


    Psi4 started on: Tue Jul  5 16:53:41 2016

    Process ID:   5767
    PSI4DATADIR: /export131/home/mjharvey/miniconda3/share
    Memory level set to 256.000 MB

  ==> Input File <==

--------------------------------------------------------------------------
set {
	reference rhf
	basis 6-31G*
}


set_num_threads( 1 )
memory 2 gb

molecule MOL {
0 1

O	 -0.488453	 0.057968	 1.132425
C	 -0.451170	 -1.129930	 1.097049
C	 0.801727	 -1.959116	 0.945507
O	 -1.528589	 -1.897310	 1.185968
C	 1.124911	 -2.785238	 2.184071
H	 1.613075	 -1.280220	 0.700432
H	 0.669725	 -2.590969	 0.072237
H	 1.272053	 -2.149836	 3.048928
H	 2.030738	 -3.360307	 2.024106
H	 0.320287	 -3.472711	 2.414906
C	 -2.062329	 -2.133961	 2.484628
C	 -1.071018	 -3.000903	 3.231639
H	 -3.023952	 -2.619171	 2.387484
H	 -2.217113	 -1.185403	 2.980480
H	 -0.922892	 -3.944770	 2.719455
H	 -1.440024	 -3.206726	 4.231199
H	 -0.111603	 -2.503214	 3.315808

	symmetry c1
}
set optking {
	frozen_dihedral = ("
		2 4 11 13,
		4 2 3 6
	")
}

ee = energy('scf')
oeprop('DIPOLE', 'QUADRUPOLE', 'MULLIKEN_CHARGES')
f=open( 'psi4out.xyz', 'w' )
f.write( "17  " )
f.write( str(ee) + "\n" )
f.write( MOL.save_string_xyz() )
f.close()
--------------------------------------------------------------------------

  Memory set to   2.000 GiB by Python script.

*** tstart() called on cx1-3-16-4.cx1.hpc.ic.ac.uk
*** at Tue Jul  5 16:53:42 2016


         ---------------------------------------------------------
                                   SCF
            by Justin Turney, Rob Parrish, and Andy Simmonett
                              RHF Reference
                        1 Threads,   2000 MiB Core
         ---------------------------------------------------------

  ==> Geometry <==

    Molecular point group: c1
    Full point group: C1

    Geometry (in Angstrom), charge = 0, multiplicity = 1:

       Center              X                  Y                   Z               Mass       
    ------------   -----------------  -----------------  -----------------  -----------------
           O          0.040417826358     1.900357165004    -0.635799123380    15.994914619560
           C          0.077700826358     0.712459165004    -0.671175123380    12.000000000000
           C          1.330597826358    -0.116726834996    -0.822717123380    12.000000000000
           O         -0.999718173642    -0.054920834996    -0.582256123380    15.994914619560
           C          1.653781826358    -0.942848834996     0.415846876620    12.000000000000
           H          2.141945826358     0.562169165004    -1.067792123380     1.007825032070
           H          1.198595826358    -0.748579834996    -1.695987123380     1.007825032070
           H          1.800923826358    -0.307446834996     1.280703876620     1.007825032070
           H          2.559608826358    -1.517917834996     0.255881876620     1.007825032070
           H          0.849157826358    -1.630321834996     0.646681876620     1.007825032070
           C         -1.533458173642    -0.291571834996     0.716403876620    12.000000000000
           C         -0.542147173642    -1.158513834996     1.463414876620    12.000000000000
           H         -2.495081173642    -0.776781834996     0.619259876620     1.007825032070
           H         -1.688242173642     0.656986165004     1.212255876620     1.007825032070
           H         -0.394021173642    -2.102380834996     0.951230876620     1.007825032070
           H         -0.911153173642    -1.364336834996     2.462974876620     1.007825032070
           H          0.417267826358    -0.660824834996     1.547583876620     1.007825032070

  Running in c1 symmetry.

  Rotational constants: A =      0.10822  B =      0.09327  C =      0.05889 [cm^-1]
  Rotational constants: A =   3244.29999  B =   2796.14123  C =   1765.57241 [MHz]
  Nuclear repulsion =  334.968080100348004

  Charge       = 0
  Multiplicity = 1
  Electrons    = 56
  Nalpha       = 28
  Nbeta        = 28

  ==> Algorithm <==

  SCF Algorithm Type is DF.
  DIIS enabled.
  MOM disabled.
  Fractional occupation disabled.
  Guess Type is CORE.
  Energy threshold   = 1.00e-06
  Density threshold  = 1.00e-06
  Integral threshold = 0.00e+00

  ==> Primary Basis <==

  Basis Set: 6-31G*
    Number of shells: 62
    Number of basis function: 125
    Number of Cartesian functions: 125
    Spherical Harmonics?: false
    Max angular momentum: 2

  ==> Pre-Iterations <==

   -------------------------------------------------------
    Irrep   Nso     Nmo     Nalpha   Nbeta   Ndocc  Nsocc
   -------------------------------------------------------
     A        125     125       0       0       0       0
   -------------------------------------------------------
    Total     125     125      28      28      28       0
   -------------------------------------------------------

 OEINTS: Overlap, kinetic, potential, dipole, and quadrupole integrals
         stored in file 35.

  ==> Integral Setup <==

  ==> DFJK: Density-Fitted J/K Matrices <==

    J tasked:                  Yes
    K tasked:                  Yes
    wK tasked:                  No
    OpenMP threads:              1
    Integrals threads:           1
    Memory (MB):              1430
    Algorithm:                Core
    Integral Cache:           NONE
    Schwarz Cutoff:          1E-12
    Fitting Condition:       1E-12

   => Auxiliary Basis Set <=

  Basis Set: 
    Number of shells: 258
    Number of basis function: 817
    Number of Cartesian functions: 817
    Spherical Harmonics?: false
    Max angular momentum: 3

  Minimum eigenvalue in the overlap matrix is 3.3028073563E-03.
  Using Symmetric Orthogonalization.
  SCF Guess: Core (One-Electron) Hamiltonian.

  ==> Iterations <==

                           Total Energy        Delta E     RMS |[F,P]|

   @DF-RHF iter   1:  -266.14107336799015   -2.66141e+02   7.41129e-02 
   @DF-RHF iter   2:  -218.07380477395947    4.80673e+01   6.77505e-02 DIIS
   @DF-RHF iter   3:  -303.92326420973887   -8.58495e+01   4.50283e-02 DIIS
   @DF-RHF iter   4:  -326.67377390658936   -2.27505e+01   3.34439e-02 DIIS
   @DF-RHF iter   5:  -342.47506875122548   -1.58013e+01   1.80791e-02 DIIS
   @DF-RHF iter   6:  -344.68665947464257   -2.21159e+00   3.87390e-03 DIIS
   @DF-RHF iter   7:  -344.76736483366807   -8.07054e-02   1.17847e-03 DIIS
   @DF-RHF iter   8:  -344.77857690715535   -1.12121e-02   3.75060e-04 DIIS
   @DF-RHF iter   9:  -344.78010882728182   -1.53192e-03   9.51033e-05 DIIS
   @DF-RHF iter  10:  -344.78027014227399   -1.61315e-04   4.08259e-05 DIIS
   @DF-RHF iter  11:  -344.78029695032188   -2.68080e-05   1.70976e-05 DIIS
   @DF-RHF iter  12:  -344.78030211160382   -5.16128e-06   5.04505e-06 DIIS
   @DF-RHF iter  13:  -344.78030268805145   -5.76448e-07   1.68336e-06 DIIS
   @DF-RHF iter  14:  -344.78030274397810   -5.59266e-08   5.17319e-07 DIIS

  ==> Post-Iterations <==

    Orbital Energies (a.u.)
    -----------------------

    Doubly Occupied:                                                      

       1A    -20.583692     2A    -20.553517     3A    -11.372480  
       4A    -11.297652     5A    -11.237460     6A    -11.216787  
       7A    -11.216203     8A     -1.463492     9A     -1.365762  
      10A     -1.083965    11A     -1.056320    12A     -0.912129  
      13A     -0.894867    14A     -0.763068    15A     -0.708836  
      16A     -0.678283    17A     -0.669118    18A     -0.647932  
      19A     -0.639485    20A     -0.587645    21A     -0.572667  
      22A     -0.561686    23A     -0.525179    24A     -0.500114  
      25A     -0.479893    26A     -0.451384    27A     -0.441946  
      28A     -0.431742  

    Virtual:                                                              

      29A      0.171588    30A      0.231739    31A      0.254822  
      32A      0.263634    33A      0.276008    34A      0.306109  
      35A      0.310350    36A      0.323024    37A      0.332793  
      38A      0.346797    39A      0.349148    40A      0.370538  
      41A      0.414040    42A      0.443644    43A      0.520211  
      44A      0.538226    45A      0.578625    46A      0.691347  
      47A      0.710634    48A      0.732106    49A      0.765833  
      50A      0.779646    51A      0.809949    52A      0.828872  
      53A      0.848618    54A      0.887997    55A      0.909887  
      56A      0.931374    57A      0.982337    58A      0.996125  
      59A      1.030167    60A      1.062396    61A      1.097769  
      62A      1.116872    63A      1.136384    64A      1.141202  
      65A      1.155085    66A      1.165875    67A      1.189574  
      68A      1.195081    69A      1.212263    70A      1.253557  
      71A      1.269978    72A      1.277758    73A      1.298333  
      74A      1.351987    75A      1.371793    76A      1.423463  
      77A      1.440997    78A      1.493350    79A      1.596633  
      80A      1.616734    81A      1.682624    82A      1.752500  
      83A      1.842006    84A      1.918906    85A      1.939537  
      86A      1.964711    87A      2.011856    88A      2.032768  
      89A      2.060850    90A      2.113922    91A      2.143384  
      92A      2.187123    93A      2.198485    94A      2.247530  
      95A      2.259054    96A      2.282887    97A      2.315558  
      98A      2.345231    99A      2.395068   100A      2.457559  
     101A      2.469883   102A      2.571469   103A      2.587316  
     104A      2.626079   105A      2.653363   106A      2.671115  
     107A      2.717628   108A      2.776831   109A      2.811174  
     110A      2.875307   111A      2.917445   112A      2.971031  
     113A      3.024017   114A      3.193430   115A      3.227654  
     116A      3.323852   117A      3.384741   118A      3.498877  
     119A      4.433011   120A      4.547790   121A      4.622112  
     122A      4.731452   123A      4.799201   124A      4.910397  
     125A      5.015055  

    Final Occupation by Irrep:
              A 
    DOCC [    28 ]

  Energy converged.

  @DF-RHF Final Energy:  -344.78030274397810

   => Energetics <=

    Nuclear Repulsion Energy =            334.9680801003480042
    One-Electron Energy =               -1133.6700853674906284
    Two-Electron Energy =                 453.9217025231649814
    DFT Exchange-Correlation Energy =       0.0000000000000000
    Empirical Dispersion Energy =           0.0000000000000000
    PCM Polarization Energy =               0.0000000000000000
    EFP Energy =                            0.0000000000000000
    Total Energy =                       -344.7803027439775860

    Alert: EFP and PCM quantities not currently incorporated into SCF psivars.

Properties will be evaluated at   0.000000,   0.000000,   0.000000 Bohr
  ==> Properties <==


Properties computed using the SCF density matrix

  Nuclear Dipole Moment: (a.u.)
     X:     3.2568      Y:    -7.3872      Z:     5.8185

  Electronic Dipole Moment: (a.u.)
     X:    -3.0884      Y:     6.1576      Z:    -5.1235

  Dipole Moment: (a.u.)
     X:     0.1685      Y:    -1.2296      Z:     0.6950     Total:     1.4225

  Dipole Moment: (Debye)
     X:     0.4283      Y:    -3.1255      Z:     1.7665     Total:     3.6156


  Saving occupied orbitals to File 180.

*** tstop() called on cx1-3-16-4.cx1.hpc.ic.ac.uk at Tue Jul  5 16:53:53 2016
Module time:
	user time   =      10.91 seconds =       0.18 minutes
	system time =       0.08 seconds =       0.00 minutes
	total time  =         11 seconds =       0.18 minutes
Total time:
	user time   =      10.91 seconds =       0.18 minutes
	system time =       0.08 seconds =       0.00 minutes
	total time  =         11 seconds =       0.18 minutes


Properties will be evaluated at   0.000000,   0.000000,   0.000000 Bohr

Properties computed using the  density matrix

  Nuclear Dipole Moment: (a.u.)
     X:     3.2568      Y:    -7.3872      Z:     5.8185

  Electronic Dipole Moment: (a.u.)
     X:    -3.0884      Y:     6.1576      Z:    -5.1235

  Dipole Moment: (a.u.)
     X:     0.1685      Y:    -1.2296      Z:     0.6950     Total:     1.4225

  Dipole Moment: (Debye)
     X:     0.4283      Y:    -3.1255      Z:     1.7665     Total:     3.6156

  Quadrupole Moment: (Debye Ang)
    XX:   -41.6403     YY:   -49.8260     ZZ:   -42.3259
    XY:     0.3980     XZ:    -2.8849     YZ:     1.4424

  Traceless Quadrupole Moment: (Debye Ang)
    XX:     2.9571     YY:    -5.2286     ZZ:     2.2715
    XY:     0.3980     XZ:    -2.8849     YZ:     1.4424

  Mulliken Charges: (a.u.)
   Center  Symbol    Alpha    Beta     Spin     Total
       1     O     4.26071  4.26071  0.00000 -0.52142
       2     C     2.63223  2.63223  0.00000  0.73555
       3     C     3.18618  3.18618  0.00000 -0.37235
       4     O     4.31298  4.31298  0.00000 -0.62597
       5     C     3.28339  3.28339  0.00000 -0.56679
       6     H     0.40022  0.40022  0.00000  0.19956
       7     H     0.40190  0.40190  0.00000  0.19620
       8     H     0.40373  0.40373  0.00000  0.19254
       9     H     0.41131  0.41131  0.00000  0.17739
      10     H     0.39815  0.39815  0.00000  0.20369
      11     C     3.00121  3.00121  0.00000 -0.00241
      12     C     3.28517  3.28517  0.00000 -0.57033
      13     H     0.40338  0.40338  0.00000  0.19325
      14     H     0.40602  0.40602  0.00000  0.18797
      15     H     0.40145  0.40145  0.00000  0.19710
      16     H     0.41455  0.41455  0.00000  0.17090
      17     H     0.39743  0.39743  0.00000  0.20514

   Total alpha = 28.00000, Total beta = 28.00000, Total charge = -0.00000


*** PSI4 exiting successfully. Buy a developer a beer!
