    -----------------------------------------------------------------------
          Psi4: An Open-Source Ab Initio Electronic Structure Package
                              Psi4 (no tag) Driver

                          Git: Rev {detached?}  

    J. M. Turney, A. C. Simmonett, R. M. Parrish, E. G. Hohenstein,
    F. A. Evangelista, J. T. Fermann, B. J. Mintz, L. A. Burns, J. J. Wilke,
    M. L. Abrams, N. J. Russ, M. L. Leininger, C. L. Janssen, E. T. Seidl,
    W. D. Allen, H. F. Schaefer, R. A. King, E. F. Valeev, C. D. Sherrill,
    and T. D. Crawford, WIREs Comput. Mol. Sci. 2, 556-565 (2012)
    (doi: 10.1002/wcms.93)

                         Additional Contributions by
    A. E. DePrince, M. Saitow, U. Bozkaya, A. Yu. Sokolov
    -----------------------------------------------------------------------


    Psi4 started on: Tue Jul  5 16:50:55 2016

    Process ID:  26467
    PSI4DATADIR: /export131/home/mjharvey/miniconda3/share
    Memory level set to 256.000 MB

  ==> Input File <==

--------------------------------------------------------------------------
set {
	reference rhf
	basis 6-31G*
}


set_num_threads( 1 )
memory 2 gb

molecule MOL {
0 1

H	 1.585952	 -4.568302	 3.399427
C	 1.641209	 -3.748105	 2.707115
C	 0.668518	 -3.585831	 1.726420
C	 2.677555	 -2.840066	 2.777133
H	 -0.146648	 -4.284042	 1.656888
C	 0.736054	 -2.535355	 0.836961
H	 3.438900	 -2.949709	 3.529076
C	 2.760232	 -1.774514	 1.887064
H	 -0.008383	 -2.398316	 0.074814
C	 1.785506	 -1.622119	 0.913532
H	 3.578277	 -1.085271	 1.967154
O	 1.765256	 -0.628444	 0.000000
C	 2.574784	 -0.714116	 -1.136837
H	 2.329149	 0.057949	 -1.858578
H	 2.380132	 -1.681989	 -1.574038
H	 3.627042	 -0.644464	 -0.881430

	symmetry c1
}
set optking {
	frozen_dihedral = ("
		10 12 13 14
	")
}

ee = energy('scf')
oeprop('DIPOLE', 'QUADRUPOLE', 'MULLIKEN_CHARGES')
f=open( 'psi4out.xyz', 'w' )
f.write( "16  " )
f.write( str(ee) + "\n" )
f.write( MOL.save_string_xyz() )
f.close()
--------------------------------------------------------------------------

  Memory set to   2.000 GiB by Python script.

*** tstart() called on cx1-3-2-1.cx1.hpc.ic.ac.uk
*** at Tue Jul  5 16:50:55 2016


         ---------------------------------------------------------
                                   SCF
            by Justin Turney, Rob Parrish, and Andy Simmonett
                              RHF Reference
                        1 Threads,   2000 MiB Core
         ---------------------------------------------------------

  ==> Geometry <==

    Molecular point group: c1
    Full point group: C1

    Geometry (in Angstrom), charge = 0, multiplicity = 1:

       Center              X                  Y                   Z               Mass       
    ------------   -----------------  -----------------  -----------------  -----------------
           H         -0.258224916920    -2.443649345105     2.262075553249     1.007825032070
           C         -0.202967916920    -1.623452345105     1.569763553249    12.000000000000
           C         -1.175658916920    -1.461178345105     0.589068553249    12.000000000000
           C          0.833378083080    -0.715413345105     1.639781553249    12.000000000000
           H         -1.990824916920    -2.159389345105     0.519536553249     1.007825032070
           C         -1.108122916920    -0.410702345105    -0.300390446751    12.000000000000
           H          1.594723083080    -0.825056345105     2.391724553249     1.007825032070
           C          0.916055083080     0.350138654895     0.749712553249    12.000000000000
           H         -1.852559916920    -0.273663345105    -1.062537446751     1.007825032070
           C         -0.058670916920     0.502533654895    -0.223819446751    12.000000000000
           H          1.734100083080     1.039381654895     0.829802553249     1.007825032070
           O         -0.078920916920     1.496208654895    -1.137351446751    15.994914619560
           C          0.730607083080     1.410536654895    -2.274188446751    12.000000000000
           H          0.484972083080     2.182601654895    -2.995929446751     1.007825032070
           H          0.535955083080     0.442663654895    -2.711389446751     1.007825032070
           H          1.782865083080     1.480188654895    -2.018781446751     1.007825032070

  Running in c1 symmetry.

  Rotational constants: A =      0.16556  B =      0.05190  C =      0.04205 [cm^-1]
  Rotational constants: A =   4963.24679  B =   1555.94971  C =   1260.67834 [MHz]
  Nuclear repulsion =  347.858831580361084

  Charge       = 0
  Multiplicity = 1
  Electrons    = 58
  Nalpha       = 29
  Nbeta        = 29

  ==> Algorithm <==

  SCF Algorithm Type is DF.
  DIIS enabled.
  MOM disabled.
  Fractional occupation disabled.
  Guess Type is CORE.
  Energy threshold   = 1.00e-06
  Density threshold  = 1.00e-06
  Integral threshold = 0.00e+00

  ==> Primary Basis <==

  Basis Set: 6-31G*
    Number of shells: 64
    Number of basis function: 136
    Number of Cartesian functions: 136
    Spherical Harmonics?: false
    Max angular momentum: 2

  ==> Pre-Iterations <==

   -------------------------------------------------------
    Irrep   Nso     Nmo     Nalpha   Nbeta   Ndocc  Nsocc
   -------------------------------------------------------
     A        136     136       0       0       0       0
   -------------------------------------------------------
    Total     136     136      29      29      29       0
   -------------------------------------------------------

 OEINTS: Overlap, kinetic, potential, dipole, and quadrupole integrals
         stored in file 35.

  ==> Integral Setup <==

  ==> DFJK: Density-Fitted J/K Matrices <==

    J tasked:                  Yes
    K tasked:                  Yes
    wK tasked:                  No
    OpenMP threads:              1
    Integrals threads:           1
    Memory (MB):              1430
    Algorithm:                Core
    Integral Cache:           NONE
    Schwarz Cutoff:          1E-12
    Fitting Condition:       1E-12

   => Auxiliary Basis Set <=

  Basis Set: 
    Number of shells: 264
    Number of basis function: 848
    Number of Cartesian functions: 848
    Spherical Harmonics?: false
    Max angular momentum: 3

  Minimum eigenvalue in the overlap matrix is 4.3988078926E-04.
  Using Symmetric Orthogonalization.
  SCF Guess: Core (One-Electron) Hamiltonian.

  ==> Iterations <==

                           Total Energy        Delta E     RMS |[F,P]|

   @DF-RHF iter   1:  -266.78448291294740   -2.66784e+02   6.86924e-02 
   @DF-RHF iter   2:  -244.36905898848681    2.24154e+01   5.33750e-02 DIIS
   @DF-RHF iter   3:  -324.22876273876716   -7.98597e+01   3.21250e-02 DIIS
   @DF-RHF iter   4:  -343.09320989610796   -1.88644e+01   1.18326e-02 DIIS
   @DF-RHF iter   5:  -344.29354915621263   -1.20034e+00   5.68229e-03 DIIS
   @DF-RHF iter   6:  -344.56257345902270   -2.69024e-01   1.08309e-03 DIIS
   @DF-RHF iter   7:  -344.57435867057382   -1.17852e-02   3.60525e-04 DIIS
   @DF-RHF iter   8:  -344.57626909168653   -1.91042e-03   1.01169e-04 DIIS
   @DF-RHF iter   9:  -344.57649485532988   -2.25764e-04   5.51902e-05 DIIS
   @DF-RHF iter  10:  -344.57656943319466   -7.45779e-05   2.24228e-05 DIIS
   @DF-RHF iter  11:  -344.57659201445267   -2.25813e-05   9.70087e-06 DIIS
   @DF-RHF iter  12:  -344.57659604935748   -4.03490e-06   3.58128e-06 DIIS
   @DF-RHF iter  13:  -344.57659652877840   -4.79421e-07   1.09561e-06 DIIS
   @DF-RHF iter  14:  -344.57659656859607   -3.98177e-08   4.16805e-07 DIIS

  ==> Post-Iterations <==

    Orbital Energies (a.u.)
    -----------------------

    Doubly Occupied:                                                      

       1A    -20.568672     2A    -11.287774     3A    -11.276725  
       4A    -11.232851     5A    -11.231443     6A    -11.226836  
       7A    -11.225328     8A    -11.222127     9A     -1.404183  
      10A     -1.146703    11A     -1.017406    12A     -1.015460  
      13A     -0.934758    14A     -0.832771    15A     -0.806252  
      16A     -0.713886    17A     -0.667567    18A     -0.664150  
      19A     -0.643119    20A     -0.611121    21A     -0.597512  
      22A     -0.584327    23A     -0.528408    24A     -0.507363  
      25A     -0.503663    26A     -0.479318    27A     -0.432792  
      28A     -0.334487    29A     -0.318898  

    Virtual:                                                              

      30A      0.146170    31A      0.154638    32A      0.238311  
      33A      0.257946    34A      0.292790    35A      0.308146  
      36A      0.309709    37A      0.320068    38A      0.334108  
      39A      0.339288    40A      0.355182    41A      0.382152  
      42A      0.452025    43A      0.481353    44A      0.488016  
      45A      0.545154    46A      0.559561    47A      0.671715  
      48A      0.699966    49A      0.741259    50A      0.751904  
      51A      0.753697    52A      0.782636    53A      0.800360  
      54A      0.820595    55A      0.823189    56A      0.837151  
      57A      0.841882    58A      0.848332    59A      0.867727  
      60A      0.903748    61A      0.911029    62A      0.928727  
      63A      0.987829    64A      1.017993    65A      1.077056  
      66A      1.112409    67A      1.118154    68A      1.123315  
      69A      1.132795    70A      1.140589    71A      1.162900  
      72A      1.191018    73A      1.199739    74A      1.214664  
      75A      1.224971    76A      1.250133    77A      1.316238  
      78A      1.326849    79A      1.331174    80A      1.379991  
      81A      1.445824    82A      1.461707    83A      1.495289  
      84A      1.511284    85A      1.615478    86A      1.659941  
      87A      1.705040    88A      1.717594    89A      1.737767  
      90A      1.773631    91A      1.796561    92A      1.799059  
      93A      1.873489    94A      1.905650    95A      2.061681  
      96A      2.097756    97A      2.138146    98A      2.180569  
      99A      2.212531   100A      2.263155   101A      2.322026  
     102A      2.326072   103A      2.347753   104A      2.411980  
     105A      2.432083   106A      2.445956   107A      2.461514  
     108A      2.485750   109A      2.514852   110A      2.550120  
     111A      2.557229   112A      2.628026   113A      2.652271  
     114A      2.665503   115A      2.762200   116A      2.857824  
     117A      2.871818   118A      2.919016   119A      3.029474  
     120A      3.061314   121A      3.087739   122A      3.104820  
     123A      3.109475   124A      3.222531   125A      3.256389  
     126A      3.401268   127A      3.527109   128A      3.840477  
     129A      4.474641   130A      4.531301   131A      4.549264  
     132A      4.637966   133A      4.703632   134A      4.763725  
     135A      4.868173   136A      5.182853  

    Final Occupation by Irrep:
              A 
    DOCC [    29 ]

  Energy converged.

  @DF-RHF Final Energy:  -344.57659656859607

   => Energetics <=

    Nuclear Repulsion Energy =            347.8588315803610840
    One-Electron Energy =               -1156.8389640055565906
    Two-Electron Energy =                 464.4035358565992055
    DFT Exchange-Correlation Energy =       0.0000000000000000
    Empirical Dispersion Energy =           0.0000000000000000
    PCM Polarization Energy =               0.0000000000000000
    EFP Energy =                            0.0000000000000000
    Total Energy =                       -344.5765965685963010

    Alert: EFP and PCM quantities not currently incorporated into SCF psivars.

Properties will be evaluated at   0.000000,   0.000000,   0.000000 Bohr
  ==> Properties <==


Properties computed using the SCF density matrix

  Nuclear Dipole Moment: (a.u.)
     X:     1.9036      Y:    -0.5149      Z:    -2.6168

  Electronic Dipole Moment: (a.u.)
     X:    -1.5230      Y:     0.1831      Z:     2.3323

  Dipole Moment: (a.u.)
     X:     0.3806      Y:    -0.3318      Z:    -0.2845     Total:     0.5795

  Dipole Moment: (Debye)
     X:     0.9673      Y:    -0.8433      Z:    -0.7231     Total:     1.4730


  Saving occupied orbitals to File 180.

*** tstop() called on cx1-3-2-1.cx1.hpc.ic.ac.uk at Tue Jul  5 16:51:07 2016
Module time:
	user time   =      11.18 seconds =       0.19 minutes
	system time =       0.07 seconds =       0.00 minutes
	total time  =         12 seconds =       0.20 minutes
Total time:
	user time   =      11.18 seconds =       0.19 minutes
	system time =       0.07 seconds =       0.00 minutes
	total time  =         12 seconds =       0.20 minutes


Properties will be evaluated at   0.000000,   0.000000,   0.000000 Bohr

Properties computed using the  density matrix

  Nuclear Dipole Moment: (a.u.)
     X:     1.9036      Y:    -0.5149      Z:    -2.6168

  Electronic Dipole Moment: (a.u.)
     X:    -1.5230      Y:     0.1831      Z:     2.3323

  Dipole Moment: (a.u.)
     X:     0.3806      Y:    -0.3318      Z:    -0.2845     Total:     0.5795

  Dipole Moment: (Debye)
     X:     0.9673      Y:    -0.8433      Z:    -0.7231     Total:     1.4730

  Quadrupole Moment: (Debye Ang)
    XX:   -44.7104     YY:   -48.1072     ZZ:   -42.4660
    XY:     4.1363     XZ:     0.7768     YZ:    -3.3598

  Traceless Quadrupole Moment: (Debye Ang)
    XX:     0.3842     YY:    -3.0127     ZZ:     2.6286
    XY:     4.1363     XZ:     0.7768     YZ:    -3.3598

  Mulliken Charges: (a.u.)
   Center  Symbol    Alpha    Beta     Spin     Total
       1     H     0.39948  0.39948  0.00000  0.20105
       2     C     3.10558  3.10558  0.00000 -0.21117
       3     C     3.09664  3.09664  0.00000 -0.19329
       4     C     3.09689  3.09689  0.00000 -0.19379
       5     H     0.39935  0.39935  0.00000  0.20130
       6     C     3.11987  3.11987  0.00000 -0.23975
       7     H     0.39914  0.39914  0.00000  0.20173
       8     C     3.12392  3.12392  0.00000 -0.24784
       9     H     0.39477  0.39477  0.00000  0.21045
      10     C     2.79889  2.79889  0.00000  0.40222
      11     H     0.39584  0.39584  0.00000  0.20832
      12     O     4.33318  4.33318  0.00000 -0.66635
      13     C     3.07915  3.07915  0.00000 -0.15830
      14     H     0.40975  0.40975  0.00000  0.18050
      15     H     0.42371  0.42371  0.00000  0.15258
      16     H     0.42384  0.42384  0.00000  0.15232

   Total alpha = 29.00000, Total beta = 29.00000, Total charge = -0.00000


*** PSI4 exiting successfully. Buy a developer a beer!
