    -----------------------------------------------------------------------
          Psi4: An Open-Source Ab Initio Electronic Structure Package
                              Psi4 (no tag) Driver

                          Git: Rev {detached?}  

    J. M. Turney, A. C. Simmonett, R. M. Parrish, E. G. Hohenstein,
    F. A. Evangelista, J. T. Fermann, B. J. Mintz, L. A. Burns, J. J. Wilke,
    M. L. Abrams, N. J. Russ, M. L. Leininger, C. L. Janssen, E. T. Seidl,
    W. D. Allen, H. F. Schaefer, R. A. King, E. F. Valeev, C. D. Sherrill,
    and T. D. Crawford, WIREs Comput. Mol. Sci. 2, 556-565 (2012)
    (doi: 10.1002/wcms.93)

                         Additional Contributions by
    A. E. DePrince, M. Saitow, U. Bozkaya, A. Yu. Sokolov
    -----------------------------------------------------------------------


    Psi4 started on: Tue Jul  5 16:45:39 2016

    Process ID:  26077
    PSI4DATADIR: /export131/home/mjharvey/miniconda3/share
    Memory level set to 256.000 MB

  ==> Input File <==

--------------------------------------------------------------------------
set {
	reference rhf
	basis 6-31G*
}


set_num_threads( 1 )
memory 2 gb

molecule MOL {
0 1

H	 3.729471	 -0.928294	 -0.070608
O	 2.826016	 -1.159218	 0.122261
C	 2.077727	 -0.067559	 -0.035091
C	 0.624473	 -0.343591	 0.253101
O	 2.542965	 0.974826	 -0.363729
C	 -0.265902	 0.883932	 0.072916
H	 0.324016	 -1.163849	 -0.390541
H	 0.565024	 -0.726111	 1.268924
C	 -1.728698	 0.646073	 0.462102
H	 -0.209144	 1.219470	 -0.958188
H	 0.135059	 1.692851	 0.673903
C	 -2.482460	 -0.343073	 -0.431425
H	 -2.245265	 1.602650	 0.432430
H	 -1.779332	 0.308348	 1.496285
C	 -2.569116	 0.125889	 -1.883679
H	 -1.985459	 -1.310337	 -0.393542
H	 -3.488631	 -0.500679	 -0.051739
H	 -3.108416	 -0.589703	 -2.496375
H	 -1.579992	 0.251835	 -2.314492
H	 -3.084738	 1.079268	 -1.957439

	symmetry c1
}
set optking {
	frozen_dihedral = ("
		7 4 6 10,
		12 9 6 10,
		5 3 4 7,
		1 2 3 5
	")
}

ee = energy('scf')
oeprop('DIPOLE', 'QUADRUPOLE', 'MULLIKEN_CHARGES')
f=open( 'psi4out.xyz', 'w' )
f.write( "20  " )
f.write( str(ee) + "\n" )
f.write( MOL.save_string_xyz() )
f.close()
--------------------------------------------------------------------------

  Memory set to   2.000 GiB by Python script.

*** tstart() called on cx1-1-1-2.cx1.hpc.ic.ac.uk
*** at Tue Jul  5 16:45:40 2016


         ---------------------------------------------------------
                                   SCF
            by Justin Turney, Rob Parrish, and Andy Simmonett
                              RHF Reference
                        1 Threads,   2000 MiB Core
         ---------------------------------------------------------

  ==> Geometry <==

    Molecular point group: c1
    Full point group: C1

    Geometry (in Angstrom), charge = 0, multiplicity = 1:

       Center              X                  Y                   Z               Mass       
    ------------   -----------------  -----------------  -----------------  -----------------
           H          3.549241769006    -1.004217530804     0.165478591110     1.007825032070
           O          2.645786769006    -1.235141530804     0.358347591110    15.994914619560
           C          1.897497769006    -0.143482530804     0.200995591110    12.000000000000
           C          0.444243769006    -0.419514530804     0.489187591110    12.000000000000
           O          2.362735769006     0.898902469196    -0.127642408890    15.994914619560
           C         -0.446131230994     0.808008469196     0.309002591110    12.000000000000
           H          0.143786769006    -1.239772530804    -0.154454408890     1.007825032070
           H          0.384794769006    -0.802034530804     1.505010591110     1.007825032070
           C         -1.908927230994     0.570149469196     0.698188591110    12.000000000000
           H         -0.389373230994     1.143546469196    -0.722101408890     1.007825032070
           H         -0.045170230994     1.616927469196     0.909989591110     1.007825032070
           C         -2.662689230994    -0.418996530804    -0.195338408890    12.000000000000
           H         -2.425494230994     1.526726469196     0.668516591110     1.007825032070
           H         -1.959561230994     0.232424469196     1.732371591110     1.007825032070
           C         -2.749345230994     0.049965469196    -1.647592408890    12.000000000000
           H         -2.165688230994    -1.386260530804    -0.157455408890     1.007825032070
           H         -3.668860230994    -0.576602530804     0.184347591110     1.007825032070
           H         -3.288645230994    -0.665626530804    -2.260288408890     1.007825032070
           H         -1.760221230994     0.175911469196    -2.078405408890     1.007825032070
           H         -3.264967230994     1.003344469196    -1.721352408890     1.007825032070

  Running in c1 symmetry.

  Rotational constants: A =      0.14211  B =      0.02799  C =      0.02750 [cm^-1]
  Rotational constants: A =   4260.32266  B =    839.15705  C =    824.47307 [MHz]
  Nuclear repulsion =  382.548671404598281

  Charge       = 0
  Multiplicity = 1
  Electrons    = 64
  Nalpha       = 32
  Nbeta        = 32

  ==> Algorithm <==

  SCF Algorithm Type is DF.
  DIIS enabled.
  MOM disabled.
  Fractional occupation disabled.
  Guess Type is CORE.
  Energy threshold   = 1.00e-06
  Density threshold  = 1.00e-06
  Integral threshold = 0.00e+00

  ==> Primary Basis <==

  Basis Set: 6-31G*
    Number of shells: 72
    Number of basis function: 144
    Number of Cartesian functions: 144
    Spherical Harmonics?: false
    Max angular momentum: 2

  ==> Pre-Iterations <==

   -------------------------------------------------------
    Irrep   Nso     Nmo     Nalpha   Nbeta   Ndocc  Nsocc
   -------------------------------------------------------
     A        144     144       0       0       0       0
   -------------------------------------------------------
    Total     144     144      32      32      32       0
   -------------------------------------------------------

 OEINTS: Overlap, kinetic, potential, dipole, and quadrupole integrals
         stored in file 35.

  ==> Integral Setup <==

  ==> DFJK: Density-Fitted J/K Matrices <==

    J tasked:                  Yes
    K tasked:                  Yes
    wK tasked:                  No
    OpenMP threads:              1
    Integrals threads:           1
    Memory (MB):              1430
    Algorithm:                Core
    Integral Cache:           NONE
    Schwarz Cutoff:          1E-12
    Fitting Condition:       1E-12

   => Auxiliary Basis Set <=

  Basis Set: 
    Number of shells: 300
    Number of basis function: 948
    Number of Cartesian functions: 948
    Spherical Harmonics?: false
    Max angular momentum: 3

  Minimum eigenvalue in the overlap matrix is 3.0561045076E-03.
  Using Symmetric Orthogonalization.
  SCF Guess: Core (One-Electron) Hamiltonian.

  ==> Iterations <==

                           Total Energy        Delta E     RMS |[F,P]|

   @DF-RHF iter   1:  -294.01657905886134   -2.94017e+02   6.30405e-02 
   @DF-RHF iter   2:  -124.30123776919555    1.69715e+02   8.26543e-02 DIIS
   @DF-RHF iter   3:  -345.94935145887655   -2.21648e+02   3.05726e-02 DIIS
   @DF-RHF iter   4:  -190.71182313587906    1.55238e+02   8.24281e-02 DIIS
   @DF-RHF iter   5:  -217.87831625858200   -2.71665e+01   8.25048e-02 DIIS
   @DF-RHF iter   6:  -235.25813891524581   -1.73798e+01   8.48904e-02 DIIS
   @DF-RHF iter   7:  -236.44308431354625   -1.18495e+00   8.29746e-02 DIIS
   @DF-RHF iter   8:  -241.93912545447017   -5.49604e+00   7.60862e-02 DIIS
   @DF-RHF iter   9:  -241.97616149304804   -3.70360e-02   7.61157e-02 DIIS
   @DF-RHF iter  10:  -241.76723567120030    2.08926e-01   7.58458e-02 DIIS
   @DF-RHF iter  11:  -247.42230422478110   -5.65507e+00   7.63170e-02 DIIS
   @DF-RHF iter  12:  -248.60276751120637   -1.18046e+00   7.57555e-02 DIIS
   @DF-RHF iter  13:  -268.43952130956745   -1.98368e+01   6.56398e-02 DIIS
   @DF-RHF iter  14:  -245.92313551305529    2.25164e+01   7.68715e-02 DIIS
   @DF-RHF iter  15:  -246.18753380338649   -2.64398e-01   7.68349e-02 DIIS
   @DF-RHF iter  16:  -242.07787755187610    4.10966e+00   7.60907e-02 DIIS
   @DF-RHF iter  17:  -241.70765558562084    3.70222e-01   7.61184e-02 DIIS
   @DF-RHF iter  18:  -241.71362359306181   -5.96801e-03   7.60688e-02 DIIS
   @DF-RHF iter  19:  -241.95648170123627   -2.42858e-01   7.60892e-02 DIIS
   @DF-RHF iter  20:  -242.02259857040758   -6.61169e-02   7.62409e-02 DIIS
   @DF-RHF iter  21:  -241.99214816208860    3.04504e-02   7.61224e-02 DIIS
   @DF-RHF iter  22:  -241.92044130821535    7.17069e-02   7.62451e-02 DIIS
   @DF-RHF iter  23:  -241.93677335975838   -1.63321e-02   7.61750e-02 DIIS
   @DF-RHF iter  24:  -241.86616013740809    7.06132e-02   7.61476e-02 DIIS
   @DF-RHF iter  25:  -241.98601710415051   -1.19857e-01   7.62331e-02 DIIS
   @DF-RHF iter  26:  -242.06830302353387   -8.22859e-02   7.63453e-02 DIIS
   @DF-RHF iter  27:  -242.27734850766751   -2.09045e-01   7.63294e-02 DIIS
   @DF-RHF iter  28:  -242.14983949481234    1.27509e-01   7.63221e-02 DIIS
   @DF-RHF iter  29:  -242.14827837595044    1.56112e-03   7.62418e-02 DIIS
   @DF-RHF iter  30:  -242.02309294930762    1.25185e-01   7.62519e-02 DIIS
   @DF-RHF iter  31:  -242.03395556882310   -1.08626e-02   7.61947e-02 DIIS
   @DF-RHF iter  32:  -241.94364450650392    9.03111e-02   7.62235e-02 DIIS
   @DF-RHF iter  33:  -241.98731232702187   -4.36678e-02   7.61813e-02 DIIS
   @DF-RHF iter  34:  -241.91360735142962    7.37050e-02   7.62117e-02 DIIS
   @DF-RHF iter  35:  -241.96513353361604   -5.15262e-02   7.61725e-02 DIIS
   @DF-RHF iter  36:  -241.90078853826117    6.43450e-02   7.62063e-02 DIIS
   @DF-RHF iter  37:  -241.95081477449412   -5.00262e-02   7.61657e-02 DIIS
   @DF-RHF iter  38:  -241.89451470880317    5.63001e-02   7.62043e-02 DIIS
   @DF-RHF iter  39:  -241.94304016967885   -4.85255e-02   7.61623e-02 DIIS
   @DF-RHF iter  40:  -241.89267340407582    5.03668e-02   7.62039e-02 DIIS
   @DF-RHF iter  41:  -241.93967896167783   -4.70056e-02   7.61611e-02 DIIS
   @DF-RHF iter  42:  -241.89284267006155    4.68363e-02   7.62039e-02 DIIS
   @DF-RHF iter  43:  -241.93818953257596   -4.53469e-02   7.61606e-02 DIIS
   @DF-RHF iter  44:  -241.89341860468176    4.47709e-02   7.62041e-02 DIIS
   @DF-RHF iter  45:  -241.93739168488389   -4.39731e-02   7.61603e-02 DIIS
   @DF-RHF iter  46:  -241.89395469547640    4.34370e-02   7.62042e-02 DIIS
   @DF-RHF iter  47:  -241.93694929875983   -4.29946e-02   7.61601e-02 DIIS
   @DF-RHF iter  48:  -241.89440740844725    4.25419e-02   7.62044e-02 DIIS
   @DF-RHF iter  49:  -241.93671822888643   -4.23108e-02   7.61601e-02 DIIS
   @DF-RHF iter  50:  -241.89476682284476    4.19514e-02   7.62045e-02 DIIS
   @DF-RHF iter  51:  -241.93659587650552   -4.18291e-02   7.61600e-02 DIIS
   @DF-RHF iter  52:  -241.89503146244829    4.15644e-02   7.62046e-02 DIIS
   @DF-RHF iter  53:  -241.93652533763702   -4.14939e-02   7.61600e-02 DIIS
   @DF-RHF iter  54:  -241.89521751446227    4.13078e-02   7.62047e-02 DIIS
   @DF-RHF iter  55:  -241.93648217224541   -4.12647e-02   7.61600e-02 DIIS
   @DF-RHF iter  56:  -241.89534626252430    4.11359e-02   7.62047e-02 DIIS
   @DF-RHF iter  57:  -241.93645532083974   -4.11091e-02   7.61600e-02 DIIS
   @DF-RHF iter  58:  -241.89543492692258    4.10204e-02   7.62047e-02 DIIS
   @DF-RHF iter  59:  -241.93643845498889   -4.10035e-02   7.61600e-02 DIIS
   @DF-RHF iter  60:  -241.89549569336680    4.09428e-02   7.62048e-02 DIIS
   @DF-RHF iter  61:  -241.93642768506322   -4.09320e-02   7.61600e-02 DIIS
   @DF-RHF iter  62:  -241.89553712962288    4.08906e-02   7.62048e-02 DIIS
   @DF-RHF iter  63:  -241.93642069394161   -4.08836e-02   7.61600e-02 DIIS
   @DF-RHF iter  64:  -241.89556528227013    4.08554e-02   7.62048e-02 DIIS
   @DF-RHF iter  65:  -241.93641610324971   -4.08508e-02   7.61600e-02 DIIS
   @DF-RHF iter  66:  -241.89558436896687    4.08317e-02   7.62048e-02 DIIS
   @DF-RHF iter  67:  -241.93641306654649   -4.08287e-02   7.61600e-02 DIIS
   @DF-RHF iter  68:  -241.89559729316068    4.08158e-02   7.62048e-02 DIIS
   @DF-RHF iter  69:  -241.93641104812423   -4.08138e-02   7.61600e-02 DIIS
   @DF-RHF iter  70:  -241.89560603761129    4.08050e-02   7.62048e-02 DIIS
   @DF-RHF iter  71:  -241.93640970195099   -4.08037e-02   7.61600e-02 DIIS
   @DF-RHF iter  72:  -241.89561195066483    4.07978e-02   7.62048e-02 DIIS
   @DF-RHF iter  73:  -241.93640880175758   -4.07969e-02   7.61600e-02 DIIS
   @DF-RHF iter  74:  -241.89561594734676    4.07929e-02   7.62048e-02 DIIS
   @DF-RHF iter  75:  -241.93640819851612   -4.07923e-02   7.61600e-02 DIIS
   @DF-RHF iter  76:  -241.89561864780626    4.07896e-02   7.62048e-02 DIIS
   @DF-RHF iter  77:  -241.93640779362840   -4.07891e-02   7.61600e-02 DIIS
   @DF-RHF iter  78:  -241.89562047203049    4.07873e-02   7.62048e-02 DIIS
   @DF-RHF iter  79:  -241.93640752152737   -4.07870e-02   7.61600e-02 DIIS
   @DF-RHF iter  80:  -241.89562170407930    4.07858e-02   7.62048e-02 DIIS
   @DF-RHF iter  81:  -241.93640733852249   -4.07856e-02   7.61600e-02 DIIS
   @DF-RHF iter  82:  -241.89562253617305    4.07848e-02   7.62048e-02 DIIS
   @DF-RHF iter  83:  -241.93640721537429   -4.07847e-02   7.61600e-02 DIIS
   @DF-RHF iter  84:  -241.89562309807150    4.07841e-02   7.62048e-02 DIIS
   @DF-RHF iter  85:  -241.93640713245145   -4.07840e-02   7.61600e-02 DIIS
   @DF-RHF iter  86:  -241.89562347747938    4.07837e-02   7.62048e-02 DIIS
   @DF-RHF iter  87:  -241.93640707659983   -4.07836e-02   7.61600e-02 DIIS
   @DF-RHF iter  88:  -241.89562373366039    4.07833e-02   7.62048e-02 DIIS
   @DF-RHF iter  89:  -241.93640703900269   -4.07833e-02   7.61600e-02 DIIS
   @DF-RHF iter  90:  -241.89562390664969    4.07831e-02   7.62048e-02 DIIS
   @DF-RHF iter  91:  -241.93640701359448   -4.07831e-02   7.61600e-02 DIIS
   @DF-RHF iter  92:  -241.89562402337731    4.07830e-02   7.62048e-02 DIIS
   @DF-RHF iter  93:  -241.93640699645960   -4.07830e-02   7.61600e-02 DIIS
   @DF-RHF iter  94:  -241.89562410220753    4.07829e-02   7.62048e-02 DIIS
   @DF-RHF iter  95:  -241.93640698494278   -4.07829e-02   7.61600e-02 DIIS
   @DF-RHF iter  96:  -241.89562415542605    4.07828e-02   7.62048e-02 DIIS
   @DF-RHF iter  97:  -241.93640697715091   -4.07828e-02   7.61600e-02 DIIS
   @DF-RHF iter  98:  -241.89562419137076    4.07828e-02   7.62048e-02 DIIS
   @DF-RHF iter  99:  -241.93640697191995   -4.07828e-02   7.61600e-02 DIIS
   @DF-RHF iter 100:  -241.89562421562687    4.07828e-02   7.62048e-02 DIIS

  ==> Post-Iterations <==

  Failed to converged.
    NOTE: MO Coefficients will not be saved to Checkpoint.
Iterations did not converge.