    -----------------------------------------------------------------------
          Psi4: An Open-Source Ab Initio Electronic Structure Package
                              Psi4 (no tag) Driver

                          Git: Rev {detached?}  

    J. M. Turney, A. C. Simmonett, R. M. Parrish, E. G. Hohenstein,
    F. A. Evangelista, J. T. Fermann, B. J. Mintz, L. A. Burns, J. J. Wilke,
    M. L. Abrams, N. J. Russ, M. L. Leininger, C. L. Janssen, E. T. Seidl,
    W. D. Allen, H. F. Schaefer, R. A. King, E. F. Valeev, C. D. Sherrill,
    and T. D. Crawford, WIREs Comput. Mol. Sci. 2, 556-565 (2012)
    (doi: 10.1002/wcms.93)

                         Additional Contributions by
    A. E. DePrince, M. Saitow, U. Bozkaya, A. Yu. Sokolov
    -----------------------------------------------------------------------


    Psi4 started on: Tue Jul  5 16:29:36 2016

    Process ID:   5872
    PSI4DATADIR: /export131/home/mjharvey/miniconda3/share
    Memory level set to 256.000 MB

  ==> Input File <==

--------------------------------------------------------------------------
set {
	reference rhf
	basis 6-31G*
}


set_num_threads( 1 )
memory 2 gb

molecule MOL {
0 1

H	 -0.821032	 -1.655889	 0.000000
O	 -1.037828	 -0.728600	 0.000000
C	 0.100509	 -0.036935	 0.000000
C	 0.216329	 0.849043	 -1.207282
O	 0.903982	 -0.135345	 0.868314
H	 0.170305	 0.246711	 -2.107167
H	 1.149202	 1.390823	 -1.170211
H	 -0.616708	 1.541971	 -1.232127

	symmetry c1
}
ee = energy('scf')
oeprop('DIPOLE', 'QUADRUPOLE', 'MULLIKEN_CHARGES')
f=open( 'psi4out.xyz', 'w' )
f.write( "8  " )
f.write( str(ee) + "\n" )
f.write( MOL.save_string_xyz() )
f.close()
--------------------------------------------------------------------------

  Memory set to   2.000 GiB by Python script.

*** tstart() called on cx1-1-4-4.cx1.hpc.ic.ac.uk
*** at Tue Jul  5 16:29:37 2016


         ---------------------------------------------------------
                                   SCF
            by Justin Turney, Rob Parrish, and Andy Simmonett
                              RHF Reference
                        1 Threads,   2000 MiB Core
         ---------------------------------------------------------

  ==> Geometry <==

    Molecular point group: c1
    Full point group: C1

    Geometry (in Angstrom), charge = 0, multiplicity = 1:

       Center              X                  Y                   Z               Mass       
    ------------   -----------------  -----------------  -----------------  -----------------
           H         -0.846723660538    -1.613605687545     0.085695950451     1.007825032070
           O         -1.063519660538    -0.686316687545     0.085695950451    15.994914619560
           C          0.074817339462     0.005348312455     0.085695950451    12.000000000000
           C          0.190637339462     0.891326312455    -1.121586049549    12.000000000000
           O          0.878290339462    -0.093061687545     0.954009950451    15.994914619560
           H          0.144613339462     0.288994312455    -2.021471049549     1.007825032070
           H          1.123510339462     1.433106312455    -1.084515049549     1.007825032070
           H         -0.642399660538     1.584254312455    -1.146431049549     1.007825032070

  Running in c1 symmetry.

  Rotational constants: A =      0.38136  B =      0.32243  C =      0.18272 [cm^-1]
  Rotational constants: A =  11432.87475  B =   9666.33204  C =   5477.77018 [MHz]
  Nuclear repulsion =  122.410731792116309

  Charge       = 0
  Multiplicity = 1
  Electrons    = 32
  Nalpha       = 16
  Nbeta        = 16

  ==> Algorithm <==

  SCF Algorithm Type is DF.
  DIIS enabled.
  MOM disabled.
  Fractional occupation disabled.
  Guess Type is CORE.
  Energy threshold   = 1.00e-06
  Density threshold  = 1.00e-06
  Integral threshold = 0.00e+00

  ==> Primary Basis <==

  Basis Set: 6-31G*
    Number of shells: 32
    Number of basis function: 68
    Number of Cartesian functions: 68
    Spherical Harmonics?: false
    Max angular momentum: 2

  ==> Pre-Iterations <==

   -------------------------------------------------------
    Irrep   Nso     Nmo     Nalpha   Nbeta   Ndocc  Nsocc
   -------------------------------------------------------
     A         68      68       0       0       0       0
   -------------------------------------------------------
    Total      68      68      16      16      16       0
   -------------------------------------------------------

 OEINTS: Overlap, kinetic, potential, dipole, and quadrupole integrals
         stored in file 35.

  ==> Integral Setup <==

  ==> DFJK: Density-Fitted J/K Matrices <==

    J tasked:                  Yes
    K tasked:                  Yes
    wK tasked:                  No
    OpenMP threads:              1
    Integrals threads:           1
    Memory (MB):              1430
    Algorithm:                Core
    Integral Cache:           NONE
    Schwarz Cutoff:          1E-12
    Fitting Condition:       1E-12

   => Auxiliary Basis Set <=

  Basis Set: 
    Number of shells: 132
    Number of basis function: 424
    Number of Cartesian functions: 424
    Spherical Harmonics?: false
    Max angular momentum: 3

  Minimum eigenvalue in the overlap matrix is 4.2681201191E-03.
  Using Symmetric Orthogonalization.
  SCF Guess: Core (One-Electron) Hamiltonian.

  ==> Iterations <==

                           Total Energy        Delta E     RMS |[F,P]|

   @DF-RHF iter   1:  -189.87902369131936   -1.89879e+02   9.54201e-02 
   @DF-RHF iter   2:  -146.13485370607819    4.37442e+01   8.22263e-02 DIIS
   @DF-RHF iter   3:  -208.14063415131827   -6.20058e+01   6.49025e-02 DIIS
   @DF-RHF iter   4:  -223.55483731016650   -1.54142e+01   3.44724e-02 DIIS
   @DF-RHF iter   5:  -227.27720120643900   -3.72236e+00   1.30899e-02 DIIS
   @DF-RHF iter   6:  -227.70298727447593   -4.25786e-01   5.25427e-03 DIIS
   @DF-RHF iter   7:  -227.77876874007231   -7.57815e-02   1.99940e-03 DIIS
   @DF-RHF iter   8:  -227.79243605479220   -1.36673e-02   5.39539e-04 DIIS
   @DF-RHF iter   9:  -227.79338970199237   -9.53647e-04   2.29578e-04 DIIS
   @DF-RHF iter  10:  -227.79356425573187   -1.74554e-04   7.02301e-05 DIIS
   @DF-RHF iter  11:  -227.79358405143066   -1.97957e-05   2.43405e-05 DIIS
   @DF-RHF iter  12:  -227.79358568198617   -1.63056e-06   6.78943e-06 DIIS
   @DF-RHF iter  13:  -227.79358579889342   -1.16907e-07   1.43420e-06 DIIS
   @DF-RHF iter  14:  -227.79358580615846   -7.26504e-09   3.64743e-07 DIIS

  ==> Post-Iterations <==

    Orbital Energies (a.u.)
    -----------------------

    Doubly Occupied:                                                      

       1A    -20.603964     2A    -20.558845     3A    -11.384824  
       4A    -11.239706     5A     -1.473053     6A     -1.369446  
       7A     -1.024111     8A     -0.829781     9A     -0.706182  
      10A     -0.678456    11A     -0.661733    12A     -0.585745  
      13A     -0.579513    14A     -0.524825    15A     -0.488292  
      16A     -0.449709  

    Virtual:                                                              

      17A      0.172435    18A      0.219150    19A      0.263215  
      20A      0.307246    21A      0.323081    22A      0.399472  
      23A      0.491521    24A      0.534421    25A      0.731830  
      26A      0.772159    27A      0.806771    28A      0.826188  
      29A      0.836195    30A      0.950630    31A      0.996227  
      32A      1.061485    33A      1.106367    34A      1.124659  
      35A      1.154506    36A      1.205909    37A      1.219351  
      38A      1.270016    39A      1.317594    40A      1.349107  
      41A      1.367883    42A      1.426320    43A      1.633904  
      44A      1.713031    45A      1.800684    46A      1.862734  
      47A      2.016676    48A      2.032829    49A      2.089838  
      50A      2.127324    51A      2.147574    52A      2.246420  
      53A      2.292774    54A      2.400549    55A      2.521102  
      56A      2.561172    57A      2.705927    58A      2.739393  
      59A      2.788899    60A      3.033239    61A      3.113992  
      62A      3.219939    63A      3.357224    64A      3.462907  
      65A      4.207063    66A      4.466407    67A      4.589939  
      68A      4.847925  

    Final Occupation by Irrep:
              A 
    DOCC [    16 ]

  Energy converged.

  @DF-RHF Final Energy:  -227.79358580615846

   => Energetics <=

    Nuclear Repulsion Energy =            122.4107317921163087
    One-Electron Energy =                -554.0922412890190571
    Two-Electron Energy =                 203.8879236907441452
    DFT Exchange-Correlation Energy =       0.0000000000000000
    Empirical Dispersion Energy =           0.0000000000000000
    PCM Polarization Energy =               0.0000000000000000
    EFP Energy =                            0.0000000000000000
    Total Energy =                       -227.7935858061586316

    Alert: EFP and PCM quantities not currently incorporated into SCF psivars.

Properties will be evaluated at   0.000000,   0.000000,   0.000000 Bohr
  ==> Properties <==


Properties computed using the SCF density matrix

  Nuclear Dipole Moment: (a.u.)
     X:    -0.2081      Y:     1.5832      Z:    -3.9012

  Electronic Dipole Moment: (a.u.)
     X:    -0.0710      Y:    -1.8502      Z:     2.8927

  Dipole Moment: (a.u.)
     X:    -0.2790      Y:    -0.2670      Z:    -1.0084     Total:     1.0799

  Dipole Moment: (Debye)
     X:    -0.7092      Y:    -0.6786      Z:    -2.5632     Total:     2.7447


  Saving occupied orbitals to File 180.

*** tstop() called on cx1-1-4-4.cx1.hpc.ic.ac.uk at Tue Jul  5 16:29:40 2016
Module time:
	user time   =       2.25 seconds =       0.04 minutes
	system time =       0.03 seconds =       0.00 minutes
	total time  =          3 seconds =       0.05 minutes
Total time:
	user time   =       2.25 seconds =       0.04 minutes
	system time =       0.03 seconds =       0.00 minutes
	total time  =          3 seconds =       0.05 minutes


Properties will be evaluated at   0.000000,   0.000000,   0.000000 Bohr

Properties computed using the  density matrix

  Nuclear Dipole Moment: (a.u.)
     X:    -0.2081      Y:     1.5832      Z:    -3.9012

  Electronic Dipole Moment: (a.u.)
     X:    -0.0710      Y:    -1.8502      Z:     2.8927

  Dipole Moment: (a.u.)
     X:    -0.2790      Y:    -0.2670      Z:    -1.0084     Total:     1.0799

  Dipole Moment: (Debye)
     X:    -0.7092      Y:    -0.6786      Z:    -2.5632     Total:     2.7447

  Quadrupole Moment: (Debye Ang)
    XX:   -27.1012     YY:   -18.2144     ZZ:   -24.9682
    XY:     0.5848     XZ:    -2.1523     YZ:    -0.0709

  Traceless Quadrupole Moment: (Debye Ang)
    XX:    -3.6733     YY:     5.2136     ZZ:    -1.5403
    XY:     0.5848     XZ:    -2.1523     YZ:    -0.0709

  Mulliken Charges: (a.u.)
   Center  Symbol    Alpha    Beta     Spin     Total
       1     H     0.26426  0.26426  0.00000  0.47148
       2     O     4.34956  4.34956  0.00000 -0.69911
       3     C     2.64892  2.64892  0.00000  0.70215
       4     C     3.28298  3.28298  0.00000 -0.56596
       5     O     4.25633  4.25633  0.00000 -0.51265
       6     H     0.40384  0.40384  0.00000  0.19232
       7     H     0.39705  0.39705  0.00000  0.20589
       8     H     0.39706  0.39706  0.00000  0.20587

   Total alpha = 16.00000, Total beta = 16.00000, Total charge = -0.00000


*** PSI4 exiting successfully. Buy a developer a beer!
