
    -----------------------------------------------------------------------
          Psi4: An Open-Source Ab Initio Electronic Structure Package
                               Psi4 1.1 release

                         Git: Rev {HEAD} add49b9 


    R. M. Parrish, L. A. Burns, D. G. A. Smith, A. C. Simmonett,
    A. E. DePrince III, E. G. Hohenstein, U. Bozkaya, A. Yu. Sokolov,
    R. Di Remigio, R. M. Richard, J. F. Gonthier, A. M. James,
    H. R. McAlexander, A. Kumar, M. Saitow, X. Wang, B. P. Pritchard,
    P. Verma, H. F. Schaefer III, K. Patkowski, R. A. King, E. F. Valeev,
    F. A. Evangelista, J. M. Turney, T. D. Crawford, and C. D. Sherrill,
    J. Chem. Theory Comput. in press (2017).
    (doi: 10.1021/acs.jctc.7b00174)

    -----------------------------------------------------------------------


    Psi4 started on: Tuesday, 12 December 2017 02:33PM

    Process ID:  17262
    PSIDATADIR: /shared/raimis/opt/miniconda/share/psi4
    Memory:     500.0 MiB
    Threads:    1
    
  ==> Input File <==

--------------------------------------------------------------------------
set_num_threads(1)
set_memory(3145728000)

set { reference rks }
set { basis 6-31G* }

molecule MOL {
    1 1
    noreorient
    nocom
    symmetry c1
    C    0.000000   0.000000  -0.177864
    C    0.036678   1.219374   0.524165
    C    0.031764   1.213119   1.915444
    C   -0.000000  -0.000000   2.610107
    C   -0.031764  -1.213119   1.915444
    C   -0.036677  -1.219374   0.524165
    C    0.000000  -0.000000  -1.644734
    H    0.018170   2.164705  -0.010853
    H    0.042402   2.152895   2.457886
    H   -0.000000  -0.000000   3.695756
    H   -0.042402  -2.152895   2.457886
    H   -0.018170  -2.164705  -0.010853
    N   -0.712590  -0.905950  -2.308460
    N    0.712590   0.905950  -2.308461
    H    0.673432   1.006469  -3.315997
    H    1.377190   1.485970  -1.813317
    H   -1.633023  -1.164261  -1.977763
    H   -0.405286  -1.314607  -3.183292
}

set optking { frozen_dihedral = (" 1 7 13 17 ") }

set optking { dynamic_level = 1 
 geom_maxiter = 250
 print_trajectory_xyz_file = True }

energy, wfn = optimize('B3LYP-D3', return_wfn=True)

import os
os.chdir(os.environ['HTMD_PSI4_WORKDIR'])

oeprop(wfn, 'DIPOLE', 'QUADRUPOLE', 'MULLIKEN_CHARGES')

with open('psi4out.xyz', 'w') as f:
    f.write('18 ' )
    f.write('%.12f\n' % energy)
    f.write(MOL.save_string_xyz())
--------------------------------------------------------------------------
  Threads set to 1 by Python driver.

  Memory set to   2.930 GiB by Python driver.
gradient() will perform analytic gradient computation.

*** tstart() called on computer06
*** at Tue Dec 12 14:33:22 2017

   => Loading Basis Set <=

    Name: 6-31G*
    Role: ORBITAL
    Keyword: BASIS
    atoms 1-7         entry C          line   102 file /shared/raimis/opt/miniconda/share/psi4/basis/6-31gs.gbs 
    atoms 8-12, 15-18 entry H          line    35 file /shared/raimis/opt/miniconda/share/psi4/basis/6-31gs.gbs 
    atoms 13-14       entry N          line   119 file /shared/raimis/opt/miniconda/share/psi4/basis/6-31gs.gbs 


         ---------------------------------------------------------
                                   SCF
            by Justin Turney, Rob Parrish, and Andy Simmonett
                              RKS Reference
                        1 Threads,   3000 MiB Core
         ---------------------------------------------------------

  ==> Geometry <==

    Molecular point group: c1
    Full point group: C1

    Geometry (in Angstrom), charge = 1, multiplicity = 1:

       Center              X                  Y                   Z               Mass       
    ------------   -----------------  -----------------  -----------------  -----------------
           C          0.000000000000     0.000000000000    -0.177864000000    12.000000000000
           C          0.036678000000     1.219374000000     0.524165000000    12.000000000000
           C          0.031764000000     1.213119000000     1.915444000000    12.000000000000
           C          0.000000000000     0.000000000000     2.610107000000    12.000000000000
           C         -0.031764000000    -1.213119000000     1.915444000000    12.000000000000
           C         -0.036677000000    -1.219374000000     0.524165000000    12.000000000000
           C          0.000000000000     0.000000000000    -1.644734000000    12.000000000000
           H          0.018170000000     2.164705000000    -0.010853000000     1.007825032070
           H          0.042402000000     2.152895000000     2.457886000000     1.007825032070
           H          0.000000000000     0.000000000000     3.695756000000     1.007825032070
           H         -0.042402000000    -2.152895000000     2.457886000000     1.007825032070
           H         -0.018170000000    -2.164705000000    -0.010853000000     1.007825032070
           N         -0.712590000000    -0.905950000000    -2.308460000000    14.003074004780
           N          0.712590000000     0.905950000000    -2.308461000000    14.003074004780
           H          0.673432000000     1.006469000000    -3.315997000000     1.007825032070
           H          1.377190000000     1.485970000000    -1.813317000000     1.007825032070
           H         -1.633023000000    -1.164261000000    -1.977763000000     1.007825032070
           H         -0.405286000000    -1.314607000000    -3.183292000000     1.007825032070

  Running in c1 symmetry.

  Rotational constants: A =      0.12160  B =      0.03954  C =      0.03132 [cm^-1]
  Rotational constants: A =   3645.38567  B =   1185.45169  C =    938.88175 [MHz]
  Nuclear repulsion =  416.744683622682203

  Charge       = 1
  Multiplicity = 1
  Electrons    = 64
  Nalpha       = 32
  Nbeta        = 32

  ==> Algorithm <==

  SCF Algorithm Type is DF.
  DIIS enabled.
  MOM disabled.
  Fractional occupation disabled.
  Guess Type is SAD.
  Energy threshold   = 1.00e-08
  Density threshold  = 1.00e-08
  Integral threshold = 0.00e+00

  ==> Primary Basis <==

  Basis Set: 6-31G*
    Blend: 6-31G*
    Number of shells: 72
    Number of basis function: 153
    Number of Cartesian functions: 153
    Spherical Harmonics?: false
    Max angular momentum: 2

  ==> DFT Potential <==

   => B3LYP Composite Functional <= 

    B3LYP Hybrid-GGA Exchange-Correlation Functional (VWN1-RPA)

    P.J. Stephens et. al., J. Phys. Chem., 98, 11623-11627, 1994

    Points   =           5000
    Deriv    =              1
    GGA      =           TRUE
    Meta     =          FALSE

    X_LRC        =          FALSE
    X_Hybrid     =           TRUE
    X_Alpha      =   2.000000E-01
    X_Omega      =   0.000000E+00
    C_LRC        =          FALSE
    C_Hybrid     =          FALSE
    C_Alpha      =   0.000000E+00
    C_Omega      =   0.000000E+00

   => Exchange Functionals <=

    0.8000    B3_X
    0.2000      HF 

   => Correlation Functionals <=

    0.1900 VWN3RPA_C
    0.8100   LYP_C

   => Molecular Quadrature <=

    Radial Scheme    =       TREUTLER
    Pruning Scheme   =           FLAT
    Nuclear Scheme   =       TREUTLER

    BS radius alpha  =              1
    Pruning alpha    =              1
    Radial Points    =             75
    Spherical Points =            302
    Total Points     =         397055
    Total Blocks     =            367
    Max Points       =           4943
    Max Functions    =            151

   => -D3ZERO: Empirical Dispersion <=

    Grimme's -D3 (zero-damping) Dispersion Correction
    Grimme S.; Antony J.; Ehrlich S.; Krieg H. (2010), J. Chem. Phys., 132: 154104

        S6 =   1.000000E+00
        S8 =   1.703000E+00
       SR6 =   1.261000E+00
    ALPHA6 =   1.400000E+01

   => Loading Basis Set <=

    Name: (6-31G* AUX)
    Role: JKFIT
    Keyword: DF_BASIS_SCF
    atoms 1-7         entry C          line   120 file /shared/raimis/opt/miniconda/share/psi4/basis/cc-pvdz-jkfit.gbs 
    atoms 8-12, 15-18 entry H          line    50 file /shared/raimis/opt/miniconda/share/psi4/basis/cc-pvdz-jkfit.gbs 
    atoms 13-14       entry N          line   170 file /shared/raimis/opt/miniconda/share/psi4/basis/cc-pvdz-jkfit.gbs 

  ==> Pre-Iterations <==

   -------------------------------------------------------
    Irrep   Nso     Nmo     Nalpha   Nbeta   Ndocc  Nsocc
   -------------------------------------------------------
     A        153     153       0       0       0       0
   -------------------------------------------------------
    Total     153     153      32      32      32       0
   -------------------------------------------------------

  ==> Integral Setup <==

  ==> DFJK: Density-Fitted J/K Matrices <==

    J tasked:                  Yes
    K tasked:                  Yes
    wK tasked:                  No
    OpenMP threads:              1
    Integrals threads:           1
    Memory (MB):              2250
    Algorithm:                Core
    Integral Cache:           NONE
    Schwarz Cutoff:          1E-12
    Fitting Condition:       1E-12

   => Auxiliary Basis Set <=

  Basis Set: (6-31G* AUX)
    Blend: CC-PVDZ-JKFIT
    Number of shells: 297
    Number of basis function: 954
    Number of Cartesian functions: 954
    Spherical Harmonics?: false
    Max angular momentum: 3

  Minimum eigenvalue in the overlap matrix is 4.8721485092E-04.
  Using Symmetric Orthogonalization.

  SCF Guess: Superposition of Atomic Densities via on-the-fly atomic UHF.

  ==> Iterations <==

                           Total Energy        Delta E     RMS |[F,P]|

   @DF-RKS iter   0:  -379.37498143586799   -3.79375e+02   3.34414e-02 
   @DF-RKS iter   1:  -380.99417980503671   -1.61920e+00   6.14905e-03 
   @DF-RKS iter   2:  -380.90092354751715    9.32563e-02   6.75973e-03 DIIS
   @DF-RKS iter   3:  -381.45001970347022   -5.49096e-01   9.86390e-04 DIIS
   @DF-RKS iter   4:  -381.45805150414714   -8.03180e-03   5.53493e-04 DIIS
   @DF-RKS iter   5:  -381.46143669155725   -3.38519e-03   1.40869e-04 DIIS
   @DF-RKS iter   6:  -381.46164697759485   -2.10286e-04   4.98964e-05 DIIS
   @DF-RKS iter   7:  -381.46167764270825   -3.06651e-05   1.16969e-05 DIIS
   @DF-RKS iter   8:  -381.46167908999740   -1.44729e-06   2.73983e-06 DIIS
   @DF-RKS iter   9:  -381.46167916839647   -7.83991e-08   1.00741e-06 DIIS
   @DF-RKS iter  10:  -381.46167917922003   -1.08236e-08   2.80530e-07 DIIS
   @DF-RKS iter  11:  -381.46167918000577   -7.85747e-10   1.10954e-07 DIIS
   @DF-RKS iter  12:  -381.46167918016130   -1.55524e-10   2.81642e-08 DIIS
   @DF-RKS iter  13:  -381.46167918017289   -1.15961e-11   4.63457e-09 DIIS

  ==> Post-Iterations <==

    Orbital Energies (a.u.)
    -----------------------

    Doubly Occupied:                                                      

       1A    -14.571460     2A    -14.556320     3A    -10.494855  
       4A    -10.370980     5A    -10.356059     6A    -10.355092  
       7A    -10.344459     8A    -10.340403     9A    -10.339750  
      10A     -1.180573    11A     -1.088444    12A     -1.013588  
      13A     -0.925179    14A     -0.901560    15A     -0.843038  
      16A     -0.781005    17A     -0.769652    18A     -0.741485  
      19A     -0.730006    20A     -0.698053    21A     -0.669696  
      22A     -0.625864    23A     -0.609137    24A     -0.581673  
      25A     -0.577864    26A     -0.563288    27A     -0.518480  
      28A     -0.504977    29A     -0.497255    30A     -0.469043  
      31A     -0.413258    32A     -0.405229  

    Virtual:                                                              

      33A     -0.228210    34A     -0.155532    35A     -0.132270  
      36A     -0.101839    37A     -0.069696    38A     -0.052751  
      39A     -0.037466    40A     -0.023330    41A      0.007714  
      42A      0.013133    43A      0.022214    44A      0.054219  
      45A      0.061949    46A      0.088762    47A      0.133247  
      48A      0.143126    49A      0.155086    50A      0.158586  
      51A      0.204789    52A      0.242786    53A      0.298780  
      54A      0.353138    55A      0.356982    56A      0.382891  
      57A      0.391543    58A      0.397723    59A      0.419806  
      60A      0.422869    61A      0.443235    62A      0.449214  
      63A      0.453104    64A      0.471304    65A      0.474582  
      66A      0.480552    67A      0.486309    68A      0.515375  
      69A      0.522300    70A      0.538875    71A      0.548640  
      72A      0.590808    73A      0.609831    74A      0.649826  
      75A      0.668063    76A      0.686140    77A      0.690928  
      78A      0.703196    79A      0.710815    80A      0.722151  
      81A      0.727514    82A      0.747491    83A      0.773867  
      84A      0.786630    85A      0.807985    86A      0.821023  
      87A      0.855228    88A      0.933688    89A      0.950154  
      90A      0.978141    91A      1.003984    92A      1.021923  
      93A      1.062126    94A      1.080039    95A      1.113476  
      96A      1.145059    97A      1.234673    98A      1.276123  
      99A      1.281182   100A      1.310012   101A      1.320914  
     102A      1.343019   103A      1.361780   104A      1.389283  
     105A      1.434758   106A      1.457162   107A      1.524857  
     108A      1.618106   109A      1.631536   110A      1.661075  
     111A      1.673102   112A      1.736431   113A      1.750761  
     114A      1.796530   115A      1.817093   116A      1.830578  
     117A      1.890413   118A      1.910323   119A      1.963185  
     120A      1.974933   121A      1.989993   122A      2.000581  
     123A      2.027365   124A      2.042831   125A      2.126519  
     126A      2.132450   127A      2.154987   128A      2.198158  
     129A      2.239104   130A      2.332596   131A      2.364414  
     132A      2.371345   133A      2.443888   134A      2.452054  
     135A      2.488691   136A      2.513281   137A      2.553452  
     138A      2.587189   139A      2.601080   140A      2.631312  
     141A      2.736313   142A      2.857326   143A      2.981451  
     144A      3.258767   145A      3.632454   146A      3.665523  
     147A      3.912561   148A      3.946897   149A      3.964338  
     150A      4.047182   151A      4.174631   152A      4.255106  
     153A      4.546628  

    Final Occupation by Irrep:
              A 
    DOCC [    32 ]

  Energy converged.

  @DF-RKS Final Energy:  -381.46167918017289

   => Energetics <=

    Nuclear Repulsion Energy =            416.7446836226822029
    One-Electron Energy =               -1328.7888304109624187
    Two-Electron Energy =                 575.0011150720932847
    DFT Exchange-Correlation Energy =     -44.4067056039860262
    Empirical Dispersion Energy =          -0.0119418600000000
    PCM Polarization Energy =               0.0000000000000000
    EFP Energy =                            0.0000000000000000
    Total Energy =                       -381.4616791801728937



Properties will be evaluated at   0.000000,   0.000000,   0.000000 Bohr

Properties computed using the SCF density matrix

  Nuclear Dipole Moment: (a.u.)
     X:     0.0233      Y:     0.0256      Z:    -0.0352

  Electronic Dipole Moment: (a.u.)
     X:     0.0320      Y:     0.0087      Z:    -2.1677

  Dipole Moment: (a.u.)
     X:     0.0552      Y:     0.0343      Z:    -2.2030     Total:     2.2039

  Dipole Moment: (Debye)
     X:     0.1404      Y:     0.0872      Z:    -5.5994     Total:     5.6018


*** tstop() called on computer06 at Tue Dec 12 14:34:56 2017
Module time:
	user time   =      93.47 seconds =       1.56 minutes
	system time =       0.78 seconds =       0.01 minutes
	total time  =         94 seconds =       1.57 minutes
Total time:
	user time   =      93.47 seconds =       1.56 minutes
	system time =       0.78 seconds =       0.01 minutes
	total time  =         94 seconds =       1.57 minutes

*** tstart() called on computer06
*** at Tue Dec 12 14:34:56 2017


         ------------------------------------------------------------
                                   SCF GRAD                          
                          Rob Parrish, Justin Turney,                
                       Andy Simmonett, and Alex Sokolov              
         ------------------------------------------------------------

  ==> Geometry <==

    Molecular point group: c1
    Full point group: C1

    Geometry (in Angstrom), charge = 1, multiplicity = 1:

       Center              X                  Y                   Z               Mass       
    ------------   -----------------  -----------------  -----------------  -----------------
           C          0.000000000000     0.000000000000    -0.177864000000    12.000000000000
           C          0.036678000000     1.219374000000     0.524165000000    12.000000000000
           C          0.031764000000     1.213119000000     1.915444000000    12.000000000000
           C          0.000000000000     0.000000000000     2.610107000000    12.000000000000
           C         -0.031764000000    -1.213119000000     1.915444000000    12.000000000000
           C         -0.036677000000    -1.219374000000     0.524165000000    12.000000000000
           C          0.000000000000     0.000000000000    -1.644734000000    12.000000000000
           H          0.018170000000     2.164705000000    -0.010853000000     1.007825032070
           H          0.042402000000     2.152895000000     2.457886000000     1.007825032070
           H          0.000000000000     0.000000000000     3.695756000000     1.007825032070
           H         -0.042402000000    -2.152895000000     2.457886000000     1.007825032070
           H         -0.018170000000    -2.164705000000    -0.010853000000     1.007825032070
           N         -0.712590000000    -0.905950000000    -2.308460000000    14.003074004780
           N          0.712590000000     0.905950000000    -2.308461000000    14.003074004780
           H          0.673432000000     1.006469000000    -3.315997000000     1.007825032070
           H          1.377190000000     1.485970000000    -1.813317000000     1.007825032070
           H         -1.633023000000    -1.164261000000    -1.977763000000     1.007825032070
           H         -0.405286000000    -1.314607000000    -3.183292000000     1.007825032070

  Nuclear repulsion =  416.744683622682203

  ==> Basis Set <==

  Basis Set: 6-31G*
    Blend: 6-31G*
    Number of shells: 72
    Number of basis function: 153
    Number of Cartesian functions: 153
    Spherical Harmonics?: false
    Max angular momentum: 2

  ==> DFJKGrad: Density-Fitted SCF Gradients <==

    Gradient:                    1
    J tasked:                  Yes
    K tasked:                  Yes
    wK tasked:                  No
    OpenMP threads:              1
    Integrals threads:           1
    Memory (MB):              2250
    Schwarz Cutoff:          0E+00
    Fitting Condition:       1E-12

   => Auxiliary Basis Set <=

  Basis Set: (6-31G* AUX)
    Blend: CC-PVDZ-JKFIT
    Number of shells: 297
    Number of basis function: 954
    Number of Cartesian functions: 954
    Spherical Harmonics?: false
    Max angular momentum: 3

  ==> DFT Potential <==

   => B3LYP Composite Functional <= 

    B3LYP Hybrid-GGA Exchange-Correlation Functional (VWN1-RPA)

    P.J. Stephens et. al., J. Phys. Chem., 98, 11623-11627, 1994

    Points   =           5000
    Deriv    =              1
    GGA      =           TRUE
    Meta     =          FALSE

    X_LRC        =          FALSE
    X_Hybrid     =           TRUE
    X_Alpha      =   2.000000E-01
    X_Omega      =   0.000000E+00
    C_LRC        =          FALSE
    C_Hybrid     =          FALSE
    C_Alpha      =   0.000000E+00
    C_Omega      =   0.000000E+00

   => Exchange Functionals <=

    0.8000    B3_X
    0.2000      HF 

   => Correlation Functionals <=

    0.1900 VWN3RPA_C
    0.8100   LYP_C

   => Molecular Quadrature <=

    Radial Scheme    =       TREUTLER
    Pruning Scheme   =           FLAT
    Nuclear Scheme   =       TREUTLER

    BS radius alpha  =              1
    Pruning alpha    =              1
    Radial Points    =             75
    Spherical Points =            302
    Total Points     =         397055
    Total Blocks     =            367
    Max Points       =           4943
    Max Functions    =            151


  -Total Gradient:
     Atom            X                  Y                   Z
    ------   -----------------  -----------------  -----------------
       1        0.004985962297    -0.006012739717     0.004675223277
       2       -0.000095502986    -0.000910479362    -0.003320937895
       3       -0.000550618739    -0.001673794357     0.001122457417
       4        0.000112635203     0.000524354263    -0.000069083464
       5       -0.000566403466    -0.000103028858     0.000413928639
       6        0.000518960608     0.002561722485     0.000070254846
       7       -0.004969726013    -0.009987766304    -0.010237720376
       8        0.000288627440    -0.000096233596     0.000071994318
       9        0.000025450063     0.000026618713    -0.000149976151
      10        0.000117659712    -0.000058991213    -0.000071416069
      11       -0.000057078655     0.000006834285     0.000019215818
      12        0.001206604923    -0.001120076362     0.000869981282
      13        0.004094355312     0.009931231802     0.008509251342
      14       -0.004197531800     0.005116061396    -0.001521205597
      15        0.001855861183     0.000591898213     0.000557563469
      16       -0.002544838687     0.000693744742    -0.000074222226
      17       -0.004023623152     0.008001863914    -0.005874932550
      18        0.003784533699    -0.007496054358     0.005004066058


*** tstop() called on computer06 at Tue Dec 12 14:35:19 2017
Module time:
	user time   =      22.18 seconds =       0.37 minutes
	system time =       0.34 seconds =       0.01 minutes
	total time  =         23 seconds =       0.38 minutes
Total time:
	user time   =     115.65 seconds =       1.93 minutes
	system time =       1.13 seconds =       0.02 minutes
	total time  =        117 seconds =       1.95 minutes

			-----------------------------------------
			 OPTKING 2.0: for geometry optimizations 
			  - R.A. King,  Bethel University        
			-----------------------------------------
	At level 1: Red. Int., RFO, no backsteps, dynamic trust

	Internal coordinates to be generated automatically.
	Detected frag 1 with atoms:  1 2 3 4 5 6 7 8 9 10 11 12 13 14 15 16 17 18
	---Fragment 1 Bond Connectivity---
	 1 : 2 6 7
	 2 : 1 3 8
	 3 : 2 4 9
	 4 : 3 5 10
	 5 : 4 6 11
	 6 : 1 5 12
	 7 : 1 13 14
	 8 : 2
	 9 : 3
	 10 : 4
	 11 : 5
	 12 : 6
	 13 : 7 17 18
	 14 : 7 15 16
	 15 : 14
	 16 : 14
	 17 : 13
	 18 : 13

	Assuming in current code that numbering for constraints corresponds to unified fragment.
	Frozen dihedral atom list: 
	     1     7    13    17
	---Fragment 1 Geometry and Gradient---
	 C           0.0000000000        0.0000000000       -0.3361142489
	 C           0.0693113751        2.3042829136        0.9905282984
	 C           0.0600252609        2.2924626766        3.6196645829
	 C           0.0000000000        0.0000000000        4.9323874075
	 C          -0.0600252609       -2.2924626766        3.6196645829
	 C          -0.0693094854       -2.3042829136        0.9905282984
	 C           0.0000000000        0.0000000000       -3.1080968214
	 H           0.0343363238        4.0906996085       -0.0205091977
	 H           0.0801281675        4.0683819429        4.6447314059
	 H           0.0000000000        0.0000000000        6.9839666940
	 H          -0.0801281675       -4.0683819429        4.6447314059
	 H          -0.0343363238       -4.0906996085       -0.0205091977
	 N          -1.3465999450       -1.7119973901       -4.3623571887
	 N           1.3465999450        1.7119973901       -4.3623590784
	 H           1.2726020491        1.9019507712       -6.2663261875
	 H           2.6025119329        2.8080763417       -3.4266725221
	 H          -3.0859662387       -2.2001344372       -3.7374304258
	 H          -0.7658795455       -2.4842472024       -6.0155500810
	             0.0049859623       -0.0060127397        0.0046752233
	            -0.0000955030       -0.0009104794       -0.0033209379
	            -0.0005506187       -0.0016737944        0.0011224574
	             0.0001126352        0.0005243543       -0.0000690835
	            -0.0005664035       -0.0001030289        0.0004139286
	             0.0005189606        0.0025617225        0.0000702548
	            -0.0049697260       -0.0099877663       -0.0102377204
	             0.0002886274       -0.0000962336        0.0000719943
	             0.0000254501        0.0000266187       -0.0001499762
	             0.0001176597       -0.0000589912       -0.0000714161
	            -0.0000570787        0.0000068343        0.0000192158
	             0.0012066049       -0.0011200764        0.0008699813
	             0.0040943553        0.0099312318        0.0085092513
	            -0.0041975318        0.0051160614       -0.0015212056
	             0.0018558612        0.0005918982        0.0005575635
	            -0.0025448387        0.0006937447       -0.0000742222
	            -0.0040236232        0.0080018639       -0.0058749325
	             0.0037845337       -0.0074960544        0.0050040661

	Previous optimization step data not found.  Starting new optimization.

	---Fragment 1 Intrafragment Coordinates---
	 - Coordinate -           - BOHR/RAD -       - ANG/DEG -
	 R(1,2)           =         2.659794	       1.407502
	 R(1,6)           =         2.659794	       1.407502
	 R(1,7)           =         2.771983	       1.466870
	 R(2,3)           =         2.629179	       1.391302
	 R(2,8)           =         2.052975	       1.086387
	 R(3,4)           =         2.642391	       1.398293
	 R(3,9)           =         2.050623	       1.085143
	 R(4,5)           =         2.642391	       1.398293
	 R(4,10)          =         2.051579	       1.085649
	 R(5,6)           =         2.629179	       1.391302
	 R(5,11)          =         2.050623	       1.085143
	 R(6,12)          =         2.052975	       1.086387
	 R(7,13)          =         2.513451	       1.330061
	 R(7,14)          =         2.513452	       1.330061
	 R(13,17)         =         1.911598	       1.011574
	 R(13,18)         =         1.914851	       1.013295
	 R(14,15)         =         1.914850	       1.013295
	 R(14,16)         =         1.911600	       1.011575
	 B(1,2,3)         =         2.088380	     119.655334
	 B(1,2,8)         =         2.103396	     120.515735
	 B(1,6,5)         =         2.088380	     119.655336
	 B(1,6,12)        =         2.103396	     120.515739
	 B(1,7,13)        =         2.093263	     119.935135
	 B(1,7,14)        =         2.093264	     119.935172
	 B(2,1,6)         =         2.097220	     120.161836
	 B(2,1,7)         =         2.092983	     119.919082
	 B(2,3,4)         =         2.095280	     120.050699
	 B(2,3,9)         =         2.089718	     119.732039
	 B(3,2,8)         =         2.090149	     119.756716
	 B(3,4,5)         =         2.101792	     120.423818
	 B(3,4,10)        =         2.090697	     119.788091
	 B(4,3,9)         =         2.098135	     120.214304
	 B(4,5,6)         =         2.095280	     120.050698
	 B(4,5,11)        =         2.098135	     120.214304
	 B(5,4,10)        =         2.090697	     119.788091
	 B(5,6,12)        =         2.090149	     119.756718
	 B(6,1,7)         =         2.092983	     119.919082
	 B(6,5,11)        =         2.089718	     119.732040
	 B(7,13,17)       =         2.092412	     119.886401
	 B(7,13,18)       =         2.144859	     122.891364
	 B(7,14,15)       =         2.144860	     122.891403
	 B(7,14,16)       =         2.092412	     119.886356
	 B(13,7,14)       =         2.096659	     120.129694
	 B(15,14,16)      =         2.043400	     117.078183
	 B(17,13,18)      =         2.043400	     117.078175
	 D(1,2,3,4)       =         0.007800	       0.446917
	 D(1,2,3,9)       =        -3.122897	    -178.928796
	 D(1,6,5,4)       =         0.007799	       0.446823
	 D(1,6,5,11)      =        -3.122897	    -178.928843
	*D(1,7,13,17)     =         0.698131	      39.999985
	 D(1,7,13,18)     =        -2.521878	    -144.492987
	 D(1,7,14,15)     =        -3.032165	    -173.730265
	 D(1,7,14,16)     =         0.187844	      10.762677
	 D(2,1,6,5)       =        -0.003905	      -0.223756
	 D(2,1,6,12)      =        -3.091438	    -177.126344
	 D(2,1,7,13)      =        -2.505167	    -143.535494
	 D(2,1,7,14)      =         0.636426	      36.464506
	 D(2,3,4,5)       =        -0.003943	      -0.225922
	 D(2,3,4,10)      =         3.137650	     179.774078
	 D(3,2,1,6)       =        -0.003908	      -0.223897
	 D(3,2,1,7)       =         3.137686	     179.776150
	 D(3,4,5,6)       =        -0.003942	      -0.225875
	 D(3,4,5,11)      =         3.126701	     179.146753
	 D(4,3,2,8)       =         3.095745	     177.373103
	 D(4,5,6,12)      =         3.095746	     177.373164
	 D(5,4,3,9)       =         3.126701	     179.146753
	 D(5,6,1,7)       =         3.137687	     179.776197
	 D(6,1,2,8)       =        -3.091438	    -177.126330
	 D(6,1,7,13)      =         0.636427	      36.464553
	 D(6,1,7,14)      =        -2.505166	    -143.535447
	 D(6,5,4,10)      =         3.137650	     179.774125
	 D(7,1,2,8)       =         0.050156	       2.873717
	 D(7,1,6,12)      =         0.050154	       2.873609
	 D(8,2,3,9)       =        -0.034952	      -2.002610
	 D(9,3,4,10)      =        -0.014892	      -0.853247
	 D(10,4,5,11)     =        -0.014892	      -0.853247
	 D(11,5,6,12)     =        -0.034950	      -2.002502
	 D(13,7,14,15)    =         0.109428	       6.269735
	 D(13,7,14,16)    =        -2.953749	    -169.237323
	 D(14,7,13,17)    =        -2.443461	    -140.000015
	 D(14,7,13,18)    =         0.619714	      35.507013

	Current energy   :      -381.4616791802

	Generating empirical Hessian (Schlegel '84) for each fragment.
	Taking RFO optimization step.
	Going to follow RFO solution 1.
	Using RFO vector 1.

	Determining step-restricting scale parameter for RS-RFO.
	Maximum step size allowed    0.50000

	 Iter      |step|        alpha        rfo_root  
	------------------------------------------------
	    0     0.50589       1.00000           1
	    1     0.50012       1.05219           1
	    2     0.50000       1.05327           1
	------------------------------------------------
	Norm of target step-size    0.50000
	Projected energy change by RFO approximation:        -0.0027096945

	Back-transformation to cartesian coordinates...
	Could not converge backtransformation.
	Using first guess instead.

	Back-transformation to cartesian coordinates to adjust frozen coordinates...
	Successfully converged to displaced geometry.

	--- Internal Coordinate Step in ANG or DEG, aJ/ANG or AJ/DEG ---
	 ---------------------------------------------------------------------------
	   Coordinate                Previous        Force       Change         New 
	   ----------                --------       ------       ------       ------
	    1 R(1,2)          =      1.407502     0.019458     0.003123     1.410626
	    2 R(1,6)          =      1.407502    -0.000400     0.000166     1.407668
	    3 R(1,7)          =      1.466870    -0.029948    -0.005179     1.461691
	    4 R(2,3)          =      1.391302    -0.008415    -0.000765     1.390536
	    5 R(2,8)          =      1.086387     0.001024     0.000246     1.086634
	    6 R(3,4)          =      1.398293     0.008551     0.001284     1.399577
	    7 R(3,9)          =      1.085143     0.000424     0.000434     1.085577
	    8 R(4,5)          =      1.398293     0.006119     0.001393     1.399686
	    9 R(4,10)         =      1.085649     0.000586     0.000312     1.085961
	   10 R(5,6)          =      1.391302    -0.002010     0.000071     1.391373
	   11 R(5,11)         =      1.085143    -0.000036     0.000122     1.085265
	   12 R(6,12)         =      1.086387    -0.004668     0.000344     1.086731
	   13 R(7,13)         =      1.330061     0.107025     0.017855     1.347916
	   14 R(7,14)         =      1.330061    -0.018650    -0.001696     1.328366
	   15 R(13,17)        =      1.011574     0.002513     0.006398     1.017972
	   16 R(13,18)        =      1.013295     0.001226     0.018634     1.031930
	   17 R(14,15)        =      1.013295     0.004681     0.001600     1.014895
	   18 R(14,16)        =      1.011575     0.010780     0.001809     1.013384
	   19 B(1,2,3)        =    119.655334     0.000004     0.041285   119.696618
	   20 B(1,2,8)        =    120.515735    -0.000004    -0.015878   120.499857
	   21 B(1,6,5)        =    119.655336    -0.000037    -0.150028   119.505307
	   22 B(1,6,12)       =    120.515739    -0.000081    -0.371697   120.144042
	   23 B(1,7,13)       =    119.935135     0.000109     0.145128   120.080263
	   24 B(1,7,14)       =    119.935172     0.000107     0.313961   120.249132
	   25 B(2,1,6)        =    120.161836     0.000027     0.095579   120.257415
	   26 B(2,1,7)        =    119.919082     0.000266     0.773527   120.692609
	   27 B(2,3,4)        =    120.050699    -0.000048    -0.170335   119.880364
	   28 B(2,3,9)        =    119.732039     0.000035     0.142509   119.874548
	   29 B(3,2,8)        =    119.756716     0.000000    -0.009204   119.747512
	   30 B(3,4,5)        =    120.423818     0.000042     0.129429   120.553247
	   31 B(3,4,10)       =    119.788091    -0.000026    -0.096926   119.691166
	   32 B(4,3,9)        =    120.214304     0.000013     0.025863   120.240167
	   33 B(4,5,6)        =    120.050698     0.000012     0.046091   120.096789
	   34 B(4,5,11)       =    120.214304    -0.000004     0.002361   120.216665
	   35 B(5,4,10)       =    119.788091    -0.000017    -0.033356   119.754735
	   36 B(5,6,12)       =    119.756718     0.000119     0.544974   120.301692
	   37 B(6,1,7)        =    119.919082    -0.000293    -0.869107   119.049975
	   38 B(6,5,11)       =    119.732040    -0.000007    -0.045933   119.686106
	   39 B(7,13,17)      =    119.886401     0.000052     0.282403   120.168803
	   40 B(7,13,18)      =    122.891364    -0.000098    -2.287603   120.603761
	   41 B(7,14,15)      =    122.891403    -0.000179    -0.827441   122.063961
	   42 B(7,14,16)      =    119.886356     0.000103     0.430825   120.317182
	   43 B(13,7,14)      =    120.129694    -0.000216    -0.902581   119.227112
	   44 B(15,14,16)     =    117.078183     0.000070     0.203057   117.281239
	   45 B(17,13,18)     =    117.078175     0.000016     0.355544   117.433719
	   46 D(1,2,3,4)      =      0.446917    -0.000003    -0.424691     0.022226
	   47 D(1,2,3,9)      =   -178.928796    -0.000002    -0.243980  -179.172776
	   48 D(1,6,5,4)      =      0.446823     0.000004     0.492627     0.939450
	   49 D(1,6,5,11)     =   -178.928843     0.000001     0.108868  -178.819975
	   50 *D(1,7,13,17)   =     39.999985    -0.000000     0.000000    39.999985
	   51 D(1,7,13,18)    =   -144.492987    -0.000107   -11.148142  -155.641129
	   52 D(1,7,14,15)    =   -173.730265    -0.000017    -2.406279  -176.136544
	   53 D(1,7,14,16)    =     10.762677     0.000004    -0.044573    10.718104
	   54 D(2,1,6,5)      =     -0.223756    -0.000008    -1.016768    -1.240524
	   55 D(2,1,6,12)     =   -177.126344    -0.000013    -1.577347  -178.703691
	   56 D(2,1,7,13)     =   -143.535494    -0.000049    -7.630395  -151.165889
	   57 D(2,1,7,14)     =     36.464506     0.000010     0.069714    36.534220
	   58 D(2,3,4,5)      =     -0.225922    -0.000001    -0.097319    -0.323241
	   59 D(2,3,4,10)     =    179.774078     0.000002     0.239363   180.013441
	   60 D(3,2,1,6)      =     -0.223897     0.000007     0.983906     0.760008
	   61 D(3,2,1,7)      =    179.776150     0.000007     0.996763   180.772912
	   62 D(3,4,5,6)      =     -0.225875     0.000000     0.062427    -0.163447
	   63 D(3,4,5,11)     =    179.146753     0.000003     0.447937   179.594690
	   64 D(4,3,2,8)      =    177.373103    -0.000001    -0.058682   177.314421
	   65 D(4,5,6,12)     =    177.373164     0.000007     1.025381   178.398544
	   66 D(5,4,3,9)      =    179.146753    -0.000002    -0.277970   178.868783
	   67 D(5,6,1,7)      =    179.776197    -0.000008    -1.029414   178.746783
	   68 D(6,1,2,8)      =   -177.126330     0.000005     0.614869  -176.511461
	   69 D(6,1,7,13)     =     36.464553    -0.000050    -7.617693    28.846861
	   70 D(6,1,7,14)     =   -143.535447     0.000010     0.082417  -143.453030
	   71 D(6,5,4,10)     =    179.774125    -0.000002    -0.274468   179.499658
	   72 D(7,1,2,8)      =      2.873717     0.000004     0.627725     3.501442
	   73 D(7,1,6,12)     =      2.873609    -0.000013    -1.589993     1.283616
	   74 D(8,2,3,9)      =     -2.002610     0.000001     0.122029    -1.880580
	   75 D(9,3,4,10)     =     -0.853247     0.000000     0.058712    -0.794535
	   76 D(10,4,5,11)    =     -0.853247     0.000001     0.111042    -0.742205
	   77 D(11,5,6,12)    =     -2.002502     0.000005     0.641622    -1.360880
	   78 D(13,7,14,15)   =      6.269735     0.000043     5.228439    11.498174
	   79 D(13,7,14,16)   =   -169.237323     0.000063     7.590145  -161.647178
	   80 D(14,7,13,17)   =   -140.000015    -0.000060    -7.621574  -147.621588
	   81 D(14,7,13,18)   =     35.507013    -0.000167   -18.769715    16.737297
	 ---------------------------------------------------------------------------
	Successfully symmetrized geometry.

  ==> Convergence Check <==

  Measures of convergence in internal coordinates in au.
  Criteria marked as inactive (o), active & met (*), and active & unmet ( ).
  --------------------------------------------------------------------------------------------- ~
   Step     Total Energy     Delta E     MAX Force     RMS Force      MAX Disp      RMS Disp    ~
  --------------------------------------------------------------------------------------------- ~
    Convergence Criteria    1.00e-06 *    3.00e-04 *             o    1.20e-03 *             o  ~
  --------------------------------------------------------------------------------------------- ~
      1    -381.46167918   -3.81e+02      1.30e-02      2.31e-03 o    3.28e-01      5.39e-02 o  ~
  ---------------------------------------------------------------------------------------------

	Writing optimization data to binary file.
	Structure for next step:
	Cartesian Geometry (in Angstrom)
	    C    -0.0290963939   0.0288464770  -0.1701483928
	    C     0.0348901681   1.2433652140   0.5444949394
	    C     0.0578775344   1.2242432999   1.9347098359
	    C     0.0179465064   0.0023215694   2.6159806148
	    C    -0.0518860179  -1.2041117586   1.9097485344
	    C    -0.0856963470  -1.1973968165   0.5188029846
	    C    -0.0374068742   0.0227818378  -1.6318032288
	    H     0.0217790004   2.1941175309   0.0184996727
	    H     0.0935163993   2.1576688977   2.4878130884
	    H     0.0358297298  -0.0090201295   3.7017354867
	    H    -0.0759611657  -2.1487925736   2.4434134609
	    H    -0.1137065162  -2.1328891578  -0.0335143689
	    N    -0.6535209999  -0.9727526824  -2.2997787918
	    N     0.6865783628   0.9071444677  -2.3087841207
	    H     0.6570273812   0.9653087749  -3.3215798231
	    H     1.3700066718   1.4823515768  -1.8302353305
	    H    -1.5429092837  -1.3388016062  -1.9662173123
	    H    -0.3729541556  -1.2108139214  -3.2638782488
			--------------------------
			 OPTKING Finished Execution 
			--------------------------

    Structure for next step:
    Molecular point group: c1
    Full point group: C1

    Geometry (in Angstrom), charge = 1, multiplicity = 1:

    C           -0.029096393871     0.028846477005    -0.170148392795
    C            0.034890168132     1.243365213951     0.544494939356
    C            0.057877534359     1.224243299852     1.934709835860
    C            0.017946506407     0.002321569438     2.615980614823
    C           -0.051886017901    -1.204111758577     1.909748534382
    C           -0.085696347035    -1.197396816472     0.518802984555
    C           -0.037406874171     0.022781837803    -1.631803228825
    H            0.021779000423     2.194117530875     0.018499672725
    H            0.093516399282     2.157668897677     2.487813088378
    H            0.035829729805    -0.009020129518     3.701735486707
    H           -0.075961165727    -2.148792573553     2.443413460919
    H           -0.113706516198    -2.132889157848    -0.033514368925
    N           -0.653520999902    -0.972752682432    -2.299778791787
    N            0.686578362767     0.907144467666    -2.308784120666
    H            0.657027381209     0.965308774937    -3.321579823119
    H            1.370006671771     1.482351576787    -1.830235330539
    H           -1.542909283739    -1.338801606172    -1.966217312260
    H           -0.372954155611    -1.210813921420    -3.263878248788

gradient() will perform analytic gradient computation.

*** tstart() called on computer06
*** at Tue Dec 12 14:35:19 2017

   => Loading Basis Set <=

    Name: 6-31G*
    Role: ORBITAL
    Keyword: BASIS
    atoms 1-7         entry C          line   102 file /shared/raimis/opt/miniconda/share/psi4/basis/6-31gs.gbs 
    atoms 8-12, 15-18 entry H          line    35 file /shared/raimis/opt/miniconda/share/psi4/basis/6-31gs.gbs 
    atoms 13-14       entry N          line   119 file /shared/raimis/opt/miniconda/share/psi4/basis/6-31gs.gbs 


         ---------------------------------------------------------
                                   SCF
            by Justin Turney, Rob Parrish, and Andy Simmonett
                              RKS Reference
                        1 Threads,   3000 MiB Core
         ---------------------------------------------------------

  ==> Geometry <==

    Molecular point group: c1
    Full point group: C1

    Geometry (in Angstrom), charge = 1, multiplicity = 1:

       Center              X                  Y                   Z               Mass       
    ------------   -----------------  -----------------  -----------------  -----------------
           C         -0.029096393871     0.028846477005    -0.170148392795    12.000000000000
           C          0.034890168132     1.243365213951     0.544494939356    12.000000000000
           C          0.057877534359     1.224243299852     1.934709835860    12.000000000000
           C          0.017946506407     0.002321569438     2.615980614823    12.000000000000
           C         -0.051886017901    -1.204111758577     1.909748534382    12.000000000000
           C         -0.085696347035    -1.197396816472     0.518802984555    12.000000000000
           C         -0.037406874171     0.022781837803    -1.631803228825    12.000000000000
           H          0.021779000423     2.194117530875     0.018499672725     1.007825032070
           H          0.093516399282     2.157668897677     2.487813088378     1.007825032070
           H          0.035829729805    -0.009020129518     3.701735486707     1.007825032070
           H         -0.075961165727    -2.148792573553     2.443413460919     1.007825032070
           H         -0.113706516198    -2.132889157848    -0.033514368925     1.007825032070
           N         -0.653520999902    -0.972752682432    -2.299778791787    14.003074004780
           N          0.686578362767     0.907144467666    -2.308784120666    14.003074004780
           H          0.657027381209     0.965308774937    -3.321579823119     1.007825032070
           H          1.370006671771     1.482351576787    -1.830235330539     1.007825032070
           H         -1.542909283739    -1.338801606172    -1.966217312260     1.007825032070
           H         -0.372954155611    -1.210813921420    -3.263878248788     1.007825032070

  Running in c1 symmetry.

  Rotational constants: A =      0.12147  B =      0.03967  C =      0.03113 [cm^-1]
  Rotational constants: A =   3641.57591  B =   1189.19439  C =    933.30955 [MHz]
  Nuclear repulsion =  416.345727968546498

  Charge       = 1
  Multiplicity = 1
  Electrons    = 64
  Nalpha       = 32
  Nbeta        = 32

  ==> Algorithm <==

  SCF Algorithm Type is DF.
  DIIS enabled.
  MOM disabled.
  Fractional occupation disabled.
  Guess Type is READ.
  Energy threshold   = 1.00e-08
  Density threshold  = 1.00e-08
  Integral threshold = 0.00e+00

  ==> Primary Basis <==

  Basis Set: 6-31G*
    Blend: 6-31G*
    Number of shells: 72
    Number of basis function: 153
    Number of Cartesian functions: 153
    Spherical Harmonics?: false
    Max angular momentum: 2

  ==> DFT Potential <==

   => B3LYP Composite Functional <= 

    B3LYP Hybrid-GGA Exchange-Correlation Functional (VWN1-RPA)

    P.J. Stephens et. al., J. Phys. Chem., 98, 11623-11627, 1994

    Points   =           5000
    Deriv    =              1
    GGA      =           TRUE
    Meta     =          FALSE

    X_LRC        =          FALSE
    X_Hybrid     =           TRUE
    X_Alpha      =   2.000000E-01
    X_Omega      =   0.000000E+00
    C_LRC        =          FALSE
    C_Hybrid     =          FALSE
    C_Alpha      =   0.000000E+00
    C_Omega      =   0.000000E+00

   => Exchange Functionals <=

    0.8000    B3_X
    0.2000      HF 

   => Correlation Functionals <=

    0.1900 VWN3RPA_C
    0.8100   LYP_C

   => Molecular Quadrature <=

    Radial Scheme    =       TREUTLER
    Pruning Scheme   =           FLAT
    Nuclear Scheme   =       TREUTLER

    BS radius alpha  =              1
    Pruning alpha    =              1
    Radial Points    =             75
    Spherical Points =            302
    Total Points     =         397010
    Total Blocks     =            363
    Max Points       =           4874
    Max Functions    =            152

   => -D3ZERO: Empirical Dispersion <=

    Grimme's -D3 (zero-damping) Dispersion Correction
    Grimme S.; Antony J.; Ehrlich S.; Krieg H. (2010), J. Chem. Phys., 132: 154104

        S6 =   1.000000E+00
        S8 =   1.703000E+00
       SR6 =   1.261000E+00
    ALPHA6 =   1.400000E+01

   => Loading Basis Set <=

    Name: (6-31G* AUX)
    Role: JKFIT
    Keyword: DF_BASIS_SCF
    atoms 1-7         entry C          line   120 file /shared/raimis/opt/miniconda/share/psi4/basis/cc-pvdz-jkfit.gbs 
    atoms 8-12, 15-18 entry H          line    50 file /shared/raimis/opt/miniconda/share/psi4/basis/cc-pvdz-jkfit.gbs 
    atoms 13-14       entry N          line   170 file /shared/raimis/opt/miniconda/share/psi4/basis/cc-pvdz-jkfit.gbs 

  Reading orbitals from file 180, no projection.

  ==> Pre-Iterations <==

   -------------------------------------------------------
    Irrep   Nso     Nmo     Nalpha   Nbeta   Ndocc  Nsocc
   -------------------------------------------------------
     A        153     153       0       0       0       0
   -------------------------------------------------------
    Total     153     153      32      32      32       0
   -------------------------------------------------------

  ==> Integral Setup <==

  ==> DFJK: Density-Fitted J/K Matrices <==

    J tasked:                  Yes
    K tasked:                  Yes
    wK tasked:                  No
    OpenMP threads:              1
    Integrals threads:           1
    Memory (MB):              2250
    Algorithm:                Core
    Integral Cache:           NONE
    Schwarz Cutoff:          1E-12
    Fitting Condition:       1E-12

   => Auxiliary Basis Set <=

  Basis Set: (6-31G* AUX)
    Blend: CC-PVDZ-JKFIT
    Number of shells: 297
    Number of basis function: 954
    Number of Cartesian functions: 954
    Spherical Harmonics?: false
    Max angular momentum: 3

  Minimum eigenvalue in the overlap matrix is 4.8923568705E-04.
  Using Symmetric Orthogonalization.

  SCF Guess: Orbitals guess was supplied from a previous computation.

  ==> Iterations <==

                           Total Energy        Delta E     RMS |[F,P]|

   @DF-RKS iter   0:  -381.42986826009991   -3.81430e+02   1.14914e-03 
   @DF-RKS iter   1:  -381.46526620036542   -3.53979e-02   1.54051e-04 
   @DF-RKS iter   2:  -381.46518771439719    7.84860e-05   1.95268e-04 DIIS
   @DF-RKS iter   3:  -381.46560659149748   -4.18877e-04   4.02200e-05 DIIS
   @DF-RKS iter   4:  -381.46562001014945   -1.34187e-05   2.20488e-05 DIIS
   @DF-RKS iter   5:  -381.46562539915703   -5.38901e-06   5.57557e-06 DIIS
   @DF-RKS iter   6:  -381.46562574381818   -3.44661e-07   1.81536e-06 DIIS
   @DF-RKS iter   7:  -381.46562578176764   -3.79495e-08   5.21416e-07 DIIS
   @DF-RKS iter   8:  -381.46562578465529   -2.88765e-09   1.88611e-07 DIIS
   @DF-RKS iter   9:  -381.46562578509372   -4.38433e-10   4.77988e-08 DIIS
   @DF-RKS iter  10:  -381.46562578511475   -2.10321e-11   2.05798e-08 DIIS
   @DF-RKS iter  11:  -381.46562578511970   -4.94538e-12   7.36717e-09 DIIS

  ==> Post-Iterations <==

    Orbital Energies (a.u.)
    -----------------------

    Doubly Occupied:                                                      

       1A    -14.570927     2A    -14.562500     3A    -10.495602  
       4A    -10.371853     5A    -10.356715     6A    -10.355296  
       7A    -10.344862     8A    -10.340855     9A    -10.340097  
      10A     -1.179119    11A     -1.085188    12A     -1.013657  
      13A     -0.925816    14A     -0.901848    15A     -0.841609  
      16A     -0.780978    17A     -0.770052    18A     -0.736998  
      19A     -0.729256    20A     -0.693972    21A     -0.668835  
      22A     -0.625222    23A     -0.609596    24A     -0.581923  
      25A     -0.578992    26A     -0.567528    27A     -0.517449  
      28A     -0.505366    29A     -0.497657    30A     -0.471723  
      31A     -0.412687    32A     -0.405563  

    Virtual:                                                              

      33A     -0.226220    34A     -0.156070    35A     -0.129204  
      36A     -0.107953    37A     -0.070728    38A     -0.059939  
      39A     -0.036766    40A     -0.028739    41A      0.008645  
      42A      0.014478    43A      0.022478    44A      0.053584  
      45A      0.061576    46A      0.086622    47A      0.128160  
      48A      0.141328    49A      0.157507    50A      0.158646  
      51A      0.202604    52A      0.241801    53A      0.299988  
      54A      0.353958    55A      0.356411    56A      0.381526  
      57A      0.390178    58A      0.397374    59A      0.419332  
      60A      0.424281    61A      0.441963    62A      0.448241  
      63A      0.454217    64A      0.471257    65A      0.474449  
      66A      0.476003    67A      0.485708    68A      0.516341  
      69A      0.521503    70A      0.537495    71A      0.543710  
      72A      0.595525    73A      0.606573    74A      0.655893  
      75A      0.662318    76A      0.682735    77A      0.689508  
      78A      0.702869    79A      0.713817    80A      0.717949  
      81A      0.729412    82A      0.759299    83A      0.774369  
      84A      0.793420    85A      0.807218    86A      0.822931  
      87A      0.853774    88A      0.935824    89A      0.942998  
      90A      0.979136    91A      1.002432    92A      1.024369  
      93A      1.065318    94A      1.100233    95A      1.108343  
      96A      1.152355    97A      1.214746    98A      1.277163  
      99A      1.281939   100A      1.308566   101A      1.325150  
     102A      1.342132   103A      1.358919   104A      1.385926  
     105A      1.408548   106A      1.449692   107A      1.522182  
     108A      1.618815   109A      1.650335   110A      1.655289  
     111A      1.676536   112A      1.737987   113A      1.753515  
     114A      1.794578   115A      1.821519   116A      1.826609  
     117A      1.879195   118A      1.901869   119A      1.961786  
     120A      1.972003   121A      1.988931   122A      1.999192  
     123A      2.026629   124A      2.045800   125A      2.121864  
     126A      2.134193   127A      2.154366   128A      2.184888  
     129A      2.252412   130A      2.284024   131A      2.345223  
     132A      2.372907   133A      2.444885   134A      2.453589  
     135A      2.486275   136A      2.507634   137A      2.544618  
     138A      2.587205   139A      2.600499   140A      2.630055  
     141A      2.736178   142A      2.841178   143A      2.987107  
     144A      3.256871   145A      3.628205   146A      3.654489  
     147A      3.910479   148A      3.945746   149A      3.963821  
     150A      4.045425   151A      4.172924   152A      4.254882  
     153A      4.546267  

    Final Occupation by Irrep:
              A 
    DOCC [    32 ]

  Energy converged.

  @DF-RKS Final Energy:  -381.46562578511970

   => Energetics <=

    Nuclear Repulsion Energy =            416.3457279685464982
    One-Electron Energy =               -1328.0066400147627519
    Two-Electron Energy =                 574.5966718262853874
    DFT Exchange-Correlation Energy =     -44.3894494451888519
    Empirical Dispersion Energy =          -0.0119361200000000
    PCM Polarization Energy =               0.0000000000000000
    EFP Energy =                            0.0000000000000000
    Total Energy =                       -381.4656257851196983



Properties will be evaluated at   0.000000,   0.000000,   0.000000 Bohr

Properties computed using the SCF density matrix

  Nuclear Dipole Moment: (a.u.)
     X:    -0.4841      Y:     0.4161      Z:     0.5798

  Electronic Dipole Moment: (a.u.)
     X:     0.5196      Y:    -0.3693      Z:    -2.8087

  Dipole Moment: (a.u.)
     X:     0.0354      Y:     0.0468      Z:    -2.2290     Total:     2.2297

  Dipole Moment: (Debye)
     X:     0.0900      Y:     0.1188      Z:    -5.6655     Total:     5.6674


*** tstop() called on computer06 at Tue Dec 12 14:36:33 2017
Module time:
	user time   =      73.44 seconds =       1.22 minutes
	system time =       0.55 seconds =       0.01 minutes
	total time  =         74 seconds =       1.23 minutes
Total time:
	user time   =     189.16 seconds =       3.15 minutes
	system time =       1.70 seconds =       0.03 minutes
	total time  =        191 seconds =       3.18 minutes

*** tstart() called on computer06
*** at Tue Dec 12 14:36:33 2017


         ------------------------------------------------------------
                                   SCF GRAD                          
                          Rob Parrish, Justin Turney,                
                       Andy Simmonett, and Alex Sokolov              
         ------------------------------------------------------------

  ==> Geometry <==

    Molecular point group: c1
    Full point group: C1

    Geometry (in Angstrom), charge = 1, multiplicity = 1:

       Center              X                  Y                   Z               Mass       
    ------------   -----------------  -----------------  -----------------  -----------------
           C         -0.029096393871     0.028846477005    -0.170148392795    12.000000000000
           C          0.034890168132     1.243365213951     0.544494939356    12.000000000000
           C          0.057877534359     1.224243299852     1.934709835860    12.000000000000
           C          0.017946506407     0.002321569438     2.615980614823    12.000000000000
           C         -0.051886017901    -1.204111758577     1.909748534382    12.000000000000
           C         -0.085696347035    -1.197396816472     0.518802984555    12.000000000000
           C         -0.037406874171     0.022781837803    -1.631803228825    12.000000000000
           H          0.021779000423     2.194117530875     0.018499672725     1.007825032070
           H          0.093516399282     2.157668897677     2.487813088378     1.007825032070
           H          0.035829729805    -0.009020129518     3.701735486707     1.007825032070
           H         -0.075961165727    -2.148792573553     2.443413460919     1.007825032070
           H         -0.113706516198    -2.132889157848    -0.033514368925     1.007825032070
           N         -0.653520999902    -0.972752682432    -2.299778791787    14.003074004780
           N          0.686578362767     0.907144467666    -2.308784120666    14.003074004780
           H          0.657027381209     0.965308774937    -3.321579823119     1.007825032070
           H          1.370006671771     1.482351576787    -1.830235330539     1.007825032070
           H         -1.542909283739    -1.338801606172    -1.966217312260     1.007825032070
           H         -0.372954155611    -1.210813921420    -3.263878248788     1.007825032070

  Nuclear repulsion =  416.345727968546498

  ==> Basis Set <==

  Basis Set: 6-31G*
    Blend: 6-31G*
    Number of shells: 72
    Number of basis function: 153
    Number of Cartesian functions: 153
    Spherical Harmonics?: false
    Max angular momentum: 2

  ==> DFJKGrad: Density-Fitted SCF Gradients <==

    Gradient:                    1
    J tasked:                  Yes
    K tasked:                  Yes
    wK tasked:                  No
    OpenMP threads:              1
    Integrals threads:           1
    Memory (MB):              2250
    Schwarz Cutoff:          0E+00
    Fitting Condition:       1E-12

   => Auxiliary Basis Set <=

  Basis Set: (6-31G* AUX)
    Blend: CC-PVDZ-JKFIT
    Number of shells: 297
    Number of basis function: 954
    Number of Cartesian functions: 954
    Spherical Harmonics?: false
    Max angular momentum: 3

  ==> DFT Potential <==

   => B3LYP Composite Functional <= 

    B3LYP Hybrid-GGA Exchange-Correlation Functional (VWN1-RPA)

    P.J. Stephens et. al., J. Phys. Chem., 98, 11623-11627, 1994

    Points   =           5000
    Deriv    =              1
    GGA      =           TRUE
    Meta     =          FALSE

    X_LRC        =          FALSE
    X_Hybrid     =           TRUE
    X_Alpha      =   2.000000E-01
    X_Omega      =   0.000000E+00
    C_LRC        =          FALSE
    C_Hybrid     =          FALSE
    C_Alpha      =   0.000000E+00
    C_Omega      =   0.000000E+00

   => Exchange Functionals <=

    0.8000    B3_X
    0.2000      HF 

   => Correlation Functionals <=

    0.1900 VWN3RPA_C
    0.8100   LYP_C

   => Molecular Quadrature <=

    Radial Scheme    =       TREUTLER
    Pruning Scheme   =           FLAT
    Nuclear Scheme   =       TREUTLER

    BS radius alpha  =              1
    Pruning alpha    =              1
    Radial Points    =             75
    Spherical Points =            302
    Total Points     =         397010
    Total Blocks     =            363
    Max Points       =           4874
    Max Functions    =            152


  -Total Gradient:
     Atom            X                  Y                   Z
    ------   -----------------  -----------------  -----------------
       1        0.007844362378    -0.004881621285     0.001364938144
       2       -0.000445076496     0.000379297234     0.000042449292
       3       -0.000134053727     0.000082263797     0.000682619543
       4        0.000158451295     0.000722554605     0.000278870607
       5        0.000289168512    -0.000384823372    -0.000073289736
       6        0.000203906893     0.001002145702    -0.001285188184
       7       -0.006089113410     0.013125529496     0.000903906651
       8        0.000018341439     0.000132369813     0.000288664538
       9       -0.000007680924     0.000304801658     0.000160761502
      10       -0.000143789354     0.000091449781     0.000146003509
      11       -0.000062861216    -0.000151439681    -0.000117500986
      12       -0.000414604205    -0.000856452531    -0.000775847376
      13       -0.001951742758    -0.005509079792     0.011269224429
      14       -0.001492181635    -0.000165472190     0.001418372150
      15        0.000175399864    -0.000827401861    -0.001132172790
      16        0.000666386456     0.000137256976     0.000369466238
      17       -0.007665908124     0.002775422886    -0.001289916043
      18        0.009048804643    -0.005983828163    -0.012268385078


*** tstop() called on computer06 at Tue Dec 12 14:36:54 2017
Module time:
	user time   =      19.99 seconds =       0.33 minutes
	system time =       0.36 seconds =       0.01 minutes
	total time  =         21 seconds =       0.35 minutes
Total time:
	user time   =     209.15 seconds =       3.49 minutes
	system time =       2.06 seconds =       0.03 minutes
	total time  =        212 seconds =       3.53 minutes

			-----------------------------------------
			 OPTKING 2.0: for geometry optimizations 
			  - R.A. King,  Bethel University        
			-----------------------------------------
	At level 1: Red. Int., RFO, no backsteps, dynamic trust

	Previous internal coordinate definitions found.
	---Fragment 1 Geometry and Gradient---
	 C          -0.0549842159        0.0545119414       -0.3215338643
	 C           0.0659328625        2.3496197375        1.0289463161
	 C           0.1093726892        2.3134845567        3.6560717364
	 C           0.0339139822        0.0043871304        4.9434869310
	 C          -0.0980503640       -2.2754414571        3.6089017127
	 C          -0.1619426265       -2.2627520555        0.9803955577
	 C          -0.0706887477        0.0430514343       -3.0836612052
	 H           0.0411563462        4.1462812367        0.0349593150
	 H           0.1767203836        4.0774033021        4.7012854068
	 H           0.0677083767       -0.0170455745        6.9952662863
	 H          -0.1435458000       -4.0606294804        4.6173822705
	 H          -0.2148741751       -4.0305763801       -0.0633329788
	 N          -1.2349757119       -1.8382361648       -4.3459520827
	 N           1.2974450744        1.7142546069       -4.3629696880
	 H           1.2416018123        1.8241692183       -6.2768761942
	 H           2.5889374099        2.8012385128       -3.4586435335
	 H          -2.9156759942       -2.5299683819       -3.7156122379
	 H          -0.7047812142       -2.2881067094       -6.1678360213
	             0.0078443624       -0.0048816213        0.0013649381
	            -0.0004450765        0.0003792972        0.0000424493
	            -0.0001340537        0.0000822638        0.0006826195
	             0.0001584513        0.0007225546        0.0002788706
	             0.0002891685       -0.0003848234       -0.0000732897
	             0.0002039069        0.0010021457       -0.0012851882
	            -0.0060891134        0.0131255295        0.0009039067
	             0.0000183414        0.0001323698        0.0002886645
	            -0.0000076809        0.0003048017        0.0001607615
	            -0.0001437894        0.0000914498        0.0001460035
	            -0.0000628612       -0.0001514397       -0.0001175010
	            -0.0004146042       -0.0008564525       -0.0007758474
	            -0.0019517428       -0.0055090798        0.0112692244
	            -0.0014921816       -0.0001654722        0.0014183721
	             0.0001753999       -0.0008274019       -0.0011321728
	             0.0006663865        0.0001372570        0.0003694662
	            -0.0076659081        0.0027754229       -0.0012899160
	             0.0090488046       -0.0059838282       -0.0122683851

	---Fragment 1 Intrafragment Coordinates---
	 - Coordinate -           - BOHR/RAD -       - ANG/DEG -
	 R(1,2)           =         2.665696	       1.410626
	 R(1,6)           =         2.660108	       1.407668
	 R(1,7)           =         2.762196	       1.461691
	 R(2,3)           =         2.627733	       1.390536
	 R(2,8)           =         2.053440	       1.086634
	 R(3,4)           =         2.644818	       1.399577
	 R(3,9)           =         2.051443	       1.085577
	 R(4,5)           =         2.645024	       1.399686
	 R(4,10)          =         2.052170	       1.085961
	 R(5,6)           =         2.629313	       1.391373
	 R(5,11)          =         2.050853	       1.085265
	 R(6,12)          =         2.053625	       1.086731
	 R(7,13)          =         2.547192	       1.347916
	 R(7,14)          =         2.510247	       1.328366
	 R(13,17)         =         1.923688	       1.017972
	 R(13,18)         =         1.950064	       1.031930
	 R(14,15)         =         1.917873	       1.014895
	 R(14,16)         =         1.915018	       1.013384
	 B(1,2,3)         =         2.089100	     119.696618
	 B(1,2,8)         =         2.103119	     120.499857
	 B(1,6,5)         =         2.085761	     119.505307
	 B(1,6,12)        =         2.096909	     120.144042
	 B(1,7,13)        =         2.095796	     120.080263
	 B(1,7,14)        =         2.098743	     120.249132
	 B(2,1,6)         =         2.098888	     120.257415
	 B(2,1,7)         =         2.106483	     120.692609
	 B(2,3,4)         =         2.092307	     119.880364
	 B(2,3,9)         =         2.092206	     119.874548
	 B(3,2,8)         =         2.089988	     119.747512
	 B(3,4,5)         =         2.104051	     120.553247
	 B(3,4,10)        =         2.089005	     119.691166
	 B(4,3,9)         =         2.098587	     120.240167
	 B(4,5,6)         =         2.096084	     120.096789
	 B(4,5,11)        =         2.098177	     120.216665
	 B(5,4,10)        =         2.090114	     119.754735
	 B(5,6,12)        =         2.099661	     120.301692
	 B(6,1,7)         =         2.077814	     119.049975
	 B(6,5,11)        =         2.088917	     119.686106
	 B(7,13,17)       =         2.097341	     120.168803
	 B(7,13,18)       =         2.104933	     120.603761
	 B(7,14,15)       =         2.130418	     122.063961
	 B(7,14,16)       =         2.099931	     120.317182
	 B(13,7,14)       =         2.080906	     119.227112
	 B(15,14,16)      =         2.046944	     117.281239
	 B(17,13,18)      =         2.049605	     117.433719
	 D(1,2,3,4)       =         0.000388	       0.022226
	 D(1,2,3,9)       =        -3.127155	    -179.172776
	 D(1,6,5,4)       =         0.016396	       0.939450
	 D(1,6,5,11)      =        -3.120997	    -178.819975
	*D(1,7,13,17)     =         0.698131	      39.999985
	 D(1,7,13,18)     =        -2.716450	    -155.641129
	 D(1,7,14,15)     =        -3.074163	    -176.136544
	 D(1,7,14,16)     =         0.187066	      10.718104
	 D(2,1,6,5)       =        -0.021651	      -1.240524
	 D(2,1,6,12)      =        -3.118968	    -178.703691
	 D(2,1,7,13)      =        -2.638342	    -151.165889
	 D(2,1,7,14)      =         0.637642	      36.534220
	 D(2,3,4,5)       =        -0.005642	      -0.323241
	 D(2,3,4,10)      =        -3.141358	    -179.986559
	 D(3,2,1,6)       =         0.013265	       0.760008
	 D(3,2,1,7)       =        -3.128103	    -179.227088
	 D(3,4,5,6)       =        -0.002853	      -0.163447
	 D(3,4,5,11)      =         3.134519	     179.594690
	 D(4,3,2,8)       =         3.094720	     177.314421
	 D(4,5,6,12)      =         3.113642	     178.398544
	 D(5,4,3,9)       =         3.121849	     178.868783
	 D(5,6,1,7)       =         3.119720	     178.746783
	 D(6,1,2,8)       =        -3.080706	    -176.511461
	 D(6,1,7,13)      =         0.503473	      28.846861
	 D(6,1,7,14)      =        -2.503728	    -143.453030
	 D(6,5,4,10)      =         3.132860	     179.499658
	 D(7,1,2,8)       =         0.061112	       3.501442
	 D(7,1,6,12)      =         0.022403	       1.283616
	 D(8,2,3,9)       =        -0.032822	      -1.880580
	 D(9,3,4,10)      =        -0.013867	      -0.794535
	 D(10,4,5,11)     =        -0.012954	      -0.742205
	 D(11,5,6,12)     =        -0.023752	      -1.360880
	 D(13,7,14,15)    =         0.200681	      11.498174
	 D(13,7,14,16)    =        -2.821275	    -161.647178
	 D(14,7,13,17)    =        -2.576483	    -147.621588
	 D(14,7,13,18)    =         0.292121	      16.737297

	Current energy   :      -381.4656257851

	Energy change for the previous step:
		Projected    :        -0.0027096945
		Actual       :        -0.0039466049
	Energy ratio indicates good step: Trust radius increased to 1.000e+00.


	Performing BFGS update.
	Previous computed or guess Hessian on step 1.
	Steps to be used in Hessian update: 1
	Taking RFO optimization step.
	Going to follow RFO solution 1.
	Using RFO vector 1.
	Norm of target step-size    0.37212
	Projected energy change by RFO approximation:        -0.0014830499

	Back-transformation to cartesian coordinates...
	Could not converge backtransformation.
	Using first guess instead.

	Back-transformation to cartesian coordinates to adjust frozen coordinates...
	Successfully converged to displaced geometry.

	--- Internal Coordinate Step in ANG or DEG, aJ/ANG or AJ/DEG ---
	 ---------------------------------------------------------------------------
	   Coordinate                Previous        Force       Change         New 
	   ----------                --------       ------       ------       ------
	    1 R(1,2)          =      1.410626    -0.009491    -0.000530     1.410096
	    2 R(1,6)          =      1.407668     0.010332     0.001798     1.409466
	    3 R(1,7)          =      1.461691    -0.006176    -0.002173     1.459518
	    4 R(2,3)          =      1.390536    -0.005234    -0.000823     1.389714
	    5 R(2,8)          =      1.086634     0.000201     0.000252     1.086886
	    6 R(3,4)          =      1.399577     0.000057     0.000440     1.400017
	    7 R(3,9)          =      1.085577    -0.002838    -0.000325     1.085252
	    8 R(4,5)          =      1.399686    -0.009156    -0.000855     1.398831
	    9 R(4,10)         =      1.085961    -0.001183    -0.000045     1.085916
	   10 R(5,6)          =      1.391373    -0.003663    -0.000288     1.391085
	   11 R(5,11)         =      1.085265    -0.000623     0.000031     1.085296
	   12 R(6,12)         =      1.086731    -0.009405    -0.001519     1.085212
	   13 R(7,13)         =      1.347916    -0.064509    -0.002466     1.345450
	   14 R(7,14)         =      1.328366     0.010367     0.001448     1.329813
	   15 R(13,17)        =      1.017972    -0.043475    -0.004390     1.013582
	   16 R(13,18)        =      1.031930    -0.126066     0.011905     1.043834
	   17 R(14,15)        =      1.014895    -0.008867    -0.000346     1.014548
	   18 R(14,16)        =      1.013384    -0.005790     0.000009     1.013392
	   19 B(1,2,3)        =    119.696618     0.000004     0.019435   119.716054
	   20 B(1,2,8)        =    120.499857    -0.000027    -0.127624   120.372233
	   21 B(1,6,5)        =    119.505307     0.000017     0.039375   119.544683
	   22 B(1,6,12)       =    120.144042     0.000009    -0.050395   120.093647
	   23 B(1,7,13)       =    120.080263     0.000074     0.399016   120.479278
	   24 B(1,7,14)       =    120.249132    -0.000053    -0.014216   120.234917
	   25 B(2,1,6)        =    120.257415    -0.000034    -0.070429   120.186986
	   26 B(2,1,7)        =    120.692609    -0.000156    -0.309817   120.382792
	   27 B(2,3,4)        =    119.880364     0.000026     0.031586   119.911950
	   28 B(2,3,9)        =    119.874548    -0.000012     0.003798   119.878345
	   29 B(3,2,8)        =    119.747512     0.000023     0.115351   119.862863
	   30 B(3,4,5)        =    120.553247     0.000001     0.020300   120.573547
	   31 B(3,4,10)       =    119.691166     0.000006     0.015065   119.706230
	   32 B(4,3,9)        =    120.240167    -0.000014    -0.035508   120.204658
	   33 B(4,5,6)        =    120.096789    -0.000014    -0.036301   120.060488
	   34 B(4,5,11)       =    120.216665    -0.000007    -0.043893   120.172772
	   35 B(5,4,10)       =    119.754735    -0.000007    -0.034527   119.720208
	   36 B(5,6,12)       =    120.301692    -0.000027     0.000046   120.301738
	   37 B(6,1,7)        =    119.049975     0.000191     0.375535   119.425510
	   38 B(6,5,11)       =    119.686106     0.000021     0.077606   119.763712
	   39 B(7,13,17)      =    120.168803    -0.000046    -1.058912   119.109891
	   40 B(7,13,18)      =    120.603761     0.000105    -1.865312   118.738448
	   41 B(7,14,15)      =    122.063961     0.000049     0.134441   122.198402
	   42 B(7,14,16)      =    120.317182    -0.000013     0.131130   120.448312
	   43 B(13,7,14)      =    119.227112    -0.000008    -0.124738   119.102374
	   44 B(15,14,16)     =    117.281239    -0.000029    -0.113672   117.167567
	   45 B(17,13,18)     =    117.433719    -0.000146    -2.379866   115.053853
	   46 D(1,2,3,4)      =      0.022226    -0.000001    -0.152718    -0.130492
	   47 D(1,2,3,9)      =   -179.172776    -0.000001    -0.142279  -179.315055
	   48 D(1,6,5,4)      =      0.939450    -0.000002    -0.270792     0.668658
	   49 D(1,6,5,11)     =   -178.819975     0.000001     0.120486  -178.699489
	   50 *D(1,7,13,17)   =     39.999985    -0.000000    -0.000000    39.999985
	   51 D(1,7,13,18)    =   -155.641129    -0.000090   -15.253051  -170.894180
	   52 D(1,7,14,15)    =   -176.136544     0.000024     3.210971  -172.925573
	   53 D(1,7,14,16)    =     10.718104     0.000008     1.450429    12.168533
	   54 D(2,1,6,5)      =     -1.240524     0.000002     0.257578    -0.982946
	   55 D(2,1,6,12)     =   -178.703691     0.000005     0.527310  -178.176381
	   56 D(2,1,7,13)     =   -151.165889     0.000007    -0.513585  -151.679474
	   57 D(2,1,7,14)     =     36.534220    -0.000018    -3.247845    33.286374
	   58 D(2,3,4,5)      =     -0.323241     0.000001     0.139577    -0.183664
	   59 D(2,3,4,10)     =   -179.986559    -0.000001    -0.152908  -180.139467
	   60 D(3,2,1,6)      =      0.760008    -0.000001    -0.045923     0.714086
	   61 D(3,2,1,7)      =   -179.227088     0.000003     0.735374  -178.491714
	   62 D(3,4,5,6)      =     -0.163447     0.000001     0.074428    -0.089019
	   63 D(3,4,5,11)     =    179.594690    -0.000002    -0.318168   179.276521
	   64 D(4,3,2,8)      =    177.314421    -0.000000     0.022942   177.337363
	   65 D(4,5,6,12)     =    178.398544    -0.000004    -0.542395   177.856149
	   66 D(5,4,3,9)      =    178.868783     0.000001     0.129426   178.998208
	   67 D(5,6,1,7)      =    178.746783    -0.000002    -0.516334   178.230449
	   68 D(6,1,2,8)      =   -176.511461    -0.000002    -0.229207  -176.740669
	   69 D(6,1,7,13)     =     28.846861     0.000011     0.261842    29.108702
	   70 D(6,1,7,14)     =   -143.453030    -0.000014    -2.472419  -145.925450
	   71 D(6,5,4,10)     =    179.499658     0.000003     0.367121   179.866778
	   72 D(7,1,2,8)      =      3.501442     0.000002     0.552089     4.053532
	   73 D(7,1,6,12)     =      1.283616     0.000001    -0.246601     1.037015
	   74 D(8,2,3,9)      =     -1.880580    -0.000000     0.033381    -1.847200
	   75 D(9,3,4,10)     =     -0.794535    -0.000001    -0.163059    -0.957595
	   76 D(10,4,5,11)    =     -0.742205    -0.000000    -0.025476    -0.767682
	   77 D(11,5,6,12)    =     -1.360880    -0.000002    -0.151118    -1.511998
	   78 D(13,7,14,15)   =     11.498174    -0.000002     0.474078    11.972252
	   79 D(13,7,14,16)   =   -161.647178    -0.000018    -1.286464  -162.933642
	   80 D(14,7,13,17)   =   -147.621588     0.000024     2.711468  -144.910120
	   81 D(14,7,13,18)   =     16.737297    -0.000066   -12.541582     4.195715
	 ---------------------------------------------------------------------------
	Successfully symmetrized geometry.

  ==> Convergence Check <==

  Measures of convergence in internal coordinates in au.
  Criteria marked as inactive (o), active & met (*), and active & unmet ( ).
  ---------------------------------------------------------------------------------------------
   Step     Total Energy     Delta E     MAX Force     RMS Force      MAX Disp      RMS Disp   
  ---------------------------------------------------------------------------------------------
    Convergence Criteria    1.00e-06 *    3.00e-04 *             o    1.20e-03 *             o
  ---------------------------------------------------------------------------------------------
      2    -381.46562579   -3.95e-03      1.53e-02      2.23e-03 o    2.66e-01      4.09e-02 o  ~
  ---------------------------------------------------------------------------------------------

	Writing optimization data to binary file.
	Structure for next step:
	Cartesian Geometry (in Angstrom)
	    C    -0.0212566760   0.0029911634  -0.1668669967
	    C     0.0432900404   1.2255580711   0.5327996182
	    C     0.0595914497   1.2239803828   1.9224169451
	    C     0.0091848310   0.0110789181   2.6198241058
	    C    -0.0615327857  -1.2038356564   1.9301061640
	    C    -0.0842388512  -1.2152135107   0.5392535119
	    C    -0.0060592659  -0.0140586648  -1.6262060690
	    H     0.0386723353   2.1687392811  -0.0073015290
	    H     0.0979901058   2.1638256781   2.4637001087
	    H     0.0244038355   0.0136283128   3.7056308497
	    H    -0.0884908693  -2.1408374664   2.4770683378
	    H    -0.1040181605  -2.1565469120  -0.0003620734
	    N    -0.6084366532  -1.0084400059  -2.3033932193
	    N     0.6871522597   0.8995695081  -2.2993660039
	    H     0.6355856887   0.9814520574  -3.3092890389
	    H     1.3517090742   1.4959330731  -1.8201178142
	    H    -1.5003630312  -1.3596196121  -1.9740163319
	    H    -0.4608693273  -1.0746336177  -3.3346215650
			--------------------------
			 OPTKING Finished Execution 
			--------------------------

    Structure for next step:
    Molecular point group: c1
    Full point group: C1

    Geometry (in Angstrom), charge = 1, multiplicity = 1:

    C           -0.021256676026     0.002991163370    -0.166866996666
    C            0.043290040423     1.225558071089     0.532799618231
    C            0.059591449741     1.223980382808     1.922416945110
    C            0.009184831050     0.011078918141     2.619824105777
    C           -0.061532785656    -1.203835656437     1.930106163986
    C           -0.084238851211    -1.215213510714     0.539253511898
    C           -0.006059265901    -0.014058664795    -1.626206068965
    H            0.038672335318     2.168739281106    -0.007301529016
    H            0.097990105767     2.163825678073     2.463700108701
    H            0.024403835472     0.013628312849     3.705630849746
    H           -0.088490869326    -2.140837466390     2.477068337760
    H           -0.104018160527    -2.156546911987    -0.000362073382
    N           -0.608436653244    -1.008440005865    -2.303393219251
    N            0.687152259670     0.899569508051    -2.299366003948
    H            0.635585688709     0.981452057425    -3.309289038916
    H            1.351709074190     1.495933073126    -1.820117814186
    H           -1.500363031187    -1.359619612119    -1.974016331887
    H           -0.460869327261    -1.074633617731    -3.334621564993

gradient() will perform analytic gradient computation.

*** tstart() called on computer06
*** at Tue Dec 12 14:36:54 2017

   => Loading Basis Set <=

    Name: 6-31G*
    Role: ORBITAL
    Keyword: BASIS
    atoms 1-7         entry C          line   102 file /shared/raimis/opt/miniconda/share/psi4/basis/6-31gs.gbs 
    atoms 8-12, 15-18 entry H          line    35 file /shared/raimis/opt/miniconda/share/psi4/basis/6-31gs.gbs 
    atoms 13-14       entry N          line   119 file /shared/raimis/opt/miniconda/share/psi4/basis/6-31gs.gbs 


         ---------------------------------------------------------
                                   SCF
            by Justin Turney, Rob Parrish, and Andy Simmonett
                              RKS Reference
                        1 Threads,   3000 MiB Core
         ---------------------------------------------------------

  ==> Geometry <==

    Molecular point group: c1
    Full point group: C1

    Geometry (in Angstrom), charge = 1, multiplicity = 1:

       Center              X                  Y                   Z               Mass       
    ------------   -----------------  -----------------  -----------------  -----------------
[...]
	            -0.0000089846       -0.0000014017       -0.0000053091
	             0.0000029429       -0.0000067591        0.0000179195
	            -0.0079611332        0.0057349887       -0.0014249324
	            -0.0000188124       -0.0000020455       -0.0000002540
	            -0.0000040254       -0.0000042840       -0.0000012908
	            -0.0000005432       -0.0000007914       -0.0000015182
	             0.0000005914        0.0000026156        0.0000029154
	            -0.0000105233        0.0000092071       -0.0000051754
	             0.0070897798       -0.0080593035        0.0057597405
	             0.0000218384        0.0000816614       -0.0000649691
	            -0.0000235286       -0.0000014311        0.0000105504
	             0.0000107133       -0.0000167288       -0.0000161583
	            -0.0034890703        0.0048847662       -0.0041392521
	             0.0000234701        0.0000181700       -0.0000875739

	---Fragment 1 Intrafragment Coordinates---
	 - Coordinate -           - BOHR/RAD -       - ANG/DEG -
	 R(1,2)           =         2.663412	       1.409417
	 R(1,6)           =         2.662260	       1.408807
	 R(1,7)           =         2.761322	       1.461228
	 R(2,3)           =         2.626839	       1.390064
	 R(2,8)           =         2.053383	       1.086603
	 R(3,4)           =         2.644068	       1.399181
	 R(3,9)           =         2.050555	       1.085107
	 R(4,5)           =         2.642904	       1.398564
	 R(4,10)          =         2.051736	       1.085732
	 R(5,6)           =         2.628192	       1.390779
	 R(5,11)          =         2.050633	       1.085148
	 R(6,12)          =         2.051160	       1.085427
	 R(7,13)          =         2.535885	       1.341932
	 R(7,14)          =         2.511662	       1.329114
	 R(13,17)         =         1.915807	       1.013802
	 R(13,18)         =         1.918586	       1.015272
	 R(14,15)         =         1.915330	       1.013549
	 R(14,16)         =         1.913080	       1.012359
	 B(1,2,3)         =         2.089525	     119.720977
	 B(1,2,8)         =         2.103189	     120.503866
	 B(1,6,5)         =         2.087341	     119.595814
	 B(1,6,12)        =         2.097660	     120.187052
	 B(1,7,13)        =         2.089772	     119.735117
	 B(1,7,14)        =         2.097133	     120.156847
	 B(2,1,6)         =         2.096729	     120.133735
	 B(2,1,7)         =         2.098548	     120.237941
	 B(2,3,4)         =         2.093728	     119.961802
	 B(2,3,9)         =         2.091428	     119.830014
	 B(3,2,8)         =         2.089290	     119.707510
	 B(3,4,5)         =         2.103167	     120.502604
	 B(3,4,10)        =         2.089716	     119.731881
	 B(4,3,9)         =         2.097951	     120.203721
	 B(4,5,6)         =         2.095821	     120.081684
	 B(4,5,11)        =         2.097518	     120.178957
	 B(5,4,10)        =         2.090302	     119.765458
	 B(5,6,12)        =         2.097072	     120.153393
	 B(6,1,7)         =         2.087907	     119.628255
	 B(6,5,11)        =         2.089792	     119.736273
	 B(7,13,17)       =         2.064401	     118.281448
	 B(7,13,18)       =         2.090381	     119.769982
	 B(7,14,15)       =         2.141122	     122.677238
	 B(7,14,16)       =         2.097527	     120.179450
	 B(13,7,14)       =         2.091262	     119.820477
	 B(15,14,16)      =         2.041269	     116.956087
	 B(17,13,18)      =         1.989654	     113.998797
	 D(1,2,3,4)       =         0.001038	       0.059456
	 D(1,2,3,9)       =        -3.127171	    -179.173680
	 D(1,6,5,4)       =         0.008863	       0.507796
	 D(1,6,5,11)      =        -3.121597	    -178.854317
	*D(1,7,13,17)     =         0.698131	      39.999985
	 D(1,7,13,18)     =        -3.017299	    -172.878501
	 D(1,7,14,15)     =        -3.046953	    -174.577524
	 D(1,7,14,16)     =         0.184108	      10.548627
	 D(2,1,6,5)       =        -0.012246	      -0.701665
	 D(2,1,6,12)      =        -3.103248	    -177.803027
	 D(2,1,7,13)      =        -2.640768	    -151.304880
	 D(2,1,7,14)      =         0.608497	      34.864333
	 D(2,3,4,5)       =        -0.004444	      -0.254611
	 D(2,3,4,10)      =         3.138664	     179.832172
	 D(3,2,1,6)       =         0.007292	       0.417808
	 D(3,2,1,7)       =        -3.132634	    -179.486710
	 D(3,4,5,6)       =        -0.000566	      -0.032409
	 D(3,4,5,11)      =         3.129844	     179.326856
	 D(4,3,2,8)       =         3.090699	     177.084000
	 D(4,5,6,12)      =         3.099882	     177.610148
	 D(5,4,3,9)       =         3.123714	     178.975629
	 D(5,6,1,7)       =         3.127690	     179.203436
	 D(6,1,2,8)       =        -3.081948	    -176.582639
	 D(6,1,7,13)      =         0.502482	      28.790120
	 D(6,1,7,14)      =        -2.531437	    -145.040667
	 D(6,5,4,10)      =         3.139512	     179.880779
	 D(7,1,2,8)       =         0.061311	       3.512844
	 D(7,1,6,12)      =         0.036688	       2.102074
	 D(8,2,3,9)       =        -0.037509	      -2.149135
	 D(9,3,4,10)      =        -0.016364	      -0.937588
	 D(10,4,5,11)     =        -0.013264	      -0.759956
	 D(11,5,6,12)     =        -0.030578	      -1.751964
	 D(13,7,14,15)    =         0.202405	      11.596971
	 D(13,7,14,16)    =        -2.849719	    -163.276878
	 D(14,7,13,17)    =        -2.550769	    -146.148282
	 D(14,7,13,18)    =         0.016986	       0.973232

	Current energy   :      -381.4675075686

	Energy change for the previous step:
		Projected    :        -0.0000005141
		Actual       :        -0.0000000758
	Energy ratio indicates iffy step: Trust radius decreased to 6.250e-02.


	Performing BFGS update.
	Previous computed or guess Hessian on step 1.
	Steps to be used in Hessian update: 6 5
	Taking RFO optimization step.
	Going to follow RFO solution 1.
	Rejecting RFO root 1 because normalization gives large value.
	Using RFO vector 2.
	Norm of target step-size    0.00520
	Projected energy change by RFO approximation:        -0.0000005673

	Back-transformation to cartesian coordinates...
	Could not converge backtransformation.
	Using first guess instead.

	Back-transformation to cartesian coordinates to adjust frozen coordinates...
	Successfully converged to displaced geometry.

	--- Internal Coordinate Step in ANG or DEG, aJ/ANG or AJ/DEG ---
	 ---------------------------------------------------------------------------
	   Coordinate                Previous        Force       Change         New 
	   ----------                --------       ------       ------       ------
	    1 R(1,2)          =      1.409417    -0.000142     0.000023     1.409440
	    2 R(1,6)          =      1.408807    -0.000030    -0.000027     1.408780
	    3 R(1,7)          =      1.461228     0.000640     0.000450     1.461679
	    4 R(2,3)          =      1.390064     0.000202     0.000046     1.390109
	    5 R(2,8)          =      1.086603     0.000013    -0.000013     1.086590
	    6 R(3,4)          =      1.399181    -0.000115    -0.000054     1.399126
	    7 R(3,9)          =      1.085107     0.000031     0.000009     1.085116
	    8 R(4,5)          =      1.398564     0.000107    -0.000002     1.398562
	    9 R(4,10)         =      1.085732     0.000005    -0.000005     1.085727
	   10 R(5,6)          =      1.390779     0.000110     0.000029     1.390808
	   11 R(5,11)         =      1.085148     0.000006     0.000001     1.085149
	   12 R(6,12)         =      1.085427     0.000050    -0.000005     1.085422
	   13 R(7,13)         =      1.341932     0.000396     0.000063     1.341996
	   14 R(7,14)         =      1.329114    -0.000712    -0.000161     1.328953
	   15 R(13,17)        =      1.013802     0.000451     0.000052     1.013853
	   16 R(13,18)        =      1.015272    -0.000722    -0.000367     1.014905
	   17 R(14,15)        =      1.013549     0.000092     0.000007     1.013556
	   18 R(14,16)        =      1.012359     0.000070    -0.000013     1.012345
	   19 B(1,2,3)        =    119.720977     0.000000     0.006758   119.727735
	   20 B(1,2,8)        =    120.503866    -0.000000     0.013706   120.517572
	   21 B(1,6,5)        =    119.595814    -0.000001     0.001295   119.597108
	   22 B(1,6,12)       =    120.187052     0.000001     0.004635   120.191687
	   23 B(1,7,13)       =    119.735117     0.000002     0.038093   119.773210
	   24 B(1,7,14)       =    120.156847    -0.000005    -0.076941   120.079906
	   25 B(2,1,6)        =    120.133735     0.000000    -0.007925   120.125810
	   26 B(2,1,7)        =    120.237941    -0.000003     0.007084   120.245025
	   27 B(2,3,4)        =    119.961802    -0.000000    -0.001534   119.960268
	   28 B(2,3,9)        =    119.830014    -0.000000    -0.000797   119.829218
	   29 B(3,2,8)        =    119.707510    -0.000000    -0.019850   119.687660
	   30 B(3,4,5)        =    120.502604    -0.000000    -0.003462   120.499142
	   31 B(3,4,10)       =    119.731881     0.000000     0.001678   119.733559
	   32 B(4,3,9)        =    120.203721     0.000000     0.002308   120.206029
	   33 B(4,5,6)        =    120.081684     0.000001     0.004609   120.086293
	   34 B(4,5,11)       =    120.178957     0.000000    -0.000641   120.178316
	   35 B(5,4,10)       =    119.765458     0.000000     0.001807   119.767266
	   36 B(5,6,12)       =    120.153393    -0.000000    -0.008684   120.144709
	   37 B(6,1,7)        =    119.628255     0.000003     0.000849   119.629104
	   38 B(6,5,11)       =    119.736273    -0.000001    -0.004139   119.732134
	   39 B(7,13,17)      =    118.281448    -0.000002    -0.039743   118.241705
	   40 B(7,13,18)      =    119.769982     0.000004     0.023787   119.793770
	   41 B(7,14,15)      =    122.677238     0.000002     0.014282   122.691520
	   42 B(7,14,16)      =    120.179450    -0.000001    -0.005685   120.173765
	   43 B(13,7,14)      =    119.820477     0.000003     0.042463   119.862941
	   44 B(15,14,16)     =    116.956087    -0.000000    -0.007234   116.948853
	   45 B(17,13,18)     =    113.998797    -0.000001    -0.034941   113.963856
	   46 D(1,2,3,4)      =      0.059456    -0.000000    -0.021066     0.038389
	   47 D(1,2,3,9)      =   -179.173680    -0.000000    -0.019175  -179.192855
	   48 D(1,6,5,4)      =      0.507796     0.000000     0.024836     0.532632
	   49 D(1,6,5,11)     =   -178.854317     0.000000     0.042272  -178.812044
	   50 *D(1,7,13,17)   =     39.999985     0.000000    -0.000000    39.999985
	   51 D(1,7,13,18)    =   -172.878501     0.000000    -0.107100  -172.985601
	   52 D(1,7,14,15)    =   -174.577524    -0.000000    -0.064927  -174.642451
	   53 D(1,7,14,16)    =     10.548627    -0.000000    -0.083193    10.465434
	   54 D(2,1,6,5)      =     -0.701665     0.000000    -0.031877    -0.733542
	   55 D(2,1,6,12)     =   -177.803027     0.000000     0.030291  -177.772735
	   56 D(2,1,7,13)     =   -151.304880    -0.000000     0.023046  -151.281834
	   57 D(2,1,7,14)     =     34.864333     0.000000    -0.018373    34.845961
	   58 D(2,3,4,5)      =     -0.254611     0.000000     0.014089    -0.240521
	   59 D(2,3,4,10)     =    179.832172    -0.000000    -0.006585   179.825588
	   60 D(3,2,1,6)      =      0.417808    -0.000000     0.030068     0.447876
	   61 D(3,2,1,7)      =   -179.486710     0.000000     0.024447  -179.462263
	   62 D(3,4,5,6)      =     -0.032409    -0.000000    -0.015990    -0.048400
	   63 D(3,4,5,11)     =    179.326856    -0.000000    -0.033527   179.293329
	   64 D(4,3,2,8)      =    177.084000     0.000000    -0.007129   177.076871
	   65 D(4,5,6,12)     =    177.610148    -0.000000    -0.036911   177.573237
	   66 D(5,4,3,9)      =    178.975629     0.000000     0.012167   178.987796
	   67 D(5,6,1,7)      =    179.203436    -0.000000    -0.026284   179.177152
	   68 D(6,1,2,8)      =   -176.582639    -0.000000     0.017030  -176.565609
	   69 D(6,1,7,13)     =     28.790120    -0.000000     0.017461    28.807581
	   70 D(6,1,7,14)     =   -145.040667     0.000000    -0.023958  -145.064625
	   71 D(6,5,4,10)     =    179.880779     0.000000     0.004690   179.885469
	   72 D(7,1,2,8)      =      3.512844    -0.000000     0.011409     3.524252
	   73 D(7,1,6,12)     =      2.102074     0.000000     0.035884     2.137958
	   74 D(8,2,3,9)      =     -2.149135     0.000000    -0.005238    -2.154373
	   75 D(9,3,4,10)     =     -0.937588     0.000000    -0.008507    -0.946095
	   76 D(10,4,5,11)    =     -0.759956     0.000000    -0.012847    -0.772803
	   77 D(11,5,6,12)    =     -1.751964    -0.000000    -0.019475    -1.771439
	   78 D(13,7,14,15)   =     11.596971    -0.000000    -0.106104    11.490867
	   79 D(13,7,14,16)   =   -163.276878    -0.000000    -0.124371  -163.401248
	   80 D(14,7,13,17)   =   -146.148282    -0.000000     0.033891  -146.114391
	   81 D(14,7,13,18)   =      0.973232    -0.000000    -0.073209     0.900023
	 ---------------------------------------------------------------------------
	Successfully symmetrized geometry.

  ==> Convergence Check <==

  Measures of convergence in internal coordinates in au.
  Criteria marked as inactive (o), active & met (*), and active & unmet ( ).
  ---------------------------------------------------------------------------------------------
   Step     Total Energy     Delta E     MAX Force     RMS Force      MAX Disp      RMS Disp   
  ---------------------------------------------------------------------------------------------
    Convergence Criteria    1.00e-06 *    3.00e-04 *             o    1.20e-03 *             o
  ---------------------------------------------------------------------------------------------
      7    -381.46750757   -7.58e-08 *    8.76e-05 *    2.37e-05 o    2.17e-03      5.77e-04 o  ~
  ---------------------------------------------------------------------------------------------


  **** Optimization is complete! (in 7 steps) ****

  ==> Optimization Summary <==

  Measures of convergence in internal coordinates in au.
  --------------------------------------------------------------------------------------------------------------- ~
   Step         Total Energy             Delta E       MAX Force       RMS Force        MAX Disp        RMS Disp  ~
  --------------------------------------------------------------------------------------------------------------- ~
      1    -381.461679180173   -381.461679180173      0.01299045      0.00230991      0.32759333      0.05388184  ~
      2    -381.465625785120     -0.003946604947      0.01530170      0.00222649      0.26621596      0.04085545  ~
      3    -381.466679354079     -0.001053568959      0.02304555      0.00267946      0.05289166      0.01100695  ~
      4    -381.467479220327     -0.000799866248      0.00297728      0.00040504      0.01601978      0.00426129  ~
      5    -381.467504525432     -0.000025305104      0.00085465      0.00014152      0.00382161      0.00124043  ~
      6    -381.467507492730     -0.000002967298      0.00020675      0.00003378      0.00175061      0.00044056  ~
      7    -381.467507568569     -0.000000075839      0.00008762      0.00002369      0.00217067      0.00057740  ~
  --------------------------------------------------------------------------------------------------------------- ~

	Writing optimization data to binary file.
	Final energy is   -381.4675075685691
	Final (previous) structure:
	Cartesian Geometry (in Angstrom)
	    C    -0.0106701553   0.0032991242  -0.1726493441
	    C     0.0457597816   1.2244979207   0.5287390675
	    C     0.0509331748   1.2212702274   1.9187891967
	    C     0.0014807966   0.0085765828   2.6149463960
	    C    -0.0586864141  -1.2052819110   1.9229133196
	    C    -0.0704897087  -1.2150281640   0.5322181737
	    C    -0.0053906154  -0.0070018468  -1.6338319522
	    H     0.0362630397   2.1695031724  -0.0075271738
	    H     0.0807734675   2.1609389220   2.4606284073
	    H     0.0084675507   0.0102878599   3.7006544531
	    H    -0.0858504910  -2.1432037113   2.4679922187
	    H    -0.0780327522  -2.1573725492  -0.0063750267
	    N    -0.6113336926  -1.0055082888  -2.2945893325
	    N     0.6988674964   0.8982973366  -2.3053959563
	    H     0.6670670441   0.9772273245  -3.3153663276
	    H     1.3566630479   1.4945906947  -1.8189711418
	    H    -1.4969208872  -1.3484579105  -1.9397450907
	    H    -0.5165866829  -1.0730637838  -3.3031708870
	Saving final (previous) structure.
			--------------------------
			 OPTKING Finished Execution 
			--------------------------

    Final optimized geometry and variables:
    Molecular point group: c1
    Full point group: C1

    Geometry (in Angstrom), charge = 1, multiplicity = 1:

    C           -0.010670155253     0.003299124246    -0.172649344079
    C            0.045759781561     1.224497920710     0.528739067463
    C            0.050933174841     1.221270227425     1.918789196697
    C            0.001480796581     0.008576582755     2.614946396017
    C           -0.058686414131    -1.205281910989     1.922913319580
    C           -0.070489708657    -1.215028163993     0.532218173741
    C           -0.005390615375    -0.007001846827    -1.633831952186
    H            0.036263039675     2.169503172411    -0.007527173805
    H            0.080773467545     2.160938922047     2.460628407312
    H            0.008467550687     0.010287859880     3.700654453141
    H           -0.085850491017    -2.143203711266     2.467992218721
    H           -0.078032752184    -2.157372549172    -0.006375026681
    N           -0.611333692562    -1.005508288770    -2.294589332485
    N            0.698867496410     0.898297336591    -2.305395956349
    H            0.667067044147     0.977227324512    -3.315366327586
    H            1.356663047855     1.494590694695    -1.818971141757
    H           -1.496920887207    -1.348457910473    -1.939745090705
    H           -0.516586682917    -1.073063783780    -3.303170887039

	Cleaning optimization helper files.


Properties will be evaluated at   0.000000,   0.000000,   0.000000 Bohr

Properties computed using the  density matrix

  Nuclear Dipole Moment: (a.u.)
     X:     0.5711      Y:    -0.9034      Z:     0.5763

  Electronic Dipole Moment: (a.u.)
     X:    -0.6323      Y:     1.0587      Z:    -2.8220

  Dipole Moment: (a.u.)
     X:    -0.0612      Y:     0.1553      Z:    -2.2457     Total:     2.2519

  Dipole Moment: (Debye)
     X:    -0.1555      Y:     0.3948      Z:    -5.7081     Total:     5.7238

  Quadrupole Moment: (Debye Ang)
    XX:   -48.6349     YY:   -39.0862     ZZ:   -12.9264
    XY:     6.3912     XZ:     0.2399     YZ:    -0.5216

  Traceless Quadrupole Moment: (Debye Ang)
    XX:   -15.0858     YY:    -5.5370     ZZ:    20.6228
    XY:     6.3912     XZ:     0.2399     YZ:    -0.5216

  Mulliken Charges: (a.u.)
   Center  Symbol    Alpha    Beta     Spin     Total
       1     C     2.95716  2.95716  0.00000  0.08568
       2     C     3.08377  3.08377  0.00000 -0.16753
       3     C     3.06264  3.06264  0.00000 -0.12527
       4     C     3.05084  3.05084  0.00000 -0.10167
       5     C     3.06263  3.06263  0.00000 -0.12525
       6     C     3.07722  3.07722  0.00000 -0.15445
       7     C     2.73455  2.73455  0.00000  0.53090
       8     H     0.41475  0.41475  0.00000  0.17049
       9     H     0.40538  0.40538  0.00000  0.18924
      10     H     0.40348  0.40348  0.00000  0.19304
      11     H     0.40512  0.40512  0.00000  0.18976
      12     H     0.40980  0.40980  0.00000  0.18040
      13     N     3.85979  3.85979  0.00000 -0.71957
      14     N     3.85708  3.85708  0.00000 -0.71417
      15     H     0.30541  0.30541  0.00000  0.38917
      16     H     0.29941  0.29941  0.00000  0.40119
      17     H     0.30131  0.30131  0.00000  0.39738
      18     H     0.30967  0.30967  0.00000  0.38065

   Total alpha = 32.00000, Total beta = 32.00000, Total charge =  1.00000


*** Psi4 exiting successfully. Buy a developer a beer!
