    -----------------------------------------------------------------------
          Psi4: An Open-Source Ab Initio Electronic Structure Package
                              Psi4 (no tag) Driver

                          Git: Rev {detached?}  

    J. M. Turney, A. C. Simmonett, R. M. Parrish, E. G. Hohenstein,
    F. A. Evangelista, J. T. Fermann, B. J. Mintz, L. A. Burns, J. J. Wilke,
    M. L. Abrams, N. J. Russ, M. L. Leininger, C. L. Janssen, E. T. Seidl,
    W. D. Allen, H. F. Schaefer, R. A. King, E. F. Valeev, C. D. Sherrill,
    and T. D. Crawford, WIREs Comput. Mol. Sci. 2, 556-565 (2012)
    (doi: 10.1002/wcms.93)

                         Additional Contributions by
    A. E. DePrince, M. Saitow, U. Bozkaya, A. Yu. Sokolov
    -----------------------------------------------------------------------


    Psi4 started on: Tue Jul  5 16:24:52 2016

    Process ID:  29225
    PSI4DATADIR: /export131/home/mjharvey/miniconda3/share
    Memory level set to 256.000 MB

  ==> Input File <==

--------------------------------------------------------------------------
set {
	reference rhf
	basis 6-31G*
}


set_num_threads( 1 )
memory 2 gb

molecule MOL {
0 1

H	 1.459103	 0.593459	 -2.060296
O	 0.618456	 0.433426	 -1.656290
C	 0.702312	 0.627605	 -0.264544
C	 -0.714990	 0.596302	 0.266387
H	 1.153583	 1.589617	 -0.037075
H	 1.296925	 -0.154212	 0.203133
O	 -1.405996	 -0.526611	 -0.195820
H	 -1.257453	 1.468809	 -0.075599
H	 -0.688972	 0.618407	 1.353696
H	 -1.424473	 -0.484463	 -1.143393

	symmetry c1
}
set optking {
	frozen_dihedral = ("
		5 3 4 7
	")
}

ee = energy('scf')
oeprop('DIPOLE', 'QUADRUPOLE', 'MULLIKEN_CHARGES')
f=open( 'psi4out.xyz', 'w' )
f.write( "10  " )
f.write( str(ee) + "\n" )
f.write( MOL.save_string_xyz() )
f.close()
--------------------------------------------------------------------------

  Memory set to   2.000 GiB by Python script.

*** tstart() called on cx1-49-4-2.cx1.hpc.ic.ac.uk
*** at Tue Jul  5 16:24:53 2016


         ---------------------------------------------------------
                                   SCF
            by Justin Turney, Rob Parrish, and Andy Simmonett
                              RHF Reference
                        1 Threads,   2000 MiB Core
         ---------------------------------------------------------

  ==> Geometry <==

    Molecular point group: c1
    Full point group: C1

    Geometry (in Angstrom), charge = 0, multiplicity = 1:

       Center              X                  Y                   Z               Mass       
    ------------   -----------------  -----------------  -----------------  -----------------
           H          1.655854712852     0.321742244954    -1.554539124587     1.007825032070
           O          0.815207712852     0.161709244954    -1.150533124587    15.994914619560
           C          0.899063712852     0.355888244954     0.241212875413    12.000000000000
           C         -0.518238287148     0.324585244954     0.772143875413    12.000000000000
           H          1.350334712852     1.317900244954     0.468681875413     1.007825032070
           H          1.493676712852    -0.425928755046     0.708889875413     1.007825032070
           O         -1.209244287148    -0.798327755046     0.309936875413    15.994914619560
           H         -1.060701287148     1.197092244954     0.430157875413     1.007825032070
           H         -0.492220287148     0.346690244954     1.859452875413     1.007825032070
           H         -1.227721287148    -0.756179755046    -0.637636124587     1.007825032070

  Running in c1 symmetry.

  Rotational constants: A =      0.50908  B =      0.19913  C =      0.15848 [cm^-1]
  Rotational constants: A =  15261.69151  B =   5969.78981  C =   4751.17354 [MHz]
  Nuclear repulsion =  135.010697763680469

  Charge       = 0
  Multiplicity = 1
  Electrons    = 34
  Nalpha       = 17
  Nbeta        = 17

  ==> Algorithm <==

  SCF Algorithm Type is DF.
  DIIS enabled.
  MOM disabled.
  Fractional occupation disabled.
  Guess Type is CORE.
  Energy threshold   = 1.00e-06
  Density threshold  = 1.00e-06
  Integral threshold = 0.00e+00

  ==> Primary Basis <==

  Basis Set: 6-31G*
    Number of shells: 36
    Number of basis function: 72
    Number of Cartesian functions: 72
    Spherical Harmonics?: false
    Max angular momentum: 2

  ==> Pre-Iterations <==

   -------------------------------------------------------
    Irrep   Nso     Nmo     Nalpha   Nbeta   Ndocc  Nsocc
   -------------------------------------------------------
     A         72      72       0       0       0       0
   -------------------------------------------------------
    Total      72      72      17      17      17       0
   -------------------------------------------------------

 OEINTS: Overlap, kinetic, potential, dipole, and quadrupole integrals
         stored in file 35.

  ==> Integral Setup <==

  ==> DFJK: Density-Fitted J/K Matrices <==

    J tasked:                  Yes
    K tasked:                  Yes
    wK tasked:                  No
    OpenMP threads:              1
    Integrals threads:           1
    Memory (MB):              1430
    Algorithm:                Core
    Integral Cache:           NONE
    Schwarz Cutoff:          1E-12
    Fitting Condition:       1E-12

   => Auxiliary Basis Set <=

  Basis Set: 
    Number of shells: 150
    Number of basis function: 474
    Number of Cartesian functions: 474
    Spherical Harmonics?: false
    Max angular momentum: 3

  Minimum eigenvalue in the overlap matrix is 4.8081989455E-03.
  Using Symmetric Orthogonalization.
  SCF Guess: Core (One-Electron) Hamiltonian.

  ==> Iterations <==

                           Total Energy        Delta E     RMS |[F,P]|

   @DF-RHF iter   1:  -200.61981938792712   -2.00620e+02   8.42869e-02 
   @DF-RHF iter   2:  -192.59134416965458    8.02848e+00   7.67726e-02 DIIS
   @DF-RHF iter   3:  -223.51445829498664   -3.09231e+01   3.93488e-02 DIIS
   @DF-RHF iter   4:  -228.34231864628157   -4.82786e+00   1.49284e-02 DIIS
   @DF-RHF iter   5:  -228.87517986688272   -5.32861e-01   4.54529e-03 DIIS
   @DF-RHF iter   6:  -228.91867312925496   -4.34933e-02   1.17929e-03 DIIS
   @DF-RHF iter   7:  -228.92231798823684   -3.64486e-03   4.51303e-04 DIIS
   @DF-RHF iter   8:  -228.92291489861009   -5.96910e-04   1.18012e-04 DIIS
   @DF-RHF iter   9:  -228.92296312733401   -4.82287e-05   3.15532e-05 DIIS
   @DF-RHF iter  10:  -228.92296773415455   -4.60682e-06   8.42857e-06 DIIS
   @DF-RHF iter  11:  -228.92296808171625   -3.47562e-07   1.95903e-06 DIIS
   @DF-RHF iter  12:  -228.92296810168887   -1.99726e-08   7.18438e-07 DIIS

  ==> Post-Iterations <==

    Orbital Energies (a.u.)
    -----------------------

    Doubly Occupied:                                                      

       1A    -20.567940     2A    -20.544946     3A    -11.275425  
       4A    -11.268288     5A     -1.381614     6A     -1.347332  
       7A     -1.001819     8A     -0.840867     9A     -0.725237  
      10A     -0.687442    11A     -0.638807    12A     -0.599577  
      13A     -0.582840    14A     -0.529904    15A     -0.483440  
      16A     -0.456657    17A     -0.427136  

    Virtual:                                                              

      18A      0.215376    19A      0.266783    20A      0.271639  
      21A      0.308906    22A      0.317061    23A      0.354496  
      24A      0.384323    25A      0.419927    26A      0.434302  
      27A      0.753254    28A      0.808111    29A      0.813064  
      30A      0.819186    31A      0.899852    32A      0.914844  
      33A      1.074290    34A      1.090581    35A      1.113946  
      36A      1.133161    37A      1.165899    38A      1.189388  
      39A      1.207784    40A      1.237019    41A      1.271939  
      42A      1.283944    43A      1.334964    44A      1.407237  
      45A      1.535621    46A      1.593608    47A      1.690845  
      48A      1.718451    49A      1.837839    50A      1.885080  
      51A      1.988935    52A      2.006371    53A      2.082268  
      54A      2.119182    55A      2.249624    56A      2.366905  
      57A      2.419389    58A      2.464116    59A      2.506440  
      60A      2.668080    61A      2.735407    62A      2.747931  
      63A      2.756212    64A      2.854242    65A      2.886909  
      66A      3.043057    67A      3.179887    68A      3.241580  
      69A      4.164568    70A      4.191861    71A      4.638256  
      72A      4.855735  

    Final Occupation by Irrep:
              A 
    DOCC [    17 ]

  Energy converged.

  @DF-RHF Final Energy:  -228.92296810168887

   => Energetics <=

    Nuclear Repulsion Energy =            135.0106977636804686
    One-Electron Energy =                -581.1488832584170723
    Two-Electron Energy =                 217.2152173930476806
    DFT Exchange-Correlation Energy =       0.0000000000000000
    Empirical Dispersion Energy =           0.0000000000000000
    PCM Polarization Energy =               0.0000000000000000
    EFP Energy =                            0.0000000000000000
    Total Energy =                       -228.9229681016889231

    Alert: EFP and PCM quantities not currently incorporated into SCF psivars.

Properties will be evaluated at   0.000000,   0.000000,   0.000000 Bohr
  ==> Properties <==


Properties computed using the SCF density matrix

  Nuclear Dipole Moment: (a.u.)
     X:     1.6098      Y:     1.8731      Z:     1.1912

  Electronic Dipole Moment: (a.u.)
     X:    -0.6914      Y:    -1.1685      Z:    -1.3282

  Dipole Moment: (a.u.)
     X:     0.9184      Y:     0.7046      Z:    -0.1370     Total:     1.1657

  Dipole Moment: (Debye)
     X:     2.3345      Y:     1.7909      Z:    -0.3482     Total:     2.9628


  Saving occupied orbitals to File 180.

*** tstop() called on cx1-49-4-2.cx1.hpc.ic.ac.uk at Tue Jul  5 16:24:56 2016
Module time:
	user time   =       2.90 seconds =       0.05 minutes
	system time =       0.03 seconds =       0.00 minutes
	total time  =          3 seconds =       0.05 minutes
Total time:
	user time   =       2.90 seconds =       0.05 minutes
	system time =       0.03 seconds =       0.00 minutes
	total time  =          3 seconds =       0.05 minutes


Properties will be evaluated at   0.000000,   0.000000,   0.000000 Bohr

Properties computed using the  density matrix

  Nuclear Dipole Moment: (a.u.)
     X:     1.6098      Y:     1.8731      Z:     1.1912

  Electronic Dipole Moment: (a.u.)
     X:    -0.6914      Y:    -1.1685      Z:    -1.3282

  Dipole Moment: (a.u.)
     X:     0.9184      Y:     0.7046      Z:    -0.1370     Total:     1.1657

  Dipole Moment: (Debye)
     X:     2.3345      Y:     1.7909      Z:    -0.3482     Total:     2.9628

  Quadrupole Moment: (Debye Ang)
    XX:   -22.4469     YY:   -26.2362     ZZ:   -23.0547
    XY:    -0.5840     XZ:     0.1674     YZ:     1.4819

  Traceless Quadrupole Moment: (Debye Ang)
    XX:     1.4657     YY:    -2.3236     ZZ:     0.8579
    XY:    -0.5840     XZ:     0.1674     YZ:     1.4819

  Mulliken Charges: (a.u.)
   Center  Symbol    Alpha    Beta     Spin     Total
       1     H     0.27634  0.27634  0.00000  0.44733
       2     O     4.37888  4.37888  0.00000 -0.75775
       3     C     3.00672  3.00672  0.00000 -0.01343
       4     C     2.99948  2.99948  0.00000  0.00104
       5     H     0.43025  0.43025  0.00000  0.13950
       6     H     0.42262  0.42262  0.00000  0.15475
       7     O     4.37225  4.37225  0.00000 -0.74450
       8     H     0.42592  0.42592  0.00000  0.14816
       9     H     0.41729  0.41729  0.00000  0.16543
      10     H     0.27026  0.27026  0.00000  0.45948

   Total alpha = 17.00000, Total beta = 17.00000, Total charge =  0.00000


*** PSI4 exiting successfully. Buy a developer a beer!
