    -----------------------------------------------------------------------
          Psi4: An Open-Source Ab Initio Electronic Structure Package
                              Psi4 (no tag) Driver

                          Git: Rev {detached?}  

    J. M. Turney, A. C. Simmonett, R. M. Parrish, E. G. Hohenstein,
    F. A. Evangelista, J. T. Fermann, B. J. Mintz, L. A. Burns, J. J. Wilke,
    M. L. Abrams, N. J. Russ, M. L. Leininger, C. L. Janssen, E. T. Seidl,
    W. D. Allen, H. F. Schaefer, R. A. King, E. F. Valeev, C. D. Sherrill,
    and T. D. Crawford, WIREs Comput. Mol. Sci. 2, 556-565 (2012)
    (doi: 10.1002/wcms.93)

                         Additional Contributions by
    A. E. DePrince, M. Saitow, U. Bozkaya, A. Yu. Sokolov
    -----------------------------------------------------------------------


    Psi4 started on: Tue Jul  5 16:30:51 2016

    Process ID:  21290
    PSI4DATADIR: /export131/home/mjharvey/miniconda3/share
    Memory level set to 256.000 MB

  ==> Input File <==

--------------------------------------------------------------------------
set {
	reference rhf
	basis 6-31G*
}


set_num_threads( 1 )
memory 2 gb

molecule MOL {
0 1

H	 -2.540934	 -1.039650	 0.185690
O	 -2.315789	 -0.143634	 -0.024262
C	 -0.945151	 -0.064130	 -0.333158
H	 -0.813375	 -0.223047	 -1.403232
C	 -0.232801	 -1.184051	 0.407206
C	 -0.355424	 1.302939	 0.054523
H	 -0.318824	 -0.992899	 1.473524
H	 -0.742411	 -2.122033	 0.217954
C	 1.248522	 -1.270719	 -0.013048
H	 -0.546144	 2.018388	 -0.742941
H	 -0.890929	 1.656788	 0.930149
C	 1.156425	 1.235120	 0.355905
H	 1.825384	 -1.683246	 0.809111
H	 1.357782	 -1.965923	 -0.840362
C	 1.828244	 0.099899	 -0.419275
H	 1.626109	 2.185622	 0.123525
H	 1.309438	 1.071213	 1.419539
H	 2.901447	 0.112642	 -0.255830
H	 1.681817	 0.263413	 -1.484607

	symmetry c1
}
ee = energy('scf')
oeprop('DIPOLE', 'QUADRUPOLE', 'MULLIKEN_CHARGES')
f=open( 'psi4out.xyz', 'w' )
f.write( "19  " )
f.write( str(ee) + "\n" )
f.write( MOL.save_string_xyz() )
f.close()
--------------------------------------------------------------------------

  Memory set to   2.000 GiB by Python script.

*** tstart() called on cx1-3-15-2.cx1.hpc.ic.ac.uk
*** at Tue Jul  5 16:30:51 2016


         ---------------------------------------------------------
                                   SCF
            by Justin Turney, Rob Parrish, and Andy Simmonett
                              RHF Reference
                        1 Threads,   2000 MiB Core
         ---------------------------------------------------------

  ==> Geometry <==

    Molecular point group: c1
    Full point group: C1

    Geometry (in Angstrom), charge = 0, multiplicity = 1:

       Center              X                  Y                   Z               Mass       
    ------------   -----------------  -----------------  -----------------  -----------------
           H         -2.543374223372    -1.023733399655     0.178959259264     1.007825032070
           O         -2.318229223372    -0.127717399655    -0.030992740736    15.994914619560
           C         -0.947591223372    -0.048213399655    -0.339888740736    12.000000000000
           H         -0.815815223372    -0.207130399655    -1.409962740736     1.007825032070
           C         -0.235241223372    -1.168134399655     0.400475259264    12.000000000000
           C         -0.357864223372     1.318855600345     0.047792259264    12.000000000000
           H         -0.321264223372    -0.976982399655     1.466793259264     1.007825032070
           H         -0.744851223372    -2.106116399655     0.211223259264     1.007825032070
           C          1.246081776628    -1.254802399655    -0.019778740736    12.000000000000
           H         -0.548584223372     2.034304600345    -0.749671740736     1.007825032070
           H         -0.893369223372     1.672704600345     0.923418259264     1.007825032070
           C          1.153984776628     1.251036600345     0.349174259264    12.000000000000
           H          1.822943776628    -1.667329399655     0.802380259264     1.007825032070
           H          1.355341776628    -1.950006399655    -0.847092740736     1.007825032070
           C          1.825803776628     0.115815600345    -0.426005740736    12.000000000000
           H          1.623668776628     2.201538600345     0.116794259264     1.007825032070
           H          1.306997776628     1.087129600345     1.412808259264     1.007825032070
           H          2.899006776628     0.128558600345    -0.262560740736     1.007825032070
           H          1.679376776628     0.279329600345    -1.491337740736     1.007825032070

  Running in c1 symmetry.

  Rotational constants: A =      0.14087  B =      0.07588  C =      0.05525 [cm^-1]
  Rotational constants: A =   4223.05513  B =   2274.79485  C =   1656.24446 [MHz]
  Nuclear repulsion =  331.697138343847939

  Charge       = 0
  Multiplicity = 1
  Electrons    = 56
  Nalpha       = 28
  Nbeta        = 28

  ==> Algorithm <==

  SCF Algorithm Type is DF.
  DIIS enabled.
  MOM disabled.
  Fractional occupation disabled.
  Guess Type is CORE.
  Energy threshold   = 1.00e-06
  Density threshold  = 1.00e-06
  Integral threshold = 0.00e+00

  ==> Primary Basis <==

  Basis Set: 6-31G*
    Number of shells: 66
    Number of basis function: 129
    Number of Cartesian functions: 129
    Spherical Harmonics?: false
    Max angular momentum: 2

  ==> Pre-Iterations <==

   -------------------------------------------------------
    Irrep   Nso     Nmo     Nalpha   Nbeta   Ndocc  Nsocc
   -------------------------------------------------------
     A        129     129       0       0       0       0
   -------------------------------------------------------
    Total     129     129      28      28      28       0
   -------------------------------------------------------

 OEINTS: Overlap, kinetic, potential, dipole, and quadrupole integrals
         stored in file 35.

  ==> Integral Setup <==

  ==> DFJK: Density-Fitted J/K Matrices <==

    J tasked:                  Yes
    K tasked:                  Yes
    wK tasked:                  No
    OpenMP threads:              1
    Integrals threads:           1
    Memory (MB):              1430
    Algorithm:                Core
    Integral Cache:           NONE
    Schwarz Cutoff:          1E-12
    Fitting Condition:       1E-12

   => Auxiliary Basis Set <=

  Basis Set: 
    Number of shells: 276
    Number of basis function: 867
    Number of Cartesian functions: 867
    Spherical Harmonics?: false
    Max angular momentum: 3

  Minimum eigenvalue in the overlap matrix is 2.1107504548E-03.
  Using Symmetric Orthogonalization.
  SCF Guess: Core (One-Electron) Hamiltonian.

  ==> Iterations <==

                           Total Energy        Delta E     RMS |[F,P]|

   @DF-RHF iter   1:  -248.27719523926083   -2.48277e+02   6.56776e-02 
   @DF-RHF iter   2:  -208.16530900882918    4.01119e+01   5.70418e-02 DIIS
   @DF-RHF iter   3:  -231.89093863264355   -2.37256e+01   6.35457e-02 DIIS
   @DF-RHF iter   4:  -305.14931316324277   -7.32584e+01   1.60856e-02 DIIS
   @DF-RHF iter   5:  -308.52642110199071   -3.37711e+00   8.04816e-03 DIIS
   @DF-RHF iter   6:  -309.02037385581974   -4.93953e-01   1.50702e-03 DIIS
   @DF-RHF iter   7:  -309.04014736023174   -1.97735e-02   6.54067e-04 DIIS
   @DF-RHF iter   8:  -309.04451910552933   -4.37175e-03   2.32067e-04 DIIS
   @DF-RHF iter   9:  -309.04515219331307   -6.33088e-04   7.61660e-05 DIIS
   @DF-RHF iter  10:  -309.04520618952785   -5.39962e-05   2.47273e-05 DIIS
   @DF-RHF iter  11:  -309.04521483437173   -8.64484e-06   4.88976e-06 DIIS
   @DF-RHF iter  12:  -309.04521528444883   -4.50077e-07   1.20869e-06 DIIS
   @DF-RHF iter  13:  -309.04521530987080   -2.54220e-08   3.20891e-07 DIIS

  ==> Post-Iterations <==

    Orbital Energies (a.u.)
    -----------------------

    Doubly Occupied:                                                      

       1A    -20.546636     2A    -11.269117     3A    -11.220162  
       4A    -11.217976     5A    -11.217851     6A    -11.217126  
       7A    -11.211610     8A     -1.358040     9A     -1.110397  
      10A     -1.005160    11A     -0.988713    12A     -0.852023  
      13A     -0.832663    14A     -0.740845    15A     -0.691826  
      16A     -0.660952    17A     -0.620512    18A     -0.609504  
      19A     -0.574639    20A     -0.547974    21A     -0.530146  
      22A     -0.523371    23A     -0.500512    24A     -0.487471  
      25A     -0.465928    26A     -0.450380    27A     -0.425654  
      28A     -0.413177  

    Virtual:                                                              

      29A      0.214285    30A      0.237271    31A      0.251499  
      32A      0.275504    33A      0.293465    34A      0.304745  
      35A      0.307388    36A      0.324876    37A      0.340636  
      38A      0.347854    39A      0.354407    40A      0.380400  
      41A      0.389969    42A      0.403123    43A      0.430384  
      44A      0.450725    45A      0.493566    46A      0.502013  
      47A      0.518332    48A      0.720620    49A      0.729525  
      50A      0.760875    51A      0.776571    52A      0.800533  
      53A      0.812593    54A      0.825168    55A      0.889389  
      56A      0.918913    57A      0.925140    58A      0.954887  
      59A      0.967033    60A      0.989007    61A      1.014866  
      62A      1.032668    63A      1.040064    64A      1.112537  
      65A      1.131155    66A      1.133741    67A      1.149755  
      68A      1.159324    69A      1.164692    70A      1.176702  
      71A      1.186736    72A      1.206182    73A      1.215377  
      74A      1.223760    75A      1.251438    76A      1.258561  
      77A      1.314216    78A      1.338533    79A      1.383585  
      80A      1.427939    81A      1.501288    82A      1.565602  
      83A      1.609580    84A      1.641112    85A      1.669772  
      86A      1.752983    87A      1.838284    88A      1.930853  
      89A      1.941700    90A      2.007886    91A      2.018008  
      92A      2.089433    93A      2.103030    94A      2.157964  
      95A      2.162714    96A      2.192804    97A      2.227520  
      98A      2.272507    99A      2.288514   100A      2.342929  
     101A      2.358934   102A      2.422333   103A      2.424203  
     104A      2.458981   105A      2.483564   106A      2.557148  
     107A      2.573594   108A      2.631258   109A      2.649556  
     110A      2.705146   111A      2.754898   112A      2.788877  
     113A      2.822706   114A      2.844635   115A      2.896013  
     116A      2.912684   117A      3.006423   118A      3.034095  
     119A      3.057844   120A      3.099733   121A      3.209364  
     122A      3.312355   123A      4.285479   124A      4.586420  
     125A      4.703704   126A      4.745337   127A      4.882222  
     128A      4.975835   129A      5.145813  

    Final Occupation by Irrep:
              A 
    DOCC [    28 ]

  Energy converged.

  @DF-RHF Final Energy:  -309.04521530987080

   => Energetics <=

    Nuclear Repulsion Energy =            331.6971383438479393
    One-Electron Energy =               -1076.9038648935882065
    Two-Electron Energy =                 436.1615112398697534
    DFT Exchange-Correlation Energy =       0.0000000000000000
    Empirical Dispersion Energy =           0.0000000000000000
    PCM Polarization Energy =               0.0000000000000000
    EFP Energy =                            0.0000000000000000
    Total Energy =                       -309.0452153098705708

    Alert: EFP and PCM quantities not currently incorporated into SCF psivars.

Properties will be evaluated at   0.000000,   0.000000,   0.000000 Bohr
  ==> Properties <==


Properties computed using the SCF density matrix

  Nuclear Dipole Moment: (a.u.)
     X:     4.5075      Y:    -0.4953      Z:     0.3296

  Electronic Dipole Moment: (a.u.)
     X:    -3.9763      Y:    -0.0085      Z:    -0.2731

  Dipole Moment: (a.u.)
     X:     0.5313      Y:    -0.5039      Z:     0.0565     Total:     0.7344

  Dipole Moment: (Debye)
     X:     1.3504      Y:    -1.2808      Z:     0.1436     Total:     1.8667


  Saving occupied orbitals to File 180.

*** tstop() called on cx1-3-15-2.cx1.hpc.ic.ac.uk at Tue Jul  5 16:31:02 2016
Module time:
	user time   =      10.61 seconds =       0.18 minutes
	system time =       0.06 seconds =       0.00 minutes
	total time  =         11 seconds =       0.18 minutes
Total time:
	user time   =      10.61 seconds =       0.18 minutes
	system time =       0.06 seconds =       0.00 minutes
	total time  =         11 seconds =       0.18 minutes


Properties will be evaluated at   0.000000,   0.000000,   0.000000 Bohr

Properties computed using the  density matrix

  Nuclear Dipole Moment: (a.u.)
     X:     4.5075      Y:    -0.4953      Z:     0.3296

  Electronic Dipole Moment: (a.u.)
     X:    -3.9763      Y:    -0.0085      Z:    -0.2731

  Dipole Moment: (a.u.)
     X:     0.5313      Y:    -0.5039      Z:     0.0565     Total:     0.7344

  Dipole Moment: (Debye)
     X:     1.3504      Y:    -1.2808      Z:     0.1436     Total:     1.8667

  Quadrupole Moment: (Debye Ang)
    XX:   -49.1724     YY:   -42.9791     ZZ:   -44.6535
    XY:     4.1463     XZ:    -0.6080     YZ:    -0.4226

  Traceless Quadrupole Moment: (Debye Ang)
    XX:    -3.5707     YY:     2.6226     ZZ:     0.9481
    XY:     4.1463     XZ:    -0.6080     YZ:    -0.4226

  Mulliken Charges: (a.u.)
   Center  Symbol    Alpha    Beta     Spin     Total
       1     H     0.28003  0.28003  0.00000  0.43993
       2     O     4.38494  4.38494  0.00000 -0.76988
       3     C     2.89348  2.89348  0.00000  0.21304
       4     H     0.42811  0.42811  0.00000  0.14379
       5     C     3.18871  3.18871  0.00000 -0.37742
       6     C     3.16590  3.16590  0.00000 -0.33180
       7     H     0.41448  0.41448  0.00000  0.17104
       8     H     0.42339  0.42339  0.00000  0.15323
       9     C     3.15909  3.15909  0.00000 -0.31819
      10     H     0.41579  0.41579  0.00000  0.16842
      11     H     0.40947  0.40947  0.00000  0.18107
      12     C     3.16490  3.16490  0.00000 -0.32981
      13     H     0.41786  0.41786  0.00000  0.16428
      14     H     0.41806  0.41806  0.00000  0.16388
      15     C     3.16430  3.16430  0.00000 -0.32859
      16     H     0.41538  0.41538  0.00000  0.16924
      17     H     0.41991  0.41991  0.00000  0.16018
      18     H     0.41609  0.41609  0.00000  0.16781
      19     H     0.42011  0.42011  0.00000  0.15977

   Total alpha = 28.00000, Total beta = 28.00000, Total charge =  0.00000


*** PSI4 exiting successfully. Buy a developer a beer!
