
    -----------------------------------------------------------------------
          Psi4: An Open-Source Ab Initio Electronic Structure Package
                               Psi4 1.1 release

                         Git: Rev {HEAD} add49b9 


    R. M. Parrish, L. A. Burns, D. G. A. Smith, A. C. Simmonett,
    A. E. DePrince III, E. G. Hohenstein, U. Bozkaya, A. Yu. Sokolov,
    R. Di Remigio, R. M. Richard, J. F. Gonthier, A. M. James,
    H. R. McAlexander, A. Kumar, M. Saitow, X. Wang, B. P. Pritchard,
    P. Verma, H. F. Schaefer III, K. Patkowski, R. A. King, E. F. Valeev,
    F. A. Evangelista, J. M. Turney, T. D. Crawford, and C. D. Sherrill,
    J. Chem. Theory Comput. in press (2017).
    (doi: 10.1021/acs.jctc.7b00174)

    -----------------------------------------------------------------------


    Psi4 started on: Friday, 11 August 2017 02:05PM

    Process ID:   7271
    PSIDATADIR: /home/raimis/opt/miniconda3/envs/htmd/share/psi4
    Memory:     500.0 MiB
    Threads:    1
    
  ==> Input File <==

--------------------------------------------------------------------------
set {
	reference rks
	basis cc-pvdz
}


set_num_threads( 8 )
memory 2 gb

molecule MOL {
0 1

O	 1.014300	 -0.002300	 0.060500
O	 2.462400	 -0.107500	 -0.002400
H	 0.930962	 -0.178290	 1.017100
H	 2.655500	 0.713700	 0.488700

	symmetry c1
}
set optking { dynamic_level = 1 }
set optking {
	frozen_dihedral = ("
		3 1 2 4
	")
}

ee,wfn = optimize('b3lyp-d3', return_wfn=True)
oeprop( wfn, 'DIPOLE', 'QUADRUPOLE', 'MULLIKEN_CHARGES')
f=open( 'psi4out.xyz', 'w' )
f.write( "4  " )
f.write( str(ee) + "\n" )
f.write( MOL.save_string_xyz() )
f.close()
--------------------------------------------------------------------------
  Threads set to 8 by Python driver.

  Memory set to   1.863 GiB by Python driver.
gradient() will perform analytic gradient computation.

*** tstart() called on computer03
*** at Fri Aug 11 14:05:35 2017

   => Loading Basis Set <=

    Name: CC-PVDZ
    Role: ORBITAL
    Keyword: BASIS
    atoms 1-2 entry O          line   190 file /home/raimis/opt/miniconda3/envs/htmd/share/psi4/basis/cc-pvdz.gbs 
    atoms 3-4 entry H          line    20 file /home/raimis/opt/miniconda3/envs/htmd/share/psi4/basis/cc-pvdz.gbs 


         ---------------------------------------------------------
                                   SCF
            by Justin Turney, Rob Parrish, and Andy Simmonett
                              RKS Reference
                        8 Threads,   1907 MiB Core
         ---------------------------------------------------------

  ==> Geometry <==

    Molecular point group: c1
    Full point group: C1

    Geometry (in Angstrom), charge = 0, multiplicity = 1:

       Center              X                  Y                   Z               Mass       
    ------------   -----------------  -----------------  -----------------  -----------------
           O         -0.727303031377     0.033477823155    -0.011455682520    15.994914619560
           O          0.720796968623    -0.071722176845    -0.074355682520    15.994914619560
           H         -0.810641031377    -0.142512176845     0.945144317480     1.007825032070
           H          0.913896968623     0.749477823155     0.416744317480     1.007825032070

  Running in c1 symmetry.

  Rotational constants: A =      9.52202  B =      0.89048  C =      0.86211 [cm^-1]
  Rotational constants: A = 285462.87404  B =  26695.77311  C =  25845.55642 [MHz]
  Nuclear repulsion =   36.839376198457273

  Charge       = 0
  Multiplicity = 1
  Electrons    = 18
  Nalpha       = 9
  Nbeta        = 9

  ==> Algorithm <==

  SCF Algorithm Type is DF.
  DIIS enabled.
  MOM disabled.
  Fractional occupation disabled.
  Guess Type is SAD.
  Energy threshold   = 1.00e-08
  Density threshold  = 1.00e-08
  Integral threshold = 0.00e+00

  ==> Primary Basis <==

  Basis Set: CC-PVDZ
    Blend: CC-PVDZ
    Number of shells: 18
    Number of basis function: 38
    Number of Cartesian functions: 40
    Spherical Harmonics?: true
    Max angular momentum: 2

  ==> DFT Potential <==

   => B3LYP Composite Functional <= 

    B3LYP Hybrid-GGA Exchange-Correlation Functional (VWN1-RPA)

    P.J. Stephens et. al., J. Phys. Chem., 98, 11623-11627, 1994

    Points   =           5000
    Deriv    =              1
    GGA      =           TRUE
    Meta     =          FALSE

    X_LRC        =          FALSE
    X_Hybrid     =           TRUE
    X_Alpha      =   2.000000E-01
    X_Omega      =   0.000000E+00
    C_LRC        =          FALSE
    C_Hybrid     =          FALSE
    C_Alpha      =   0.000000E+00
    C_Omega      =   0.000000E+00

   => Exchange Functionals <=

    0.8000    B3_X
    0.2000      HF 

   => Correlation Functionals <=

    0.1900 VWN3RPA_C
    0.8100   LYP_C

   => Molecular Quadrature <=

    Radial Scheme    =       TREUTLER
    Pruning Scheme   =           FLAT
    Nuclear Scheme   =       TREUTLER

    BS radius alpha  =              1
    Pruning alpha    =              1
    Radial Points    =             75
    Spherical Points =            302
    Total Points     =          88294
    Total Blocks     =             87
    Max Points       =           4737
    Max Functions    =             38

   => -D3ZERO: Empirical Dispersion <=

    Grimme's -D3 (zero-damping) Dispersion Correction
    Grimme S.; Antony J.; Ehrlich S.; Krieg H. (2010), J. Chem. Phys., 132: 154104

        S6 =   1.000000E+00
        S8 =   1.703000E+00
       SR6 =   1.261000E+00
    ALPHA6 =   1.400000E+01

   => Loading Basis Set <=

    Name: (CC-PVDZ AUX)
    Role: JKFIT
    Keyword: DF_BASIS_SCF
    atoms 1-2 entry O          line   220 file /home/raimis/opt/miniconda3/envs/htmd/share/psi4/basis/cc-pvdz-jkfit.gbs 
    atoms 3-4 entry H          line    50 file /home/raimis/opt/miniconda3/envs/htmd/share/psi4/basis/cc-pvdz-jkfit.gbs 

  ==> Pre-Iterations <==

   -------------------------------------------------------
    Irrep   Nso     Nmo     Nalpha   Nbeta   Ndocc  Nsocc
   -------------------------------------------------------
     A         38      38       0       0       0       0
   -------------------------------------------------------
    Total      38      38       9       9       9       0
   -------------------------------------------------------

  ==> Integral Setup <==

  ==> DFJK: Density-Fitted J/K Matrices <==

    J tasked:                  Yes
    K tasked:                  Yes
    wK tasked:                  No
    OpenMP threads:              8
    Integrals threads:           8
    Memory (MB):              1430
    Algorithm:                Core
    Integral Cache:           NONE
    Schwarz Cutoff:          1E-12
    Fitting Condition:       1E-12

   => Auxiliary Basis Set <=

  Basis Set: (CC-PVDZ AUX)
    Blend: CC-PVDZ-JKFIT
    Number of shells: 66
    Number of basis function: 186
    Number of Cartesian functions: 212
    Spherical Harmonics?: true
    Max angular momentum: 3

  Minimum eigenvalue in the overlap matrix is 2.5866369615E-02.
  Using Symmetric Orthogonalization.

  SCF Guess: Superposition of Atomic Densities via on-the-fly atomic UHF.

  ==> Iterations <==

                           Total Energy        Delta E     RMS |[F,P]|

   @DF-RKS iter   0:  -151.76178068405039   -1.51762e+02   9.09254e-02 
   @DF-RKS iter   1:  -151.52355639005467    2.38224e-01   1.33200e-02 
   @DF-RKS iter   2:  -151.53620308901830   -1.26467e-02   8.26893e-03 DIIS
   @DF-RKS iter   3:  -151.54485539546997   -8.65231e-03   2.48470e-03 DIIS
   @DF-RKS iter   4:  -151.54568922173331   -8.33826e-04   3.51680e-04 DIIS
   @DF-RKS iter   5:  -151.54569294743493   -3.72570e-06   3.32914e-04 DIIS
   @DF-RKS iter   6:  -151.54570669021550   -1.37428e-05   1.67457e-05 DIIS
   @DF-RKS iter   7:  -151.54570673766719   -4.74517e-08   2.59519e-06 DIIS
   @DF-RKS iter   8:  -151.54570673940989   -1.74271e-09   4.49867e-07 DIIS
   @DF-RKS iter   9:  -151.54570673944812   -3.82272e-11   5.16158e-08 DIIS
   @DF-RKS iter  10:  -151.54570673944883   -7.10543e-13   5.35000e-09 DIIS

  ==> Post-Iterations <==

    Orbital Energies (a.u.)
    -----------------------

    Doubly Occupied:                                                      

       1A    -19.190895     2A    -19.190857     3A     -1.117347  
       4A     -0.887084     5A     -0.538460     6A     -0.458686  
       7A     -0.423603     8A     -0.311289     9A     -0.274939  

    Virtual:                                                              

      10A      0.022298    11A      0.034588    12A      0.110652  
      13A      0.573510    14A      0.575780    15A      0.855759  
      16A      0.872715    17A      0.909786    18A      0.926200  
      19A      1.015075    20A      1.035052    21A      1.232446  
      22A      1.302142    23A      1.312039    24A      1.412214  
      25A      1.660662    26A      1.714626    27A      2.051012  
      28A      2.075417    29A      2.404787    30A      2.436787  
      31A      2.574202    32A      2.865016    33A      2.932392  
      34A      3.068570    35A      3.094970    36A      3.451867  
      37A      3.577411    38A      3.819263  

    Final Occupation by Irrep:
              A 
    DOCC [     9 ]

  Energy converged.

  @DF-RKS Final Energy:  -151.54570673944883

   => Energetics <=

    Nuclear Repulsion Energy =             36.8393761984572734
    One-Electron Energy =                -281.6001105921650378
    Two-Electron Energy =                 107.6767915196509762
    DFT Exchange-Correlation Energy =     -14.4615375353920754
    Empirical Dispersion Energy =          -0.0002263300000000
    PCM Polarization Energy =               0.0000000000000000
    EFP Energy =                            0.0000000000000000
    Total Energy =                       -151.5457067394488604



Properties will be evaluated at   0.000000,   0.000000,   0.000000 Bohr

Properties computed using the SCF density matrix

  Nuclear Dipole Moment: (a.u.)
     X:     0.0968      Y:     0.5688      Z:     1.2763

  Electronic Dipole Moment: (a.u.)
     X:    -0.0250      Y:    -0.1467      Z:    -0.3292

  Dipole Moment: (a.u.)
     X:     0.0718      Y:     0.4221      Z:     0.9471     Total:     1.0394

  Dipole Moment: (Debye)
     X:     0.1825      Y:     1.0729      Z:     2.4073     Total:     2.6419


*** tstop() called on computer03 at Fri Aug 11 14:05:41 2017
Module time:
	user time   =      19.27 seconds =       0.32 minutes
	system time =       0.66 seconds =       0.01 minutes
	total time  =          6 seconds =       0.10 minutes
Total time:
	user time   =      19.27 seconds =       0.32 minutes
	system time =       0.66 seconds =       0.01 minutes
	total time  =          6 seconds =       0.10 minutes

*** tstart() called on computer03
*** at Fri Aug 11 14:05:41 2017


         ------------------------------------------------------------
                                   SCF GRAD                          
                          Rob Parrish, Justin Turney,                
                       Andy Simmonett, and Alex Sokolov              
         ------------------------------------------------------------

  ==> Geometry <==

    Molecular point group: c1
    Full point group: C1

    Geometry (in Angstrom), charge = 0, multiplicity = 1:

       Center              X                  Y                   Z               Mass       
    ------------   -----------------  -----------------  -----------------  -----------------
           O         -0.727303031377     0.033477823155    -0.011455682520    15.994914619560
           O          0.720796968623    -0.071722176845    -0.074355682520    15.994914619560
           H         -0.810641031377    -0.142512176845     0.945144317480     1.007825032070
           H          0.913896968623     0.749477823155     0.416744317480     1.007825032070

  Nuclear repulsion =   36.839376198457273

  ==> Basis Set <==

  Basis Set: CC-PVDZ
    Blend: CC-PVDZ
    Number of shells: 18
    Number of basis function: 38
    Number of Cartesian functions: 40
    Spherical Harmonics?: true
    Max angular momentum: 2

  ==> DFJKGrad: Density-Fitted SCF Gradients <==

    Gradient:                    1
    J tasked:                  Yes
    K tasked:                  Yes
    wK tasked:                  No
    OpenMP threads:              8
    Integrals threads:           8
    Memory (MB):              1430
    Schwarz Cutoff:          0E+00
    Fitting Condition:       1E-12

   => Auxiliary Basis Set <=

  Basis Set: (CC-PVDZ AUX)
    Blend: CC-PVDZ-JKFIT
    Number of shells: 66
    Number of basis function: 186
    Number of Cartesian functions: 212
    Spherical Harmonics?: true
    Max angular momentum: 3

  ==> DFT Potential <==

   => B3LYP Composite Functional <= 

    B3LYP Hybrid-GGA Exchange-Correlation Functional (VWN1-RPA)

    P.J. Stephens et. al., J. Phys. Chem., 98, 11623-11627, 1994

    Points   =           5000
    Deriv    =              1
    GGA      =           TRUE
    Meta     =          FALSE

    X_LRC        =          FALSE
    X_Hybrid     =           TRUE
    X_Alpha      =   2.000000E-01
    X_Omega      =   0.000000E+00
    C_LRC        =          FALSE
    C_Hybrid     =          FALSE
    C_Alpha      =   0.000000E+00
    C_Omega      =   0.000000E+00

   => Exchange Functionals <=

    0.8000    B3_X
    0.2000      HF 

   => Correlation Functionals <=

    0.1900 VWN3RPA_C
    0.8100   LYP_C

   => Molecular Quadrature <=

    Radial Scheme    =       TREUTLER
    Pruning Scheme   =           FLAT
    Nuclear Scheme   =       TREUTLER

    BS radius alpha  =              1
    Pruning alpha    =              1
    Radial Points    =             75
    Spherical Points =            302
    Total Points     =          88294
    Total Blocks     =             87
    Max Points       =           4737
    Max Functions    =             38


  -Total Gradient:
     Atom            X                  Y                   Z
    ------   -----------------  -----------------  -----------------
       1       -0.000428436250     0.002622385739    -0.007761012539
       2       -0.000392364191    -0.007459267066    -0.003198304299
       3        0.011864161894     0.004110796052     0.003893012296
       4       -0.011043111219     0.000727537908     0.007069574086


*** tstop() called on computer03 at Fri Aug 11 14:05:42 2017
Module time:
	user time   =       5.29 seconds =       0.09 minutes
	system time =       0.22 seconds =       0.00 minutes
	total time  =          1 seconds =       0.02 minutes
Total time:
	user time   =      24.61 seconds =       0.41 minutes
	system time =       0.88 seconds =       0.01 minutes
	total time  =          7 seconds =       0.12 minutes

			-----------------------------------------
			 OPTKING 2.0: for geometry optimizations 
			  - R.A. King,  Bethel University        
			-----------------------------------------
	At level 1: Red. Int., RFO, no backsteps, dynamic trust

	Internal coordinates to be generated automatically.
	Detected frag 1 with atoms:  1 2 3 4
	---Fragment 1 Bond Connectivity---
	 1 : 2 3
	 2 : 1 4
	 3 : 1
	 4 : 2

	Assuming in current code that numbering for constraints corresponds to unified fragment.
	Frozen dihedral atom list: 
	     3     1     2     4
	---Fragment 1 Geometry and Gradient---
	 O          -1.3744035449        0.0632639173       -0.0216481026
	 O           1.3621088681       -0.1355352719       -0.1405118764
	 H          -1.5318895414       -0.2693089848        1.7860639161
	 H           1.7270149844        1.4163078284        0.7875326275
	            -0.0004284363        0.0026223857       -0.0077610125
	            -0.0003923642       -0.0074592671       -0.0031983043
	             0.0118641619        0.0041107961        0.0038930123
	            -0.0110431112        0.0007275379        0.0070695741

	Previous optimization step data not found.  Starting new optimization.

	---Fragment 1 Intrafragment Coordinates---
	 - Coordinate -           - BOHR/RAD -       - ANG/DEG -
	 R(1,2)           =         2.746297	       1.453278
	 R(1,3)           =         1.844784	       0.976218
	 R(2,4)           =         1.844625	       0.976133
	 B(1,2,4)         =         1.685490	      96.571484
	 B(2,1,3)         =         1.685473	      96.570509
	*D(3,1,2,4)       =        -1.221731	     -70.000005

	Current energy   :      -151.5457067394

	Generating empirical Hessian (Schlegel '84) for each fragment.
	Taking RFO optimization step.
	Going to follow RFO solution 1.
	Using RFO vector 1.
	Norm of target step-size    0.18577
	Projected energy change by RFO approximation:        -0.0074759894

	Back-transformation to cartesian coordinates...
	Successfully converged to displaced geometry.

	Back-transformation to cartesian coordinates to adjust frozen coordinates...
	Successfully converged to displaced geometry.

	--- Internal Coordinate Step in ANG or DEG, aJ/ANG or AJ/DEG ---
	 ---------------------------------------------------------------------------
	   Coordinate                Previous        Force       Change         New 
	   ----------                --------       ------       ------       ------
	    1 R(1,2)          =      1.453278     0.091240     0.015257     1.468535
	    2 R(1,3)          =      0.976218    -0.016970    -0.002068     0.974150
	    3 R(2,4)          =      0.976133    -0.016339    -0.001990     0.974143
	    4 B(1,2,4)        =     96.571484     0.001637     7.397010   103.968494
	    5 B(2,1,3)        =     96.570509     0.001638     7.399070   103.969579
	    6 *D(3,1,2,4)     =    -70.000005     0.000000     0.000000   -70.000005
	 ---------------------------------------------------------------------------
	Successfully symmetrized geometry.

  ==> Convergence Check <==

  Measures of convergence in internal coordinates in au.
  Criteria marked as inactive (o), active & met (*), and active & unmet ( ).
  --------------------------------------------------------------------------------------------- ~
   Step     Total Energy     Delta E     MAX Force     RMS Force      MAX Disp      RMS Disp    ~
  --------------------------------------------------------------------------------------------- ~
    Convergence Criteria    1.00e-06 *    3.00e-04 *             o    1.20e-03 *             o  ~
  --------------------------------------------------------------------------------------------- ~
      1    -151.54570674   -1.52e+02      2.15e-02      1.33e-02 o    1.29e-01      7.55e-02 o  ~
  ---------------------------------------------------------------------------------------------

	Writing optimization data to binary file.
	Structure for next step:
	Cartesian Geometry (in Angstrom)
	    O    -0.7350744175   0.0037284282   0.0133912439
	    O     0.7299443759  -0.0338664135  -0.0809621457
	    H    -0.9146624440  -0.1710494706   0.9547569933
	    H     1.0165423601   0.7699087485   0.3888911785
			--------------------------
			 OPTKING Finished Execution 
			--------------------------

    Structure for next step:
    Molecular point group: c1
    Full point group: C1

    Geometry (in Angstrom), charge = 0, multiplicity = 1:

    O           -0.735680865416     0.000155743085     0.005352202462
    O            0.729337927966    -0.037439098584    -0.089001187115
    H           -0.915268891958    -0.174622155695     0.946717951922
    H            1.015935912232     0.766336063333     0.380852137088

gradient() will perform analytic gradient computation.

*** tstart() called on computer03
*** at Fri Aug 11 14:05:42 2017

   => Loading Basis Set <=

    Name: CC-PVDZ
    Role: ORBITAL
    Keyword: BASIS
    atoms 1-2 entry O          line   190 file /home/raimis/opt/miniconda3/envs/htmd/share/psi4/basis/cc-pvdz.gbs 
    atoms 3-4 entry H          line    20 file /home/raimis/opt/miniconda3/envs/htmd/share/psi4/basis/cc-pvdz.gbs 


         ---------------------------------------------------------
                                   SCF
            by Justin Turney, Rob Parrish, and Andy Simmonett
                              RKS Reference
                        8 Threads,   1907 MiB Core
         ---------------------------------------------------------

  ==> Geometry <==

    Molecular point group: c1
    Full point group: C1

    Geometry (in Angstrom), charge = 0, multiplicity = 1:

       Center              X                  Y                   Z               Mass       
    ------------   -----------------  -----------------  -----------------  -----------------
           O         -0.735680865416     0.000155743085     0.005352202462    15.994914619560
           O          0.729337927966    -0.037439098584    -0.089001187115    15.994914619560
           H         -0.915268891958    -0.174622155695     0.946717951922     1.007825032070
           H          1.015935912232     0.766336063333     0.380852137088     1.007825032070

  Running in c1 symmetry.

  Rotational constants: A =     10.09835  B =      0.85424  C =      0.82884 [cm^-1]
  Rotational constants: A = 302741.02662  B =  25609.33342  C =  24847.85843 [MHz]
  Nuclear repulsion =   36.337282470781723

  Charge       = 0
  Multiplicity = 1
  Electrons    = 18
  Nalpha       = 9
  Nbeta        = 9

  ==> Algorithm <==

  SCF Algorithm Type is DF.
  DIIS enabled.
  MOM disabled.
  Fractional occupation disabled.
  Guess Type is READ.
  Energy threshold   = 1.00e-08
  Density threshold  = 1.00e-08
  Integral threshold = 0.00e+00

  ==> Primary Basis <==

  Basis Set: CC-PVDZ
    Blend: CC-PVDZ
    Number of shells: 18
    Number of basis function: 38
    Number of Cartesian functions: 40
    Spherical Harmonics?: true
    Max angular momentum: 2

  ==> DFT Potential <==

   => B3LYP Composite Functional <= 

    B3LYP Hybrid-GGA Exchange-Correlation Functional (VWN1-RPA)

    P.J. Stephens et. al., J. Phys. Chem., 98, 11623-11627, 1994

    Points   =           5000
    Deriv    =              1
    GGA      =           TRUE
    Meta     =          FALSE

    X_LRC        =          FALSE
    X_Hybrid     =           TRUE
    X_Alpha      =   2.000000E-01
    X_Omega      =   0.000000E+00
    C_LRC        =          FALSE
    C_Hybrid     =          FALSE
    C_Alpha      =   0.000000E+00
    C_Omega      =   0.000000E+00

   => Exchange Functionals <=

    0.8000    B3_X
    0.2000      HF 

   => Correlation Functionals <=

    0.1900 VWN3RPA_C
    0.8100   LYP_C

   => Molecular Quadrature <=

    Radial Scheme    =       TREUTLER
    Pruning Scheme   =           FLAT
    Nuclear Scheme   =       TREUTLER

    BS radius alpha  =              1
    Pruning alpha    =              1
    Radial Points    =             75
    Spherical Points =            302
    Total Points     =          88316
    Total Blocks     =             88
    Max Points       =           4757
    Max Functions    =             38

   => -D3ZERO: Empirical Dispersion <=

    Grimme's -D3 (zero-damping) Dispersion Correction
    Grimme S.; Antony J.; Ehrlich S.; Krieg H. (2010), J. Chem. Phys., 132: 154104

        S6 =   1.000000E+00
        S8 =   1.703000E+00
       SR6 =   1.261000E+00
    ALPHA6 =   1.400000E+01

   => Loading Basis Set <=

    Name: (CC-PVDZ AUX)
    Role: JKFIT
    Keyword: DF_BASIS_SCF
    atoms 1-2 entry O          line   220 file /home/raimis/opt/miniconda3/envs/htmd/share/psi4/basis/cc-pvdz-jkfit.gbs 
    atoms 3-4 entry H          line    50 file /home/raimis/opt/miniconda3/envs/htmd/share/psi4/basis/cc-pvdz-jkfit.gbs 

  Reading orbitals from file 180, no projection.

  ==> Pre-Iterations <==

   -------------------------------------------------------
    Irrep   Nso     Nmo     Nalpha   Nbeta   Ndocc  Nsocc
   -------------------------------------------------------
     A         38      38       0       0       0       0
   -------------------------------------------------------
    Total      38      38       9       9       9       0
   -------------------------------------------------------

  ==> Integral Setup <==

  ==> DFJK: Density-Fitted J/K Matrices <==

    J tasked:                  Yes
    K tasked:                  Yes
    wK tasked:                  No
    OpenMP threads:              8
    Integrals threads:           8
    Memory (MB):              1430
    Algorithm:                Core
    Integral Cache:           NONE
    Schwarz Cutoff:          1E-12
    Fitting Condition:       1E-12

   => Auxiliary Basis Set <=

  Basis Set: (CC-PVDZ AUX)
    Blend: CC-PVDZ-JKFIT
    Number of shells: 66
    Number of basis function: 186
    Number of Cartesian functions: 212
    Spherical Harmonics?: true
    Max angular momentum: 3

  Minimum eigenvalue in the overlap matrix is 2.6951667208E-02.
  Using Symmetric Orthogonalization.

  SCF Guess: Orbitals guess was supplied from a previous computation.

  ==> Iterations <==

                           Total Energy        Delta E     RMS |[F,P]|

   @DF-RKS iter   0:  -151.54605460578424   -1.51546e+02   4.33471e-03 
   @DF-RKS iter   1:  -151.54703514707626   -9.80541e-04   9.61202e-04 
   @DF-RKS iter   2:  -151.54717977334275   -1.44626e-04   3.43462e-04 DIIS
   @DF-RKS iter   3:  -151.54721100443686   -3.12311e-05   1.06436e-04 DIIS
   @DF-RKS iter   4:  -151.54721312716791   -2.12273e-06   3.11165e-05 DIIS
   @DF-RKS iter   5:  -151.54721349101195   -3.63844e-07   3.90134e-06 DIIS
   @DF-RKS iter   6:  -151.54721349087367    1.38272e-10   4.95296e-06 DIIS
   @DF-RKS iter   7:  -151.54721349459263   -3.71895e-09   5.62294e-07 DIIS
   @DF-RKS iter   8:  -151.54721349464791   -5.52802e-11   3.11335e-08 DIIS
   @DF-RKS iter   9:  -151.54721349464813   -2.27374e-13   5.55597e-09 DIIS

  ==> Post-Iterations <==

    Orbital Energies (a.u.)
    -----------------------

    Doubly Occupied:                                                      

       1A    -19.190661     2A    -19.190627     3A     -1.102048  
       4A     -0.894976     5A     -0.545049     6A     -0.446632  
       7A     -0.412952     8A     -0.311427     9A     -0.274643  

    Virtual:                                                              

      10A      0.007356    11A      0.040602    12A      0.112067  
      13A      0.564258    14A      0.582221    15A      0.857955  
      16A      0.868129    17A      0.943246    18A      0.944093  
      19A      1.016970    20A      1.019875    21A      1.258363  
      22A      1.271611    23A      1.361066    24A      1.419889  
      25A      1.622288    26A      1.730245    27A      2.058453  
      28A      2.079929    29A      2.395167    30A      2.424891  
      31A      2.542502    32A      2.863595    33A      2.929281  
      34A      3.058901    35A      3.103624    36A      3.487096  
      37A      3.576625    38A      3.772459  

    Final Occupation by Irrep:
              A 
    DOCC [     9 ]

  Energy converged.

  @DF-RKS Final Energy:  -151.54721349464813

   => Energetics <=

    Nuclear Repulsion Energy =             36.3372824707817230
    One-Electron Energy =                -280.6528541827206027
    Two-Electron Energy =                 107.2211825543748205
    DFT Exchange-Correlation Energy =     -14.4524529770840786
    Empirical Dispersion Energy =          -0.0003713600000000
    PCM Polarization Energy =               0.0000000000000000
    EFP Energy =                            0.0000000000000000
    Total Energy =                       -151.5472134946481333



Properties will be evaluated at   0.000000,   0.000000,   0.000000 Bohr

Properties computed using the SCF density matrix

  Nuclear Dipole Moment: (a.u.)
     X:     0.0943      Y:     0.5545      Z:     1.2442

  Electronic Dipole Moment: (a.u.)
     X:    -0.0225      Y:    -0.1323      Z:    -0.2968

  Dipole Moment: (a.u.)
     X:     0.0718      Y:     0.4222      Z:     0.9473     Total:     1.0397

  Dipole Moment: (Debye)
     X:     0.1826      Y:     1.0732      Z:     2.4079     Total:     2.6426


*** tstop() called on computer03 at Fri Aug 11 14:05:46 2017
Module time:
	user time   =      15.65 seconds =       0.26 minutes
	system time =       0.53 seconds =       0.01 minutes
	total time  =          4 seconds =       0.07 minutes
Total time:
	user time   =      40.52 seconds =       0.68 minutes
	system time =       1.42 seconds =       0.02 minutes
	total time  =         11 seconds =       0.18 minutes

*** tstart() called on computer03
*** at Fri Aug 11 14:05:46 2017


         ------------------------------------------------------------
                                   SCF GRAD                          
                          Rob Parrish, Justin Turney,                
                       Andy Simmonett, and Alex Sokolov              
         ------------------------------------------------------------

  ==> Geometry <==

    Molecular point group: c1
    Full point group: C1

    Geometry (in Angstrom), charge = 0, multiplicity = 1:

       Center              X                  Y                   Z               Mass       
    ------------   -----------------  -----------------  -----------------  -----------------
           O         -0.735680865416     0.000155743085     0.005352202462    15.994914619560
           O          0.729337927966    -0.037439098584    -0.089001187115    15.994914619560
           H         -0.915268891958    -0.174622155695     0.946717951922     1.007825032070
           H          1.015935912232     0.766336063333     0.380852137088     1.007825032070

  Nuclear repulsion =   36.337282470781723

  ==> Basis Set <==

  Basis Set: CC-PVDZ
    Blend: CC-PVDZ
    Number of shells: 18
    Number of basis function: 38
    Number of Cartesian functions: 40
    Spherical Harmonics?: true
    Max angular momentum: 2

  ==> DFJKGrad: Density-Fitted SCF Gradients <==

    Gradient:                    1
    J tasked:                  Yes
    K tasked:                  Yes
    wK tasked:                  No
    OpenMP threads:              8
    Integrals threads:           8
    Memory (MB):              1430
    Schwarz Cutoff:          0E+00
    Fitting Condition:       1E-12

   => Auxiliary Basis Set <=

  Basis Set: (CC-PVDZ AUX)
    Blend: CC-PVDZ-JKFIT
    Number of shells: 66
    Number of basis function: 186
    Number of Cartesian functions: 212
    Spherical Harmonics?: true
    Max angular momentum: 3

  ==> DFT Potential <==

   => B3LYP Composite Functional <= 

    B3LYP Hybrid-GGA Exchange-Correlation Functional (VWN1-RPA)

    P.J. Stephens et. al., J. Phys. Chem., 98, 11623-11627, 1994

    Points   =           5000
    Deriv    =              1
    GGA      =           TRUE
    Meta     =          FALSE

    X_LRC        =          FALSE
    X_Hybrid     =           TRUE
    X_Alpha      =   2.000000E-01
    X_Omega      =   0.000000E+00
    C_LRC        =          FALSE
    C_Hybrid     =          FALSE
    C_Alpha      =   0.000000E+00
    C_Omega      =   0.000000E+00

   => Exchange Functionals <=

    0.8000    B3_X
    0.2000      HF 

   => Correlation Functionals <=

    0.1900 VWN3RPA_C
    0.8100   LYP_C

   => Molecular Quadrature <=

    Radial Scheme    =       TREUTLER
    Pruning Scheme   =           FLAT
    Nuclear Scheme   =       TREUTLER

    BS radius alpha  =              1
    Pruning alpha    =              1
    Radial Points    =             75
    Spherical Points =            302
    Total Points     =          88316
    Total Blocks     =             88
    Max Points       =           4757
    Max Functions    =             38


  -Total Gradient:
     Atom            X                  Y                   Z
    ------   -----------------  -----------------  -----------------
       1       -0.010595360413    -0.008653629725     0.004602110036
       2        0.010591540994     0.008614012774    -0.004698682621
       3       -0.004176580321     0.004738979676    -0.001741793467
       4        0.004179640617    -0.004703827703     0.001828358951


*** tstop() called on computer03 at Fri Aug 11 14:05:48 2017
Module time:
	user time   =       6.87 seconds =       0.11 minutes
	system time =       0.27 seconds =       0.00 minutes
	total time  =          2 seconds =       0.03 minutes
Total time:
	user time   =      47.50 seconds =       0.79 minutes
	system time =       1.70 seconds =       0.03 minutes
	total time  =         13 seconds =       0.22 minutes

			-----------------------------------------
			 OPTKING 2.0: for geometry optimizations 
			  - R.A. King,  Bethel University        
			-----------------------------------------
	At level 1: Red. Int., RFO, no backsteps, dynamic trust

	Previous internal coordinate definitions found.
	---Fragment 1 Geometry and Gradient---
	 O          -1.3902353568        0.0002943118        0.0101141969
	 O           1.3782489422       -0.0707496430       -0.1681878691
	 H          -1.7296075438       -0.3299880510        1.7890376542
	 H           1.9198406427        1.4481652855        0.7197062362
	            -0.0105953604       -0.0086536297        0.0046021100
	             0.0105915410        0.0086140128       -0.0046986826
	            -0.0041765803        0.0047389797       -0.0017417935
	             0.0041796406       -0.0047038277        0.0018283590

	---Fragment 1 Intrafragment Coordinates---
	 - Coordinate -           - BOHR/RAD -       - ANG/DEG -
	 R(1,2)           =         2.775130	       1.468535
	 R(1,3)           =         1.840877	       0.974150
	 R(2,4)           =         1.840864	       0.974143
	 B(1,2,4)         =         1.814593	     103.968494
	 B(2,1,3)         =         1.814611	     103.969579
	*D(3,1,2,4)       =        -1.221731	     -70.000005

	Current energy   :      -151.5472134946

	Energy change for the previous step:
		Projected    :        -0.0074759894
		Actual       :        -0.0015067552
	Energy ratio indicates iffy step: Trust radius decreased to 1.250e-01.


	Performing BFGS update.
	Previous computed or guess Hessian on step 1.
	Steps to be used in Hessian update: 1
	Taking RFO optimization step.
	Going to follow RFO solution 1.
	Using RFO vector 1.
	Norm of target step-size    0.05348
	Projected energy change by RFO approximation:        -0.0004021363

	Back-transformation to cartesian coordinates...
	Successfully converged to displaced geometry.

	Back-transformation to cartesian coordinates to adjust frozen coordinates...
	Successfully converged to displaced geometry.

	--- Internal Coordinate Step in ANG or DEG, aJ/ANG or AJ/DEG ---
	 ---------------------------------------------------------------------------
	   Coordinate                Previous        Force       Change         New 
	   ----------                --------       ------       ------       ------
	    1 R(1,2)          =      1.468535    -0.122097    -0.013826     1.454709
	    2 R(1,3)          =      0.974150     0.014509     0.001176     0.975327
	    3 R(2,4)          =      0.974143     0.014560     0.001182     0.975325
	    4 B(1,2,4)        =    103.968494    -0.000664    -1.888526   102.079969
	    5 B(2,1,3)        =    103.969579    -0.000664    -1.889404   102.080175
	    6 *D(3,1,2,4)     =    -70.000005     0.000000     0.000000   -70.000005
	 ---------------------------------------------------------------------------
	Successfully symmetrized geometry.

  ==> Convergence Check <==

  Measures of convergence in internal coordinates in au.
  Criteria marked as inactive (o), active & met (*), and active & unmet ( ).
  ---------------------------------------------------------------------------------------------
   Step     Total Energy     Delta E     MAX Force     RMS Force      MAX Disp      RMS Disp   
  ---------------------------------------------------------------------------------------------
    Convergence Criteria    1.00e-06 *    3.00e-04 *             o    1.20e-03 *             o
  ---------------------------------------------------------------------------------------------
      2    -151.54721349   -1.51e-03      1.48e-02      7.94e-03 o    3.30e-02      2.19e-02 o  ~
  ---------------------------------------------------------------------------------------------

	Writing optimization data to binary file.
	Structure for next step:
	Cartesian Geometry (in Angstrom)
	    O    -0.7289775794   0.0082532341  -0.0025385560
	    O     0.7221532380  -0.0483298821  -0.0873721713
	    H    -0.8850358765  -0.1659513771   0.9443302791
	    H     0.9861843006   0.7604585772   0.3895015525
			--------------------------
			 OPTKING Finished Execution 
			--------------------------

    Structure for next step:
    Molecular point group: c1
    Full point group: C1

    Geometry (in Angstrom), charge = 0, multiplicity = 1:

    O           -0.728765412285     0.009484309956     0.000221155053
    O            0.722365405103    -0.047098806222    -0.084612460188
    H           -0.884823709372    -0.164720301205     0.947089990212
    H            0.986396467709     0.761689653118     0.392261263533

gradient() will perform analytic gradient computation.

*** tstart() called on computer03
*** at Fri Aug 11 14:05:48 2017

   => Loading Basis Set <=

    Name: CC-PVDZ
    Role: ORBITAL
    Keyword: BASIS
    atoms 1-2 entry O          line   190 file /home/raimis/opt/miniconda3/envs/htmd/share/psi4/basis/cc-pvdz.gbs 
    atoms 3-4 entry H          line    20 file /home/raimis/opt/miniconda3/envs/htmd/share/psi4/basis/cc-pvdz.gbs 


         ---------------------------------------------------------
                                   SCF
            by Justin Turney, Rob Parrish, and Andy Simmonett
                              RKS Reference
                        8 Threads,   1907 MiB Core
         ---------------------------------------------------------

  ==> Geometry <==

    Molecular point group: c1
    Full point group: C1

    Geometry (in Angstrom), charge = 0, multiplicity = 1:

       Center              X                  Y                   Z               Mass       
    ------------   -----------------  -----------------  -----------------  -----------------
           O         -0.728765412285     0.009484309956     0.000221155053    15.994914619560
           O          0.722365405103    -0.047098806222    -0.084612460188    15.994914619560
           H         -0.884823709372    -0.164720301205     0.947089990212     1.007825032070
           H          0.986396467709     0.761689653118     0.392261263533     1.007825032070

  Running in c1 symmetry.

  Rotational constants: A =      9.90275  B =      0.87454  C =      0.84761 [cm^-1]
  Rotational constants: A = 296876.84914  B =  26217.93328  C =  25410.71725 [MHz]
  Nuclear repulsion =   36.632047634670684

  Charge       = 0
  Multiplicity = 1
  Electrons    = 18
  Nalpha       = 9
  Nbeta        = 9

  ==> Algorithm <==

  SCF Algorithm Type is DF.
  DIIS enabled.
  MOM disabled.
  Fractional occupation disabled.
  Guess Type is READ.
  Energy threshold   = 1.00e-08
  Density threshold  = 1.00e-08
  Integral threshold = 0.00e+00

  ==> Primary Basis <==

  Basis Set: CC-PVDZ
    Blend: CC-PVDZ
    Number of shells: 18
    Number of basis function: 38
    Number of Cartesian functions: 40
    Spherical Harmonics?: true
    Max angular momentum: 2

  ==> DFT Potential <==

   => B3LYP Composite Functional <= 

    B3LYP Hybrid-GGA Exchange-Correlation Functional (VWN1-RPA)

    P.J. Stephens et. al., J. Phys. Chem., 98, 11623-11627, 1994

    Points   =           5000
    Deriv    =              1
    GGA      =           TRUE
    Meta     =          FALSE

    X_LRC        =          FALSE
    X_Hybrid     =           TRUE
    X_Alpha      =   2.000000E-01
    X_Omega      =   0.000000E+00
    C_LRC        =          FALSE
    C_Hybrid     =          FALSE
    C_Alpha      =   0.000000E+00
    C_Omega      =   0.000000E+00

   => Exchange Functionals <=

    0.8000    B3_X
    0.2000      HF 

   => Correlation Functionals <=

    0.1900 VWN3RPA_C
    0.8100   LYP_C

   => Molecular Quadrature <=

    Radial Scheme    =       TREUTLER
    Pruning Scheme   =           FLAT
    Nuclear Scheme   =       TREUTLER

    BS radius alpha  =              1
    Pruning alpha    =              1
    Radial Points    =             75
    Spherical Points =            302
    Total Points     =          88316
    Total Blocks     =             88
    Max Points       =           4759
    Max Functions    =             38

   => -D3ZERO: Empirical Dispersion <=

    Grimme's -D3 (zero-damping) Dispersion Correction
    Grimme S.; Antony J.; Ehrlich S.; Krieg H. (2010), J. Chem. Phys., 132: 154104

        S6 =   1.000000E+00
        S8 =   1.703000E+00
       SR6 =   1.261000E+00
    ALPHA6 =   1.400000E+01

   => Loading Basis Set <=

    Name: (CC-PVDZ AUX)
    Role: JKFIT
    Keyword: DF_BASIS_SCF
    atoms 1-2 entry O          line   220 file /home/raimis/opt/miniconda3/envs/htmd/share/psi4/basis/cc-pvdz-jkfit.gbs 
    atoms 3-4 entry H          line    50 file /home/raimis/opt/miniconda3/envs/htmd/share/psi4/basis/cc-pvdz-jkfit.gbs 

  Reading orbitals from file 180, no projection.

  ==> Pre-Iterations <==

   -------------------------------------------------------
    Irrep   Nso     Nmo     Nalpha   Nbeta   Ndocc  Nsocc
   -------------------------------------------------------
     A         38      38       0       0       0       0
   -------------------------------------------------------
    Total      38      38       9       9       9       0
   -------------------------------------------------------

  ==> Integral Setup <==

  ==> DFJK: Density-Fitted J/K Matrices <==

    J tasked:                  Yes
    K tasked:                  Yes
    wK tasked:                  No
    OpenMP threads:              8
    Integrals threads:           8
    Memory (MB):              1430
    Algorithm:                Core
    Integral Cache:           NONE
    Schwarz Cutoff:          1E-12
    Fitting Condition:       1E-12

   => Auxiliary Basis Set <=

  Basis Set: (CC-PVDZ AUX)
    Blend: CC-PVDZ-JKFIT
    Number of shells: 66
    Number of basis function: 186
    Number of Cartesian functions: 212
    Spherical Harmonics?: true
    Max angular momentum: 3

  Minimum eigenvalue in the overlap matrix is 2.6105936207E-02.
  Using Symmetric Orthogonalization.

  SCF Guess: Orbitals guess was supplied from a previous computation.

  ==> Iterations <==

                           Total Energy        Delta E     RMS |[F,P]|

   @DF-RKS iter   0:  -151.55189347018288   -1.51552e+02   1.67176e-03 
   @DF-RKS iter   1:  -151.54772396156687    4.16951e-03   3.81960e-04 
   @DF-RKS iter   2:  -151.54774973190763   -2.57703e-05   2.46017e-04 DIIS
   @DF-RKS iter   3:  -151.54775757937063   -7.84746e-06   4.65979e-05 DIIS
   @DF-RKS iter   4:  -151.54775785731931   -2.77949e-07   1.12969e-05 DIIS
   @DF-RKS iter   5:  -151.54775788468908   -2.73698e-08   7.11650e-07 DIIS
   @DF-RKS iter   6:  -151.54775788472529   -3.62093e-11   8.01502e-07 DIIS
   @DF-RKS iter   7:  -151.54775788480259   -7.73070e-11   1.58854e-07 DIIS
   @DF-RKS iter   8:  -151.54775788480595   -3.35376e-12   7.22994e-09 DIIS

  ==> Post-Iterations <==

    Orbital Energies (a.u.)
    -----------------------

    Doubly Occupied:                                                      

       1A    -19.190159     2A    -19.190122     3A     -1.109522  
       4A     -0.891026     5A     -0.545171     6A     -0.450607  
       7A     -0.416900     8A     -0.310650     9A     -0.273548  

    Virtual:                                                              

      10A      0.016656    11A      0.038769    12A      0.113343  
      13A      0.566936    14A      0.580720    15A      0.857759  
      16A      0.870308    17A      0.933943    18A      0.936277  
      19A      1.015923    20A      1.022900    21A      1.250287  
      22A      1.279619    23A      1.348008    24A      1.421128  
      25A      1.638575    26A      1.722439    27A      2.058554  
      28A      2.079419    29A      2.403337    30A      2.419260  
      31A      2.542287    32A      2.861909    33A      2.931169  
      34A      3.073781    35A      3.114187    36A      3.476328  
      37A      3.574813    38A      3.795984  

    Final Occupation by Irrep:
              A 
    DOCC [     9 ]

  Energy converged.

  @DF-RKS Final Energy:  -151.54775788480595

   => Energetics <=

    Nuclear Repulsion Energy =             36.6320476346706840
    One-Electron Energy =                -281.2226598582388988
    Two-Electron Energy =                 107.5010460171746445
    DFT Exchange-Correlation Energy =     -14.4578700784123875
    Empirical Dispersion Energy =          -0.0003216000000000
    PCM Polarization Energy =               0.0000000000000000
    EFP Energy =                            0.0000000000000000
    Total Energy =                       -151.5477578848059466



Properties will be evaluated at   0.000000,   0.000000,   0.000000 Bohr

Properties computed using the SCF density matrix

  Nuclear Dipole Moment: (a.u.)
     X:     0.0952      Y:     0.5595      Z:     1.2552

  Electronic Dipole Moment: (a.u.)
     X:    -0.0233      Y:    -0.1367      Z:    -0.3067

  Dipole Moment: (a.u.)
     X:     0.0719      Y:     0.4228      Z:     0.9485     Total:     1.0410

  Dipole Moment: (Debye)
     X:     0.1828      Y:     1.0746      Z:     2.4109     Total:     2.6459


*** tstop() called on computer03 at Fri Aug 11 14:05:52 2017
Module time:
	user time   =      14.61 seconds =       0.24 minutes
	system time =       0.49 seconds =       0.01 minutes
	total time  =          4 seconds =       0.07 minutes
Total time:
	user time   =      62.25 seconds =       1.04 minutes
	system time =       2.19 seconds =       0.04 minutes
	total time  =         17 seconds =       0.28 minutes

*** tstart() called on computer03
*** at Fri Aug 11 14:05:52 2017


         ------------------------------------------------------------
                                   SCF GRAD                          
                          Rob Parrish, Justin Turney,                
                       Andy Simmonett, and Alex Sokolov              
         ------------------------------------------------------------

  ==> Geometry <==

    Molecular point group: c1
    Full point group: C1

    Geometry (in Angstrom), charge = 0, multiplicity = 1:

       Center              X                  Y                   Z               Mass       
    ------------   -----------------  -----------------  -----------------  -----------------
           O         -0.728765412285     0.009484309956     0.000221155053    15.994914619560
           O          0.722365405103    -0.047098806222    -0.084612460188    15.994914619560
           H         -0.884823709372    -0.164720301205     0.947089990212     1.007825032070
           H          0.986396467709     0.761689653118     0.392261263533     1.007825032070

  Nuclear repulsion =   36.632047634670684

  ==> Basis Set <==

  Basis Set: CC-PVDZ
    Blend: CC-PVDZ
    Number of shells: 18
    Number of basis function: 38
    Number of Cartesian functions: 40
    Spherical Harmonics?: true
    Max angular momentum: 2

  ==> DFJKGrad: Density-Fitted SCF Gradients <==

    Gradient:                    1
    J tasked:                  Yes
    K tasked:                  Yes
    wK tasked:                  No
    OpenMP threads:              8
    Integrals threads:           8
    Memory (MB):              1430
    Schwarz Cutoff:          0E+00
    Fitting Condition:       1E-12

   => Auxiliary Basis Set <=

  Basis Set: (CC-PVDZ AUX)
    Blend: CC-PVDZ-JKFIT
    Number of shells: 66
    Number of basis function: 186
    Number of Cartesian functions: 212
    Spherical Harmonics?: true
    Max angular momentum: 3

  ==> DFT Potential <==

   => B3LYP Composite Functional <= 

    B3LYP Hybrid-GGA Exchange-Correlation Functional (VWN1-RPA)

    P.J. Stephens et. al., J. Phys. Chem., 98, 11623-11627, 1994

    Points   =           5000
    Deriv    =              1
    GGA      =           TRUE
    Meta     =          FALSE

    X_LRC        =          FALSE
    X_Hybrid     =           TRUE
    X_Alpha      =   2.000000E-01
    X_Omega      =   0.000000E+00
    C_LRC        =          FALSE
    C_Hybrid     =          FALSE
    C_Alpha      =   0.000000E+00
    C_Omega      =   0.000000E+00

   => Exchange Functionals <=

    0.8000    B3_X
    0.2000      HF 

   => Correlation Functionals <=

    0.1900 VWN3RPA_C
    0.8100   LYP_C

   => Molecular Quadrature <=

    Radial Scheme    =       TREUTLER
    Pruning Scheme   =           FLAT
    Nuclear Scheme   =       TREUTLER

    BS radius alpha  =              1
    Pruning alpha    =              1
    Radial Points    =             75
    Spherical Points =            302
    Total Points     =          88316
    Total Blocks     =             88
    Max Points       =           4759
    Max Functions    =             38


  -Total Gradient:
     Atom            X                  Y                   Z
    ------   -----------------  -----------------  -----------------
       1       -0.003846069889    -0.005487001579    -0.000123965819
       2        0.003486371206     0.003369843912    -0.004627340439
       3        0.000168229652     0.004597592782     0.000784863859
       4        0.000189619763    -0.002491309397     0.003942046354


*** tstop() called on computer03 at Fri Aug 11 14:05:53 2017
Module time:
	user time   =       5.05 seconds =       0.08 minutes
	system time =       0.18 seconds =       0.00 minutes
	total time  =          1 seconds =       0.02 minutes
Total time:
	user time   =      67.36 seconds =       1.12 minutes
	system time =       2.38 seconds =       0.04 minutes
	total time  =         18 seconds =       0.30 minutes

			-----------------------------------------
			 OPTKING 2.0: for geometry optimizations 
			  - R.A. King,  Bethel University        
			-----------------------------------------
	At level 1: Red. Int., RFO, no backsteps, dynamic trust

	Previous internal coordinate definitions found.
	---Fragment 1 Geometry and Gradient---
	 O          -1.3771670443        0.0179227484        0.0004179225
	 O           1.3650727835       -0.0890038449       -0.1598943772
	 H          -1.6720744866       -0.3112762578        1.7897407047
	 H           1.8640191824        1.4393848426        0.7412663606
	            -0.0038460699       -0.0054870016       -0.0001239658
	             0.0034863712        0.0033698439       -0.0046273404
	             0.0001682297        0.0045975928        0.0007848639
	             0.0001896198       -0.0024913094        0.0039420464

	---Fragment 1 Intrafragment Coordinates---
	 - Coordinate -           - BOHR/RAD -       - ANG/DEG -
	 R(1,2)           =         2.749002	       1.454709
	 R(1,3)           =         1.843100	       0.975327
	 R(2,4)           =         1.843098	       0.975325
	 B(1,2,4)         =         1.781632	     102.079969
	 B(2,1,3)         =         1.781635	     102.080175
	*D(3,1,2,4)       =        -1.221731	     -70.000005

	Current energy   :      -151.5477578848

	Energy change for the previous step:
		Projected    :        -0.0004021363
		Actual       :        -0.0005443902
	Energy ratio indicates good step: Trust radius increased to 3.750e-01.


	Performing BFGS update.
	Previous computed or guess Hessian on step 1.
	Steps to be used in Hessian update: 2 1
	Taking RFO optimization step.
	Going to follow RFO solution 1.
	Using RFO vector 1.
	Norm of target step-size    0.01093
	Projected energy change by RFO approximation:        -0.0000475605

	Back-transformation to cartesian coordinates...
	Successfully converged to displaced geometry.

	Back-transformation to cartesian coordinates to adjust frozen coordinates...
	Successfully converged to displaced geometry.

	--- Internal Coordinate Step in ANG or DEG, aJ/ANG or AJ/DEG ---
	 ---------------------------------------------------------------------------
	   Coordinate                Previous        Force       Change         New 
	   ----------                --------       ------       ------       ------
	    1 R(1,2)          =      1.454709    -0.030246    -0.005428     1.449281
	    2 R(1,3)          =      0.975327     0.000656     0.000047     0.975374
	    3 R(2,4)          =      0.975325     0.000665     0.000051     0.975376
	    4 B(1,2,4)        =    102.079969    -0.000010     0.152818   102.232787
	    5 B(2,1,3)        =    102.080175    -0.000010     0.152571   102.232746
	    6 *D(3,1,2,4)     =    -70.000005     0.000000     0.000000   -70.000005
	 ---------------------------------------------------------------------------
	Successfully symmetrized geometry.

  ==> Convergence Check <==

  Measures of convergence in internal coordinates in au.
  Criteria marked as inactive (o), active & met (*), and active & unmet ( ).
  ---------------------------------------------------------------------------------------------
   Step     Total Energy     Delta E     MAX Force     RMS Force      MAX Disp      RMS Disp   
  ---------------------------------------------------------------------------------------------
    Convergence Criteria    1.00e-06 *    3.00e-04 *             o    1.20e-03 *             o
  ---------------------------------------------------------------------------------------------
      3    -151.54775788   -5.44e-04      3.67e-03      1.50e-03 o    1.03e-02      4.46e-03 o  ~
  ---------------------------------------------------------------------------------------------

	Writing optimization data to binary file.
	Structure for next step:
	Cartesian Geometry (in Angstrom)
	    O    -0.7260460517   0.0093917593   0.0002805970
	    O     0.7196719518  -0.0468411625  -0.0842984050
	    H    -0.8846149889  -0.1646395221   0.9468126232
	    H     0.9861618399   0.7614437810   0.3921651334
			--------------------------
			 OPTKING Finished Execution 
			--------------------------

    Structure for next step:
    Molecular point group: c1
    Full point group: C1

    Geometry (in Angstrom), charge = 0, multiplicity = 1:

    O           -0.726057469706     0.009318998518     0.000115987237
    O            0.719660533793    -0.046913923245    -0.084463014832
    H           -0.884626406865    -0.164712282819     0.946648013415
    H            0.986150421950     0.761371020204     0.392000523647

gradient() will perform analytic gradient computation.

*** tstart() called on computer03
*** at Fri Aug 11 14:05:53 2017

   => Loading Basis Set <=

    Name: CC-PVDZ
    Role: ORBITAL
    Keyword: BASIS
    atoms 1-2 entry O          line   190 file /home/raimis/opt/miniconda3/envs/htmd/share/psi4/basis/cc-pvdz.gbs 
    atoms 3-4 entry H          line    20 file /home/raimis/opt/miniconda3/envs/htmd/share/psi4/basis/cc-pvdz.gbs 


         ---------------------------------------------------------
                                   SCF
            by Justin Turney, Rob Parrish, and Andy Simmonett
                              RKS Reference
                        8 Threads,   1907 MiB Core
         ---------------------------------------------------------

  ==> Geometry <==

    Molecular point group: c1
    Full point group: C1

    Geometry (in Angstrom), charge = 0, multiplicity = 1:

       Center              X                  Y                   Z               Mass       
    ------------   -----------------  -----------------  -----------------  -----------------
           O         -0.726057469706     0.009318998518     0.000115987237    15.994914619560
           O          0.719660533793    -0.046913923245    -0.084463014832    15.994914619560
           H         -0.884626406865    -0.164712282819     0.946648013415     1.007825032070
           H          0.986150421950     0.761371020204     0.392000523647     1.007825032070

  Running in c1 symmetry.

  Rotational constants: A =      9.91537  B =      0.88035  C =      0.85308 [cm^-1]
  Rotational constants: A = 297255.45145  B =  26392.23430  C =  25574.74796 [MHz]
  Nuclear repulsion =   36.725222234597496

  Charge       = 0
  Multiplicity = 1
  Electrons    = 18
  Nalpha       = 9
  Nbeta        = 9

  ==> Algorithm <==

  SCF Algorithm Type is DF.
  DIIS enabled.
  MOM disabled.
  Fractional occupation disabled.
  Guess Type is READ.
  Energy threshold   = 1.00e-08
  Density threshold  = 1.00e-08
  Integral threshold = 0.00e+00

  ==> Primary Basis <==

  Basis Set: CC-PVDZ
    Blend: CC-PVDZ
    Number of shells: 18
    Number of basis function: 38
    Number of Cartesian functions: 40
    Spherical Harmonics?: true
    Max angular momentum: 2

  ==> DFT Potential <==

   => B3LYP Composite Functional <= 

    B3LYP Hybrid-GGA Exchange-Correlation Functional (VWN1-RPA)

    P.J. Stephens et. al., J. Phys. Chem., 98, 11623-11627, 1994

    Points   =           5000
    Deriv    =              1
    GGA      =           TRUE
    Meta     =          FALSE

    X_LRC        =          FALSE
    X_Hybrid     =           TRUE
    X_Alpha      =   2.000000E-01
    X_Omega      =   0.000000E+00
    C_LRC        =          FALSE
    C_Hybrid     =          FALSE
    C_Alpha      =   0.000000E+00
    C_Omega      =   0.000000E+00

   => Exchange Functionals <=

    0.8000    B3_X
    0.2000      HF 

   => Correlation Functionals <=

    0.1900 VWN3RPA_C
    0.8100   LYP_C

   => Molecular Quadrature <=

    Radial Scheme    =       TREUTLER
    Pruning Scheme   =           FLAT
    Nuclear Scheme   =       TREUTLER

    BS radius alpha  =              1
    Pruning alpha    =              1
    Radial Points    =             75
    Spherical Points =            302
    Total Points     =          88314
    Total Blocks     =             88
    Max Points       =           4750
    Max Functions    =             38

   => -D3ZERO: Empirical Dispersion <=

    Grimme's -D3 (zero-damping) Dispersion Correction
    Grimme S.; Antony J.; Ehrlich S.; Krieg H. (2010), J. Chem. Phys., 132: 154104

        S6 =   1.000000E+00
        S8 =   1.703000E+00
       SR6 =   1.261000E+00
    ALPHA6 =   1.400000E+01

   => Loading Basis Set <=

    Name: (CC-PVDZ AUX)
    Role: JKFIT
    Keyword: DF_BASIS_SCF
    atoms 1-2 entry O          line   220 file /home/raimis/opt/miniconda3/envs/htmd/share/psi4/basis/cc-pvdz-jkfit.gbs 
    atoms 3-4 entry H          line    50 file /home/raimis/opt/miniconda3/envs/htmd/share/psi4/basis/cc-pvdz-jkfit.gbs 

  Reading orbitals from file 180, no projection.

  ==> Pre-Iterations <==

   -------------------------------------------------------
    Irrep   Nso     Nmo     Nalpha   Nbeta   Ndocc  Nsocc
   -------------------------------------------------------
     A         38      38       0       0       0       0
   -------------------------------------------------------
    Total      38      38       9       9       9       0
   -------------------------------------------------------

  ==> Integral Setup <==

  ==> DFJK: Density-Fitted J/K Matrices <==

    J tasked:                  Yes
    K tasked:                  Yes
    wK tasked:                  No
    OpenMP threads:              8
    Integrals threads:           8
    Memory (MB):              1430
    Algorithm:                Core
    Integral Cache:           NONE
    Schwarz Cutoff:          1E-12
    Fitting Condition:       1E-12

   => Auxiliary Basis Set <=

  Basis Set: (CC-PVDZ AUX)
    Blend: CC-PVDZ-JKFIT
    Number of shells: 66
    Number of basis function: 186
    Number of Cartesian functions: 212
    Spherical Harmonics?: true
    Max angular momentum: 3

  Minimum eigenvalue in the overlap matrix is 2.5831310287E-02.
  Using Symmetric Orthogonalization.

  SCF Guess: Orbitals guess was supplied from a previous computation.

  ==> Iterations <==

                           Total Energy        Delta E     RMS |[F,P]|

   @DF-RKS iter   0:  -151.55033371685641   -1.51550e+02   5.76128e-04 
   @DF-RKS iter   1:  -151.54777905135819    2.55467e-03   1.22758e-04 
   @DF-RKS iter   2:  -151.54778058940968   -1.53805e-06   4.87411e-05 DIIS
   @DF-RKS iter   3:  -151.54778111106594   -5.21656e-07   1.05895e-05 DIIS
   @DF-RKS iter   4:  -151.54778112664920   -1.55833e-08   1.35646e-06 DIIS
   @DF-RKS iter   5:  -151.54778112689161   -2.42409e-10   1.76216e-07 DIIS
   @DF-RKS iter   6:  -151.54778112689232   -7.10543e-13   1.81628e-07 DIIS
   @DF-RKS iter   7:  -151.54778112689689   -4.57590e-12   1.35366e-08 DIIS
   @DF-RKS iter   8:  -151.54778112689698   -8.52651e-14   1.55742e-09 DIIS

  ==> Post-Iterations <==

    Orbital Energies (a.u.)
    -----------------------

    Doubly Occupied:                                                      

       1A    -19.189788     2A    -19.189752     3A     -1.111524  
       4A     -0.890089     5A     -0.546526     6A     -0.450929  
       7A     -0.417420     8A     -0.310160     9A     -0.272809  

    Virtual:                                                              

      10A      0.019323    11A      0.038772    12A      0.114505  
      13A      0.566816    14A      0.580908    15A      0.857913  
      16A      0.871017    17A      0.933753    18A      0.935393  
      19A      1.016079    20A      1.022265    21A      1.250200  
      22A      1.279585    23A      1.348275    24A      1.421912  
      25A      1.640401    26A      1.723144    27A      2.059747  
      28A      2.079805    29A      2.407290    30A      2.416048  
      31A      2.539272    32A      2.860652    33A      2.931823  
      34A      3.079643    35A      3.119830    36A      3.477896  
      37A      3.574294    38A      3.800693  

    Final Occupation by Irrep:
              A 
    DOCC [     9 ]

  Energy converged.

  @DF-RKS Final Energy:  -151.54778112689698

   => Energetics <=

    Nuclear Repulsion Energy =             36.7252222345974957
    One-Electron Energy =                -281.4052172579313265
    Two-Electron Energy =                 107.5923291918403351
    DFT Exchange-Correlation Energy =     -14.4597963154034819
    Empirical Dispersion Energy =          -0.0003189800000000
    PCM Polarization Energy =               0.0000000000000000
    EFP Energy =                            0.0000000000000000
    Total Energy =                       -151.5477811268969788



Properties will be evaluated at   0.000000,   0.000000,   0.000000 Bohr

Properties computed using the SCF density matrix

  Nuclear Dipole Moment: (a.u.)
     X:     0.0951      Y:     0.5592      Z:     1.2545

  Electronic Dipole Moment: (a.u.)
     X:    -0.0232      Y:    -0.1365      Z:    -0.3063

  Dipole Moment: (a.u.)
     X:     0.0719      Y:     0.4226      Z:     0.9482     Total:     1.0406

  Dipole Moment: (Debye)
     X:     0.1828      Y:     1.0742      Z:     2.4101     Total:     2.6450


*** tstop() called on computer03 at Fri Aug 11 14:05:57 2017
Module time:
	user time   =      14.54 seconds =       0.24 minutes
	system time =       0.43 seconds =       0.01 minutes
	total time  =          4 seconds =       0.07 minutes
Total time:
	user time   =      82.04 seconds =       1.37 minutes
	system time =       2.82 seconds =       0.05 minutes
	total time  =         22 seconds =       0.37 minutes

*** tstart() called on computer03
*** at Fri Aug 11 14:05:57 2017


         ------------------------------------------------------------
                                   SCF GRAD                          
                          Rob Parrish, Justin Turney,                
                       Andy Simmonett, and Alex Sokolov              
         ------------------------------------------------------------

  ==> Geometry <==

    Molecular point group: c1
    Full point group: C1

    Geometry (in Angstrom), charge = 0, multiplicity = 1:

       Center              X                  Y                   Z               Mass       
    ------------   -----------------  -----------------  -----------------  -----------------
           O         -0.726057469706     0.009318998518     0.000115987237    15.994914619560
           O          0.719660533793    -0.046913923245    -0.084463014832    15.994914619560
           H         -0.884626406865    -0.164712282819     0.946648013415     1.007825032070
           H          0.986150421950     0.761371020204     0.392000523647     1.007825032070

  Nuclear repulsion =   36.725222234597496

  ==> Basis Set <==

  Basis Set: CC-PVDZ
    Blend: CC-PVDZ
    Number of shells: 18
    Number of basis function: 38
    Number of Cartesian functions: 40
    Spherical Harmonics?: true
    Max angular momentum: 2

  ==> DFJKGrad: Density-Fitted SCF Gradients <==

    Gradient:                    1
    J tasked:                  Yes
    K tasked:                  Yes
    wK tasked:                  No
    OpenMP threads:              8
    Integrals threads:           8
    Memory (MB):              1430
    Schwarz Cutoff:          0E+00
    Fitting Condition:       1E-12

   => Auxiliary Basis Set <=

  Basis Set: (CC-PVDZ AUX)
    Blend: CC-PVDZ-JKFIT
    Number of shells: 66
    Number of basis function: 186
    Number of Cartesian functions: 212
    Spherical Harmonics?: true
    Max angular momentum: 3

  ==> DFT Potential <==

   => B3LYP Composite Functional <= 

    B3LYP Hybrid-GGA Exchange-Correlation Functional (VWN1-RPA)

    P.J. Stephens et. al., J. Phys. Chem., 98, 11623-11627, 1994

    Points   =           5000
    Deriv    =              1
    GGA      =           TRUE
    Meta     =          FALSE

    X_LRC        =          FALSE
    X_Hybrid     =           TRUE
    X_Alpha      =   2.000000E-01
    X_Omega      =   0.000000E+00
    C_LRC        =          FALSE
    C_Hybrid     =          FALSE
    C_Alpha      =   0.000000E+00
    C_Omega      =   0.000000E+00

   => Exchange Functionals <=

    0.8000    B3_X
    0.2000      HF 

   => Correlation Functionals <=

    0.1900 VWN3RPA_C
    0.8100   LYP_C

   => Molecular Quadrature <=

    Radial Scheme    =       TREUTLER
    Pruning Scheme   =           FLAT
    Nuclear Scheme   =       TREUTLER

    BS radius alpha  =              1
    Pruning alpha    =              1
    Radial Points    =             75
    Spherical Points =            302
    Total Points     =          88314
    Total Blocks     =             88
    Max Points       =           4750
    Max Functions    =             38


  -Total Gradient:
     Atom            X                  Y                   Z
    ------   -----------------  -----------------  -----------------
       1       -0.001143023901    -0.005598572828    -0.000349421976
       2        0.000773158449     0.003426962532    -0.004519550273
       3        0.000195844657     0.004606853619     0.000849150032
       4        0.000172244662    -0.002445678689     0.003996405845


*** tstop() called on computer03 at Fri Aug 11 14:05:59 2017
Module time:
	user time   =       5.53 seconds =       0.09 minutes
	system time =       0.23 seconds =       0.00 minutes
	total time  =          2 seconds =       0.03 minutes
Total time:
	user time   =      87.62 seconds =       1.46 minutes
	system time =       3.05 seconds =       0.05 minutes
	total time  =         24 seconds =       0.40 minutes

			-----------------------------------------
			 OPTKING 2.0: for geometry optimizations 
			  - R.A. King,  Bethel University        
			-----------------------------------------
	At level 1: Red. Int., RFO, no backsteps, dynamic trust

	Previous internal coordinate definitions found.
	---Fragment 1 Geometry and Gradient---
	 O          -1.3720497745        0.0176103550        0.0002191841
	 O           1.3599613175       -0.0886544668       -0.1596119664
	 H          -1.6717016389       -0.3112611052        1.7889054896
	 H           1.8635542233        1.4387827137        0.7407736336
	            -0.0011430239       -0.0055985728       -0.0003494220
	             0.0007731584        0.0034269625       -0.0045195503
	             0.0001958447        0.0046068536        0.0008491500
	             0.0001722447       -0.0024456787        0.0039964058

	---Fragment 1 Intrafragment Coordinates---
	 - Coordinate -           - BOHR/RAD -       - ANG/DEG -
	 R(1,2)           =         2.738745	       1.449281
	 R(1,3)           =         1.843189	       0.975374
	 R(2,4)           =         1.843194	       0.975376
	 B(1,2,4)         =         1.784299	     102.232787
	 B(2,1,3)         =         1.784298	     102.232746
	*D(3,1,2,4)       =        -1.221731	     -70.000005

	Current energy   :      -151.5477811269

	Energy change for the previous step:
		Projected    :        -0.0000475605
		Actual       :        -0.0000232421

	Performing BFGS update.
	Previous computed or guess Hessian on step 1.
	Steps to be used in Hessian update: 3 2
	Taking RFO optimization step.
	Going to follow RFO solution 1.
	Using RFO vector 1.
	Norm of target step-size    0.00362
	Projected energy change by RFO approximation:        -0.0000039120

	Back-transformation to cartesian coordinates...
	Successfully converged to displaced geometry.

	Back-transformation to cartesian coordinates to adjust frozen coordinates...
	Successfully converged to displaced geometry.

	--- Internal Coordinate Step in ANG or DEG, aJ/ANG or AJ/DEG ---
	 ---------------------------------------------------------------------------
	   Coordinate                Previous        Force       Change         New 
	   ----------                --------       ------       ------       ------
	    1 R(1,2)          =      1.449281    -0.007696    -0.001858     1.447423
	    2 R(1,3)          =      0.975374     0.000194     0.000018     0.975391
	    3 R(2,4)          =      0.975376     0.000175     0.000016     0.975392
	    4 B(1,2,4)        =    102.232787    -0.000005     0.035053   102.267840
	    5 B(2,1,3)        =    102.232746    -0.000005     0.035095   102.267841
	    6 *D(3,1,2,4)     =    -70.000005     0.000000     0.000000   -70.000005
	 ---------------------------------------------------------------------------
	Successfully symmetrized geometry.

  ==> Convergence Check <==

  Measures of convergence in internal coordinates in au.
  Criteria marked as inactive (o), active & met (*), and active & unmet ( ).
  ---------------------------------------------------------------------------------------------
   Step     Total Energy     Delta E     MAX Force     RMS Force      MAX Disp      RMS Disp   
  ---------------------------------------------------------------------------------------------
    Convergence Criteria    1.00e-06 *    3.00e-04 *             o    1.20e-03 *             o
  ---------------------------------------------------------------------------------------------
      4    -151.54778113   -2.32e-05      9.34e-04      3.84e-04 o    3.51e-03      1.48e-03 o  ~
  ---------------------------------------------------------------------------------------------

	Writing optimization data to binary file.
	Structure for next step:
	Cartesian Geometry (in Angstrom)
	    O    -0.7251265378   0.0093515762   0.0000802645
	    O     0.7187366401  -0.0469092030  -0.0843452321
	    H    -0.8843284479  -0.1646202157   0.9465352960
	    H     0.9858454247   0.7612416552   0.3920311811
			--------------------------
			 OPTKING Finished Execution 
			--------------------------

    Structure for next step:
    Molecular point group: c1
    Full point group: C1

    Geometry (in Angstrom), charge = 0, multiplicity = 1:

    O           -0.725129639768     0.009335138056     0.000044098551
    O            0.718733538225    -0.046925641171    -0.084381398055
    H           -0.884331549775    -0.164636653864     0.946499130044
    H            0.985842322794     0.761225217064     0.391995015156

gradient() will perform analytic gradient computation.

*** tstart() called on computer03
*** at Fri Aug 11 14:05:59 2017

   => Loading Basis Set <=

    Name: CC-PVDZ
    Role: ORBITAL
    Keyword: BASIS
    atoms 1-2 entry O          line   190 file /home/raimis/opt/miniconda3/envs/htmd/share/psi4/basis/cc-pvdz.gbs 
    atoms 3-4 entry H          line    20 file /home/raimis/opt/miniconda3/envs/htmd/share/psi4/basis/cc-pvdz.gbs 


         ---------------------------------------------------------
                                   SCF
            by Justin Turney, Rob Parrish, and Andy Simmonett
                              RKS Reference
                        8 Threads,   1907 MiB Core
         ---------------------------------------------------------

  ==> Geometry <==

    Molecular point group: c1
    Full point group: C1

    Geometry (in Angstrom), charge = 0, multiplicity = 1:

       Center              X                  Y                   Z               Mass       
    ------------   -----------------  -----------------  -----------------  -----------------
           O         -0.725129639768     0.009335138056     0.000044098551    15.994914619560
           O          0.718733538225    -0.046925641171    -0.084381398055    15.994914619560
           H         -0.884331549775    -0.164636653864     0.946499130044     1.007825032070
           H          0.985842322794     0.761225217064     0.391995015156     1.007825032070

  Running in c1 symmetry.

  Rotational constants: A =      9.91826  B =      0.88240  C =      0.85501 [cm^-1]
  Rotational constants: A = 297341.89619  B =  26453.66814  C =  25632.48428 [MHz]
  Nuclear repulsion =   36.757831067235678

  Charge       = 0
  Multiplicity = 1
  Electrons    = 18
  Nalpha       = 9
  Nbeta        = 9

  ==> Algorithm <==

  SCF Algorithm Type is DF.
  DIIS enabled.
  MOM disabled.
  Fractional occupation disabled.
  Guess Type is READ.
  Energy threshold   = 1.00e-08
  Density threshold  = 1.00e-08
  Integral threshold = 0.00e+00

  ==> Primary Basis <==

  Basis Set: CC-PVDZ
    Blend: CC-PVDZ
    Number of shells: 18
    Number of basis function: 38
    Number of Cartesian functions: 40
    Spherical Harmonics?: true
    Max angular momentum: 2

  ==> DFT Potential <==

   => B3LYP Composite Functional <= 

    B3LYP Hybrid-GGA Exchange-Correlation Functional (VWN1-RPA)

    P.J. Stephens et. al., J. Phys. Chem., 98, 11623-11627, 1994

    Points   =           5000
    Deriv    =              1
    GGA      =           TRUE
    Meta     =          FALSE

    X_LRC        =          FALSE
    X_Hybrid     =           TRUE
    X_Alpha      =   2.000000E-01
    X_Omega      =   0.000000E+00
    C_LRC        =          FALSE
    C_Hybrid     =          FALSE
    C_Alpha      =   0.000000E+00
    C_Omega      =   0.000000E+00

   => Exchange Functionals <=

    0.8000    B3_X
    0.2000      HF 

   => Correlation Functionals <=

    0.1900 VWN3RPA_C
    0.8100   LYP_C

   => Molecular Quadrature <=

    Radial Scheme    =       TREUTLER
    Pruning Scheme   =           FLAT
    Nuclear Scheme   =       TREUTLER

    BS radius alpha  =              1
    Pruning alpha    =              1
    Radial Points    =             75
    Spherical Points =            302
    Total Points     =          88314
    Total Blocks     =             88
    Max Points       =           4750
    Max Functions    =             38

   => -D3ZERO: Empirical Dispersion <=

    Grimme's -D3 (zero-damping) Dispersion Correction
    Grimme S.; Antony J.; Ehrlich S.; Krieg H. (2010), J. Chem. Phys., 132: 154104

        S6 =   1.000000E+00
        S8 =   1.703000E+00
       SR6 =   1.261000E+00
    ALPHA6 =   1.400000E+01

   => Loading Basis Set <=

    Name: (CC-PVDZ AUX)
    Role: JKFIT
    Keyword: DF_BASIS_SCF
    atoms 1-2 entry O          line   220 file /home/raimis/opt/miniconda3/envs/htmd/share/psi4/basis/cc-pvdz-jkfit.gbs 
    atoms 3-4 entry H          line    50 file /home/raimis/opt/miniconda3/envs/htmd/share/psi4/basis/cc-pvdz-jkfit.gbs 

  Reading orbitals from file 180, no projection.

  ==> Pre-Iterations <==

   -------------------------------------------------------
    Irrep   Nso     Nmo     Nalpha   Nbeta   Ndocc  Nsocc
   -------------------------------------------------------
     A         38      38       0       0       0       0
   -------------------------------------------------------
    Total      38      38       9       9       9       0
   -------------------------------------------------------

  ==> Integral Setup <==

  ==> DFJK: Density-Fitted J/K Matrices <==

    J tasked:                  Yes
    K tasked:                  Yes
    wK tasked:                  No
    OpenMP threads:              8
    Integrals threads:           8
    Memory (MB):              1430
    Algorithm:                Core
    Integral Cache:           NONE
    Schwarz Cutoff:          1E-12
    Fitting Condition:       1E-12

   => Auxiliary Basis Set <=

  Basis Set: (CC-PVDZ AUX)
    Blend: CC-PVDZ-JKFIT
    Number of shells: 66
    Number of basis function: 186
    Number of Cartesian functions: 212
    Spherical Harmonics?: true
    Max angular momentum: 3

  Minimum eigenvalue in the overlap matrix is 2.5736110084E-02.
  Using Symmetric Orthogonalization.

  SCF Guess: Orbitals guess was supplied from a previous computation.

  ==> Iterations <==

                           Total Energy        Delta E     RMS |[F,P]|

   @DF-RKS iter   0:  -151.54865460666286   -1.51549e+02   1.65583e-04 
   @DF-RKS iter   1:  -151.54778241482779    8.72192e-04   4.77348e-05 
   @DF-RKS iter   2:  -151.54778260349852   -1.88671e-07   1.71515e-05 DIIS
   @DF-RKS iter   3:  -151.54778266825170   -6.47532e-08   3.16391e-06 DIIS
   @DF-RKS iter   4:  -151.54778267020066   -1.94896e-09   3.69349e-07 DIIS
   @DF-RKS iter   5:  -151.54778267022232   -2.16573e-11   7.91565e-08 DIIS
   @DF-RKS iter   6:  -151.54778267022257   -2.55795e-13   5.26163e-08 DIIS
   @DF-RKS iter   7:  -151.54778267022337   -7.95808e-13   3.45043e-09 DIIS

  ==> Post-Iterations <==

    Orbital Energies (a.u.)
    -----------------------

    Doubly Occupied:                                                      

       1A    -19.189664     2A    -19.189627     3A     -1.112238  
       4A     -0.889756     5A     -0.546969     6A     -0.451068  
       7A     -0.417620     8A     -0.309993     9A     -0.272560  

    Virtual:                                                              

      10A      0.020249    11A      0.038761    12A      0.114912  
      13A      0.566802    14A      0.580964    15A      0.857958  
      16A      0.871263    17A      0.933614    18A      0.935050  
      19A      1.016128    20A      1.022084    21A      1.250111  
      22A      1.279647    23A      1.348251    24A      1.422169  
      25A      1.641082    26A      1.723324    27A      2.060149  
      28A      2.079945    29A      2.408698    30A      2.414978  
      31A      2.538311    32A      2.860233    33A      2.932060  
      34A      3.081669    35A      3.121740    36A      3.478314  
      37A      3.574129    38A      3.802373  

    Final Occupation by Irrep:
              A 
    DOCC [     9 ]

  Energy converged.

  @DF-RKS Final Energy:  -151.54778267022337

   => Energetics <=

    Nuclear Repulsion Energy =             36.7578310672356778
    One-Electron Energy =                -281.4689978893231341
    Two-Electron Energy =                 107.6241744998594498
    DFT Exchange-Correlation Energy =     -14.4604725779953753
    Empirical Dispersion Energy =          -0.0003177700000000
    PCM Polarization Energy =               0.0000000000000000
    EFP Energy =                            0.0000000000000000
    Total Energy =                       -151.5477826702233983



Properties will be evaluated at   0.000000,   0.000000,   0.000000 Bohr

Properties computed using the SCF density matrix

  Nuclear Dipole Moment: (a.u.)
     X:     0.0951      Y:     0.5591      Z:     1.2544

  Electronic Dipole Moment: (a.u.)
     X:    -0.0232      Y:    -0.1365      Z:    -0.3063

  Dipole Moment: (a.u.)
     X:     0.0719      Y:     0.4226      Z:     0.9481     Total:     1.0405

  Dipole Moment: (Debye)
     X:     0.1828      Y:     1.0741      Z:     2.4098     Total:     2.6447


*** tstop() called on computer03 at Fri Aug 11 14:06:03 2017
Module time:
	user time   =      12.89 seconds =       0.21 minutes
	system time =       0.44 seconds =       0.01 minutes
	total time  =          4 seconds =       0.07 minutes
Total time:
	user time   =     100.76 seconds =       1.68 minutes
	system time =       3.50 seconds =       0.06 minutes
	total time  =         28 seconds =       0.47 minutes

*** tstart() called on computer03
*** at Fri Aug 11 14:06:03 2017


         ------------------------------------------------------------
                                   SCF GRAD                          
                          Rob Parrish, Justin Turney,                
                       Andy Simmonett, and Alex Sokolov              
         ------------------------------------------------------------

  ==> Geometry <==

    Molecular point group: c1
    Full point group: C1

    Geometry (in Angstrom), charge = 0, multiplicity = 1:

       Center              X                  Y                   Z               Mass       
    ------------   -----------------  -----------------  -----------------  -----------------
           O         -0.725129639768     0.009335138056     0.000044098551    15.994914619560
           O          0.718733538225    -0.046925641171    -0.084381398055    15.994914619560
           H         -0.884331549775    -0.164636653864     0.946499130044     1.007825032070
           H          0.985842322794     0.761225217064     0.391995015156     1.007825032070

  Nuclear repulsion =   36.757831067235678

  ==> Basis Set <==

  Basis Set: CC-PVDZ
    Blend: CC-PVDZ
    Number of shells: 18
    Number of basis function: 38
    Number of Cartesian functions: 40
    Spherical Harmonics?: true
    Max angular momentum: 2

  ==> DFJKGrad: Density-Fitted SCF Gradients <==

    Gradient:                    1
    J tasked:                  Yes
    K tasked:                  Yes
    wK tasked:                  No
    OpenMP threads:              8
    Integrals threads:           8
    Memory (MB):              1430
    Schwarz Cutoff:          0E+00
    Fitting Condition:       1E-12

   => Auxiliary Basis Set <=

  Basis Set: (CC-PVDZ AUX)
    Blend: CC-PVDZ-JKFIT
    Number of shells: 66
    Number of basis function: 186
    Number of Cartesian functions: 212
    Spherical Harmonics?: true
    Max angular momentum: 3

  ==> DFT Potential <==

   => B3LYP Composite Functional <= 

    B3LYP Hybrid-GGA Exchange-Correlation Functional (VWN1-RPA)

    P.J. Stephens et. al., J. Phys. Chem., 98, 11623-11627, 1994

    Points   =           5000
    Deriv    =              1
    GGA      =           TRUE
    Meta     =          FALSE

    X_LRC        =          FALSE
    X_Hybrid     =           TRUE
    X_Alpha      =   2.000000E-01
    X_Omega      =   0.000000E+00
    C_LRC        =          FALSE
    C_Hybrid     =          FALSE
    C_Alpha      =   0.000000E+00
    C_Omega      =   0.000000E+00

   => Exchange Functionals <=

    0.8000    B3_X
    0.2000      HF 

   => Correlation Functionals <=

    0.1900 VWN3RPA_C
    0.8100   LYP_C

   => Molecular Quadrature <=

    Radial Scheme    =       TREUTLER
    Pruning Scheme   =           FLAT
    Nuclear Scheme   =       TREUTLER

    BS radius alpha  =              1
    Pruning alpha    =              1
    Radial Points    =             75
    Spherical Points =            302
    Total Points     =          88314
    Total Blocks     =             88
    Max Points       =           4750
    Max Functions    =             38


  -Total Gradient:
     Atom            X                  Y                   Z
    ------   -----------------  -----------------  -----------------
       1       -0.000195679140    -0.005612161455    -0.000452669635
       2       -0.000178316888     0.003414407559    -0.004477626600
       3        0.000240783501     0.004609692327     0.000882125107
       4        0.000131456305    -0.002422259587     0.004025014134


*** tstop() called on computer03 at Fri Aug 11 14:06:04 2017
Module time:
	user time   =       6.14 seconds =       0.10 minutes
	system time =       0.23 seconds =       0.00 minutes
	total time  =          1 seconds =       0.02 minutes
Total time:
	user time   =     107.00 seconds =       1.78 minutes
	system time =       3.74 seconds =       0.06 minutes
	total time  =         29 seconds =       0.48 minutes

			-----------------------------------------
			 OPTKING 2.0: for geometry optimizations 
			  - R.A. King,  Bethel University        
			-----------------------------------------
	At level 1: Red. Int., RFO, no backsteps, dynamic trust

	Previous internal coordinate definitions found.
	---Fragment 1 Geometry and Gradient---
	 O          -1.3702964300        0.0176408543        0.0000833342
	 O           1.3582095498       -0.0886766104       -0.1594577330
	 H          -1.6711444397       -0.3111181872        1.7886241408
	 H           1.8629720003        1.4385071857        0.7407632241
	            -0.0001956791       -0.0056121615       -0.0004526696
	            -0.0001783169        0.0034144076       -0.0044776266
	             0.0002407835        0.0046096923        0.0008821251
	             0.0001314563       -0.0024222596        0.0040250141

	---Fragment 1 Intrafragment Coordinates---
	 - Coordinate -           - BOHR/RAD -       - ANG/DEG -
	 R(1,2)           =         2.735233	       1.447423
	 R(1,3)           =         1.843223	       0.975391
	 R(2,4)           =         1.843224	       0.975392
	 B(1,2,4)         =         1.784911	     102.267840
	 B(2,1,3)         =         1.784911	     102.267841
	*D(3,1,2,4)       =        -1.221731	     -70.000005

	Current energy   :      -151.5477826702

	Energy change for the previous step:
		Projected    :        -0.0000039120
		Actual       :        -0.0000015433

	Performing BFGS update.
	Previous computed or guess Hessian on step 1.
	Steps to be used in Hessian update: 4 3
	Taking RFO optimization step.
	Going to follow RFO solution 1.
	Using RFO vector 1.
	Norm of target step-size    0.00019
	Projected energy change by RFO approximation:        -0.0000000088

	Back-transformation to cartesian coordinates...
	Successfully converged to displaced geometry.

	Back-transformation to cartesian coordinates to adjust frozen coordinates...
	Successfully converged to displaced geometry.

	--- Internal Coordinate Step in ANG or DEG, aJ/ANG or AJ/DEG ---
	 ---------------------------------------------------------------------------
	   Coordinate                Previous        Force       Change         New 
	   ----------                --------       ------       ------       ------
	    1 R(1,2)          =      1.447423     0.000497     0.000096     1.447520
	    2 R(1,3)          =      0.975391    -0.000005     0.000001     0.975392
	    3 R(2,4)          =      0.975392    -0.000008     0.000000     0.975392
	    4 B(1,2,4)        =    102.267840     0.000002     0.002482   102.270322
	    5 B(2,1,3)        =    102.267841     0.000002     0.002475   102.270316
	    6 *D(3,1,2,4)     =    -70.000005     0.000000     0.000000   -70.000005
	 ---------------------------------------------------------------------------
	Successfully symmetrized geometry.

  ==> Convergence Check <==

  Measures of convergence in internal coordinates in au.
  Criteria marked as inactive (o), active & met (*), and active & unmet ( ).
  ---------------------------------------------------------------------------------------------
   Step     Total Energy     Delta E     MAX Force     RMS Force      MAX Disp      RMS Disp   
  ---------------------------------------------------------------------------------------------
    Convergence Criteria    1.00e-06 *    3.00e-04 *             o    1.20e-03 *             o
  ---------------------------------------------------------------------------------------------
      5    -151.54778267   -1.54e-06      6.03e-05 *    2.74e-05 o    1.82e-04 *    7.85e-05 o  ~
  ---------------------------------------------------------------------------------------------


  **** Optimization is complete! (in 5 steps) ****

  ==> Optimization Summary <==

  Measures of convergence in internal coordinates in au.
  --------------------------------------------------------------------------------------------------------------- ~
   Step         Total Energy             Delta E       MAX Force       RMS Force        MAX Disp        RMS Disp  ~
  --------------------------------------------------------------------------------------------------------------- ~
      1    -151.545706739449   -151.545706739449      0.02152443      0.01327387      0.12913814      0.07550357  ~
      2    -151.547213494648     -0.001506755199      0.01481987      0.00793867      0.03297633      0.02185728  ~
      3    -151.547757884806     -0.000544390158      0.00367123      0.00150152      0.01025736      0.00446160  ~
      4    -151.547781126897     -0.000023242091      0.00093412      0.00038364      0.00351137      0.00147655  ~
      5    -151.547782670223     -0.000001543326      0.00006030      0.00002742      0.00018226      0.00007849  ~
  --------------------------------------------------------------------------------------------------------------- ~

	Writing optimization data to binary file.
	Final energy is   -151.5477826702234
	Final (previous) structure:
	Cartesian Geometry (in Angstrom)
	    O    -0.7251296398   0.0093351381   0.0000440986
	    O     0.7187335382  -0.0469256412  -0.0843813981
	    H    -0.8843315498  -0.1646366539   0.9464991300
	    H     0.9858423228   0.7612252171   0.3919950152
	Saving final (previous) structure.
			--------------------------
			 OPTKING Finished Execution 
			--------------------------

    Final optimized geometry and variables:
    Molecular point group: c1
    Full point group: C1

    Geometry (in Angstrom), charge = 0, multiplicity = 1:

    O           -0.725129639768     0.009335138056     0.000044098551
    O            0.718733538225    -0.046925641171    -0.084381398055
    H           -0.884331549775    -0.164636653864     0.946499130044
    H            0.985842322794     0.761225217064     0.391995015156

	Cleaning optimization helper files.


Properties will be evaluated at   0.000000,   0.000000,   0.000000 Bohr

Properties computed using the  density matrix

  Nuclear Dipole Moment: (a.u.)
     X:     0.0951      Y:     0.5591      Z:     1.2544

  Electronic Dipole Moment: (a.u.)
     X:    -0.0232      Y:    -0.1365      Z:    -0.3063

  Dipole Moment: (a.u.)
     X:     0.0719      Y:     0.4226      Z:     0.9481     Total:     1.0405

  Dipole Moment: (Debye)
     X:     0.1828      Y:     1.0741      Z:     2.4098     Total:     2.6447

  Quadrupole Moment: (Debye Ang)
    XX:   -10.7256     YY:   -10.8800     ZZ:    -9.8683
    XY:     1.8172     XZ:    -0.7370     YZ:     0.3596

  Traceless Quadrupole Moment: (Debye Ang)
    XX:    -0.2343     YY:    -0.3887     ZZ:     0.6230
    XY:     1.8172     XZ:    -0.7370     YZ:     0.3596

  Mulliken Charges: (a.u.)
   Center  Symbol    Alpha    Beta     Spin     Total
       1     O     4.08520  4.08520  0.00000 -0.17040
       2     O     4.08520  4.08520  0.00000 -0.17040
       3     H     0.41480  0.41480  0.00000  0.17040
       4     H     0.41480  0.41480  0.00000  0.17040

   Total alpha =  9.00000, Total beta =  9.00000, Total charge = -0.00000


*** Psi4 exiting successfully. Buy a developer a beer!
