    -----------------------------------------------------------------------
          Psi4: An Open-Source Ab Initio Electronic Structure Package
                              Psi4 (no tag) Driver

                          Git: Rev {detached?}  

    J. M. Turney, A. C. Simmonett, R. M. Parrish, E. G. Hohenstein,
    F. A. Evangelista, J. T. Fermann, B. J. Mintz, L. A. Burns, J. J. Wilke,
    M. L. Abrams, N. J. Russ, M. L. Leininger, C. L. Janssen, E. T. Seidl,
    W. D. Allen, H. F. Schaefer, R. A. King, E. F. Valeev, C. D. Sherrill,
    and T. D. Crawford, WIREs Comput. Mol. Sci. 2, 556-565 (2012)
    (doi: 10.1002/wcms.93)

                         Additional Contributions by
    A. E. DePrince, M. Saitow, U. Bozkaya, A. Yu. Sokolov
    -----------------------------------------------------------------------


    Psi4 started on: Tue Jul  5 16:33:41 2016

    Process ID:  17802
    PSI4DATADIR: /export131/home/mjharvey/miniconda3/share
    Memory level set to 256.000 MB

  ==> Input File <==

--------------------------------------------------------------------------
set {
	reference rhf
	basis 6-31G*
}


set_num_threads( 1 )
memory 2 gb

molecule MOL {
0 1

H	 0.049080	 1.822659	 0.479765
O	 0.428306	 1.057262	 0.900582
C	 0.489431	 0.077273	 0.000046
C	 -0.764129	 -0.759190	 0.000191
O	 1.436301	 -0.082777	 -0.698801
C	 -2.038368	 0.075731	 -0.000248
H	 -0.717284	 -1.412404	 -0.866059
H	 -0.717458	 -1.411724	 0.866967
H	 -2.086483	 0.712501	 -0.875098
H	 -2.908485	 -0.571682	 -0.000042
H	 -2.086576	 0.713280	 0.874068

	symmetry c1
}
set optking {
	frozen_dihedral = ("
		2 3 4 7
	")
}

ee = energy('scf')
oeprop('DIPOLE', 'QUADRUPOLE', 'MULLIKEN_CHARGES')
f=open( 'psi4out.xyz', 'w' )
f.write( "11  " )
f.write( str(ee) + "\n" )
f.write( MOL.save_string_xyz() )
f.close()
--------------------------------------------------------------------------

  Memory set to   2.000 GiB by Python script.

*** tstart() called on cx1-3-15-3.cx1.hpc.ic.ac.uk
*** at Tue Jul  5 16:33:42 2016


         ---------------------------------------------------------
                                   SCF
            by Justin Turney, Rob Parrish, and Andy Simmonett
                              RHF Reference
                        1 Threads,   2000 MiB Core
         ---------------------------------------------------------

  ==> Geometry <==

    Molecular point group: c1
    Full point group: C1

    Geometry (in Angstrom), charge = 0, multiplicity = 1:

       Center              X                  Y                   Z               Mass       
    ------------   -----------------  -----------------  -----------------  -----------------
           H          0.136415300699     1.712388817251     0.429645427153     1.007825032070
           O          0.515641300699     0.946991817251     0.850462427153    15.994914619560
           C          0.576766300699    -0.032997182749    -0.050073572847    12.000000000000
           C         -0.676793699301    -0.869460182749    -0.049928572847    12.000000000000
           O          1.523636300699    -0.193047182749    -0.748920572847    15.994914619560
           C         -1.951032699301    -0.034539182749    -0.050367572847    12.000000000000
           H         -0.629948699301    -1.522674182749    -0.916178572847     1.007825032070
           H         -0.630122699301    -1.521994182749     0.816847427153     1.007825032070
           H         -1.999147699301     0.602230817251    -0.925217572847     1.007825032070
           H         -2.821149699301    -0.681952182749    -0.050161572847     1.007825032070
           H         -1.999240699301     0.603009817251     0.823948427153     1.007825032070

  Running in c1 symmetry.

  Rotational constants: A =      0.31028  B =      0.13505  C =      0.10455 [cm^-1]
  Rotational constants: A =   9301.84459  B =   4048.71392  C =   3134.30834 [MHz]
  Nuclear repulsion =  180.840192155318334

  Charge       = 0
  Multiplicity = 1
  Electrons    = 40
  Nalpha       = 20
  Nbeta        = 20

  ==> Algorithm <==

  SCF Algorithm Type is DF.
  DIIS enabled.
  MOM disabled.
  Fractional occupation disabled.
  Guess Type is CORE.
  Energy threshold   = 1.00e-06
  Density threshold  = 1.00e-06
  Integral threshold = 0.00e+00

  ==> Primary Basis <==

  Basis Set: 6-31G*
    Number of shells: 42
    Number of basis function: 87
    Number of Cartesian functions: 87
    Spherical Harmonics?: false
    Max angular momentum: 2

  ==> Pre-Iterations <==

   -------------------------------------------------------
    Irrep   Nso     Nmo     Nalpha   Nbeta   Ndocc  Nsocc
   -------------------------------------------------------
     A         87      87       0       0       0       0
   -------------------------------------------------------
    Total      87      87      20      20      20       0
   -------------------------------------------------------

 OEINTS: Overlap, kinetic, potential, dipole, and quadrupole integrals
         stored in file 35.

  ==> Integral Setup <==

  ==> DFJK: Density-Fitted J/K Matrices <==

    J tasked:                  Yes
    K tasked:                  Yes
    wK tasked:                  No
    OpenMP threads:              1
    Integrals threads:           1
    Memory (MB):              1430
    Algorithm:                Core
    Integral Cache:           NONE
    Schwarz Cutoff:          1E-12
    Fitting Condition:       1E-12

   => Auxiliary Basis Set <=

  Basis Set: 
    Number of shells: 174
    Number of basis function: 555
    Number of Cartesian functions: 555
    Spherical Harmonics?: false
    Max angular momentum: 3

  Minimum eigenvalue in the overlap matrix is 3.6658128617E-03.
  Using Symmetric Orthogonalization.
  SCF Guess: Core (One-Electron) Hamiltonian.

  ==> Iterations <==

                           Total Energy        Delta E     RMS |[F,P]|

   @DF-RHF iter   1:  -217.30965325517491   -2.17310e+02   8.23222e-02 
   @DF-RHF iter   2:  -157.66610642552678    5.96435e+01   9.02582e-02 DIIS
   @DF-RHF iter   3:  -250.37512472268628   -9.27090e+01   3.98331e-02 DIIS
   @DF-RHF iter   4:  -241.30062052839310    9.07450e+00   5.94658e-02 DIIS
   @DF-RHF iter   5:  -266.55256619233444   -2.52519e+01   8.58397e-03 DIIS
   @DF-RHF iter   6:  -266.71933783140554   -1.66772e-01   5.94065e-03 DIIS
   @DF-RHF iter   7:  -266.81453627620425   -9.51984e-02   1.01986e-03 DIIS
   @DF-RHF iter   8:  -266.81909528827435   -4.55901e-03   4.27815e-04 DIIS
   @DF-RHF iter   9:  -266.81993747352521   -8.42185e-04   1.44474e-04 DIIS
   @DF-RHF iter  10:  -266.82001668407196   -7.92105e-05   6.08304e-05 DIIS
   @DF-RHF iter  11:  -266.82003498777004   -1.83037e-05   1.95959e-05 DIIS
   @DF-RHF iter  12:  -266.82003702157732   -2.03381e-06   5.23618e-06 DIIS
   @DF-RHF iter  13:  -266.82003721129229   -1.89715e-07   1.42039e-06 DIIS
   @DF-RHF iter  14:  -266.82003722970450   -1.84122e-08   5.09426e-07 DIIS

  ==> Post-Iterations <==

    Orbital Energies (a.u.)
    -----------------------

    Doubly Occupied:                                                      

       1A    -20.598963     2A    -20.559890     3A    -11.380200  
       4A    -11.244217     5A    -11.237292     6A     -1.469689  
       7A     -1.369328     8A     -1.071130     9A     -0.913604  
      10A     -0.818859    11A     -0.714585    12A     -0.680343  
      13A     -0.653688    14A     -0.628663    15A     -0.569261  
      16A     -0.548225    17A     -0.523804    18A     -0.500616  
      19A     -0.493036    20A     -0.442112  

    Virtual:                                                              

      21A      0.171502    22A      0.195424    23A      0.270357  
      24A      0.284335    25A      0.294877    26A      0.308277  
      27A      0.333337    28A      0.392970    29A      0.425152  
      30A      0.503830    31A      0.562223    32A      0.717586  
      33A      0.725663    34A      0.764366    35A      0.781345  
      36A      0.842128    37A      0.868943    38A      0.930550  
      39A      0.965237    40A      0.967126    41A      1.032471  
      42A      1.082413    43A      1.122832    44A      1.128826  
      45A      1.153350    46A      1.155169    47A      1.197827  
      48A      1.227568    49A      1.245313    50A      1.293850  
      51A      1.339138    52A      1.352781    53A      1.369657  
      54A      1.433588    55A      1.611057    56A      1.688272  
      57A      1.711471    58A      1.828169    59A      1.888910  
      60A      1.991929    61A      2.023965    62A      2.045556  
      63A      2.080438    64A      2.117435    65A      2.146697  
      66A      2.225774    67A      2.250449    68A      2.289224  
      69A      2.368660    70A      2.431213    71A      2.577592  
      72A      2.623235    73A      2.667504    74A      2.715985  
      75A      2.733876    76A      2.852489    77A      2.925177  
      78A      3.019624    79A      3.155529    80A      3.226934  
      81A      3.373176    82A      3.474023    83A      4.228230  
      84A      4.488161    85A      4.633729    86A      4.737375  
      87A      4.938091  

    Final Occupation by Irrep:
              A 
    DOCC [    20 ]

  Energy converged.

  @DF-RHF Final Energy:  -266.82003722970450

   => Energetics <=

    Nuclear Repulsion Energy =            180.8401921553183342
    One-Electron Energy =                -722.4854646291538529
    Two-Electron Energy =                 274.8252352441302833
    DFT Exchange-Correlation Energy =       0.0000000000000000
    Empirical Dispersion Energy =           0.0000000000000000
    PCM Polarization Energy =               0.0000000000000000
    EFP Energy =                            0.0000000000000000
    Total Energy =                       -266.8200372297052922

    Alert: EFP and PCM quantities not currently incorporated into SCF psivars.

Properties will be evaluated at   0.000000,   0.000000,   0.000000 Bohr
  ==> Properties <==


Properties computed using the SCF density matrix

  Nuclear Dipole Moment: (a.u.)
     X:    -7.4367      Y:    -0.7548      Z:     0.1682

  Electronic Dipole Moment: (a.u.)
     X:     6.0713      Y:     1.0319      Z:    -0.0635

  Dipole Moment: (a.u.)
     X:    -1.3654      Y:     0.2771      Z:     0.1047     Total:     1.3972

  Dipole Moment: (Debye)
     X:    -3.4706      Y:     0.7044      Z:     0.2660     Total:     3.5514


  Saving occupied orbitals to File 180.

*** tstop() called on cx1-3-15-3.cx1.hpc.ic.ac.uk at Tue Jul  5 16:33:45 2016
Module time:
	user time   =       3.31 seconds =       0.06 minutes
	system time =       0.03 seconds =       0.00 minutes
	total time  =          3 seconds =       0.05 minutes
Total time:
	user time   =       3.31 seconds =       0.06 minutes
	system time =       0.03 seconds =       0.00 minutes
	total time  =          3 seconds =       0.05 minutes


Properties will be evaluated at   0.000000,   0.000000,   0.000000 Bohr

Properties computed using the  density matrix

  Nuclear Dipole Moment: (a.u.)
     X:    -7.4367      Y:    -0.7548      Z:     0.1682

  Electronic Dipole Moment: (a.u.)
     X:     6.0713      Y:     1.0319      Z:    -0.0635

  Dipole Moment: (a.u.)
     X:    -1.3654      Y:     0.2771      Z:     0.1047     Total:     1.3972

  Dipole Moment: (Debye)
     X:    -3.4706      Y:     0.7044      Z:     0.2660     Total:     3.5514

  Quadrupole Moment: (Debye Ang)
    XX:   -34.7543     YY:   -25.8101     ZZ:   -32.7061
    XY:    -0.0212     XZ:     1.7656     YZ:    -1.7651

  Traceless Quadrupole Moment: (Debye Ang)
    XX:    -3.6641     YY:     5.2800     ZZ:    -1.6159
    XY:    -0.0212     XZ:     1.7656     YZ:    -1.7651

  Mulliken Charges: (a.u.)
   Center  Symbol    Alpha    Beta     Spin     Total
       1     H     0.26350  0.26350  0.00000  0.47299
       2     O     4.35391  4.35391  0.00000 -0.70782
       3     C     2.64192  2.64192  0.00000  0.71615
       4     C     3.20035  3.20035  0.00000 -0.40069
       5     O     4.25150  4.25150  0.00000 -0.50299
       6     C     3.26039  3.26039  0.00000 -0.52078
       7     H     0.39874  0.39874  0.00000  0.20253
       8     H     0.39796  0.39796  0.00000  0.20409
       9     H     0.41652  0.41652  0.00000  0.16696
      10     H     0.40650  0.40650  0.00000  0.18700
      11     H     0.40872  0.40872  0.00000  0.18256

   Total alpha = 20.00000, Total beta = 20.00000, Total charge =  0.00000


*** PSI4 exiting successfully. Buy a developer a beer!
