    -----------------------------------------------------------------------
          Psi4: An Open-Source Ab Initio Electronic Structure Package
                              Psi4 (no tag) Driver

                          Git: Rev {detached?}  

    J. M. Turney, A. C. Simmonett, R. M. Parrish, E. G. Hohenstein,
    F. A. Evangelista, J. T. Fermann, B. J. Mintz, L. A. Burns, J. J. Wilke,
    M. L. Abrams, N. J. Russ, M. L. Leininger, C. L. Janssen, E. T. Seidl,
    W. D. Allen, H. F. Schaefer, R. A. King, E. F. Valeev, C. D. Sherrill,
    and T. D. Crawford, WIREs Comput. Mol. Sci. 2, 556-565 (2012)
    (doi: 10.1002/wcms.93)

                         Additional Contributions by
    A. E. DePrince, M. Saitow, U. Bozkaya, A. Yu. Sokolov
    -----------------------------------------------------------------------


    Psi4 started on: Tue Jul  5 16:29:10 2016

    Process ID:  13894
    PSI4DATADIR: /export131/home/mjharvey/miniconda3/share
    Memory level set to 256.000 MB

  ==> Input File <==

--------------------------------------------------------------------------
set {
	reference rhf
	basis 6-31G*
}


set_num_threads( 1 )
memory 2 gb

molecule MOL {
0 1

O	 2.059874	 1.652230	 -0.950273
C	 0.934231	 1.357163	 -0.649333
C	 -0.192961	 2.353093	 -0.848455
N	 0.623947	 0.147590	 -0.102813
H	 -0.686601	 2.587232	 0.088338
H	 0.240730	 3.254020	 -1.255012
H	 -0.940804	 1.976527	 -1.538027
C	 1.665360	 -0.855771	 0.000151
C	 -0.726495	 -0.341817	 0.067572
H	 2.465253	 -0.618490	 -0.692587
H	 1.257730	 -1.821716	 -0.242189
H	 2.081488	 -0.891645	 1.004627
H	 -0.764346	 -0.979947	 0.942441
H	 -1.424759	 0.465296	 0.222261
H	 -1.057778	 -0.926611	 -0.788630

	symmetry c1
}
set optking {
	frozen_dihedral = ("
		8 4 2 3
	")
}

ee = energy('scf')
oeprop('DIPOLE', 'QUADRUPOLE', 'MULLIKEN_CHARGES')
f=open( 'psi4out.xyz', 'w' )
f.write( "15  " )
f.write( str(ee) + "\n" )
f.write( MOL.save_string_xyz() )
f.close()
--------------------------------------------------------------------------

  Memory set to   2.000 GiB by Python script.

*** tstart() called on cx1-3-2-1.cx1.hpc.ic.ac.uk
*** at Tue Jul  5 16:29:10 2016


         ---------------------------------------------------------
                                   SCF
            by Justin Turney, Rob Parrish, and Andy Simmonett
                              RHF Reference
                        1 Threads,   2000 MiB Core
         ---------------------------------------------------------

  ==> Geometry <==

    Molecular point group: c1
    Full point group: C1

    Geometry (in Angstrom), charge = 0, multiplicity = 1:

       Center              X                  Y                   Z               Mass       
    ------------   -----------------  -----------------  -----------------  -----------------
           O          1.336002077079     0.943425333534    -0.535926798698    15.994914619560
           C          0.210359077079     0.648358333534    -0.234986798698    12.000000000000
           C         -0.916832922921     1.644288333534    -0.434108798698    12.000000000000
           N         -0.099924922921    -0.561214666466     0.311533201302    14.003074004780
           H         -1.410472922921     1.878427333534     0.502684201302     1.007825032070
           H         -0.483141922921     2.545215333534    -0.840665798698     1.007825032070
           H         -1.664675922921     1.267722333534    -1.123680798698     1.007825032070
           C          0.941488077079    -1.564575666466     0.414497201302    12.000000000000
           C         -1.450366922921    -1.050621666466     0.481918201302    12.000000000000
           H          1.741381077079    -1.327294666466    -0.278240798698     1.007825032070
           H          0.533858077079    -2.530520666466     0.172157201302     1.007825032070
           H          1.357616077079    -1.600449666466     1.418973201302     1.007825032070
           H         -1.488217922921    -1.688751666466     1.356787201302     1.007825032070
           H         -2.148630922921    -0.243508666466     0.636607201302     1.007825032070
           H         -1.781649922921    -1.635415666466    -0.374283798698     1.007825032070

  Running in c1 symmetry.

  Rotational constants: A =      0.16612  B =      0.11521  C =      0.07082 [cm^-1]
  Rotational constants: A =   4980.00331  B =   3453.88454  C =   2123.25123 [MHz]
  Nuclear repulsion =  252.395826451083252

  Charge       = 0
  Multiplicity = 1
  Electrons    = 48
  Nalpha       = 24
  Nbeta        = 24

  ==> Algorithm <==

  SCF Algorithm Type is DF.
  DIIS enabled.
  MOM disabled.
  Fractional occupation disabled.
  Guess Type is CORE.
  Energy threshold   = 1.00e-06
  Density threshold  = 1.00e-06
  Integral threshold = 0.00e+00

  ==> Primary Basis <==

  Basis Set: 6-31G*
    Number of shells: 54
    Number of basis function: 108
    Number of Cartesian functions: 108
    Spherical Harmonics?: false
    Max angular momentum: 2

  ==> Pre-Iterations <==

   -------------------------------------------------------
    Irrep   Nso     Nmo     Nalpha   Nbeta   Ndocc  Nsocc
   -------------------------------------------------------
     A        108     108       0       0       0       0
   -------------------------------------------------------
    Total     108     108      24      24      24       0
   -------------------------------------------------------

 OEINTS: Overlap, kinetic, potential, dipole, and quadrupole integrals
         stored in file 35.

  ==> Integral Setup <==

  ==> DFJK: Density-Fitted J/K Matrices <==

    J tasked:                  Yes
    K tasked:                  Yes
    wK tasked:                  No
    OpenMP threads:              1
    Integrals threads:           1
    Memory (MB):              1430
    Algorithm:                Core
    Integral Cache:           NONE
    Schwarz Cutoff:          1E-12
    Fitting Condition:       1E-12

   => Auxiliary Basis Set <=

  Basis Set: 
    Number of shells: 225
    Number of basis function: 711
    Number of Cartesian functions: 711
    Spherical Harmonics?: false
    Max angular momentum: 3

  Minimum eigenvalue in the overlap matrix is 3.6616050904E-03.
  Using Symmetric Orthogonalization.
  SCF Guess: Core (One-Electron) Hamiltonian.

  ==> Iterations <==

                           Total Energy        Delta E     RMS |[F,P]|

   @DF-RHF iter   1:  -204.51158713628300   -2.04512e+02   8.85245e-02 
   @DF-RHF iter   2:  -226.09591999684332   -2.15843e+01   4.79693e-02 DIIS
   @DF-RHF iter   3:  -230.37404753352737   -4.27813e+00   7.32042e-02 DIIS
   @DF-RHF iter   4:  -269.17621705609429   -3.88022e+01   4.76442e-02 DIIS
   @DF-RHF iter   5:  -277.60611306754163   -8.42990e+00   3.71982e-02 DIIS
   @DF-RHF iter   6:  -280.89934262214138   -3.29323e+00   2.74585e-02 DIIS
   @DF-RHF iter   7:  -284.61274182098282   -3.71340e+00   1.45347e-02 DIIS
   @DF-RHF iter   8:  -285.80683321773461   -1.19409e+00   5.35688e-03 DIIS
   @DF-RHF iter   9:  -286.00296966607289   -1.96136e-01   1.79053e-03 DIIS
   @DF-RHF iter  10:  -286.02465897856212   -2.16893e-02   5.40190e-04 DIIS
   @DF-RHF iter  11:  -286.02777780715508   -3.11883e-03   1.78791e-04 DIIS
   @DF-RHF iter  12:  -286.02814504342211   -3.67236e-04   8.12201e-05 DIIS
   @DF-RHF iter  13:  -286.02824477731963   -9.97339e-05   4.74188e-05 DIIS
   @DF-RHF iter  14:  -286.02827145802610   -2.66807e-05   9.88414e-06 DIIS
   @DF-RHF iter  15:  -286.02827327322575   -1.81520e-06   3.25087e-06 DIIS
   @DF-RHF iter  16:  -286.02827340748911   -1.34263e-07   7.47663e-07 DIIS

  ==> Post-Iterations <==

    Orbital Energies (a.u.)
    -----------------------

    Doubly Occupied:                                                      

       1A    -20.513786     2A    -15.583275     3A    -11.340800  
       4A    -11.266801     5A    -11.247633     6A    -11.227907  
       7A     -1.383572     8A     -1.243489     9A     -1.013855  
      10A     -0.972513    11A     -0.919591    12A     -0.737482  
      13A     -0.680483    14A     -0.658566    15A     -0.650719  
      16A     -0.588806    17A     -0.575024    18A     -0.569823  
      19A     -0.564137    20A     -0.546779    21A     -0.529528  
      22A     -0.500551    23A     -0.409310    24A     -0.365966  

    Virtual:                                                              

      25A      0.207569    26A      0.223684    27A      0.267586  
      28A      0.284720    29A      0.296473    30A      0.310741  
      31A      0.311676    32A      0.319748    33A      0.334302  
      34A      0.353751    35A      0.380671    36A      0.389198  
      37A      0.443799    38A      0.507121    39A      0.588109  
      40A      0.697867    41A      0.712258    42A      0.745235  
      43A      0.768177    44A      0.782604    45A      0.810213  
      46A      0.865090    47A      0.892176    48A      0.920763  
      49A      0.948216    50A      0.961369    51A      0.999188  
      52A      1.054440    53A      1.098721    54A      1.120346  
      55A      1.126459    56A      1.146045    57A      1.156978  
      58A      1.158657    59A      1.183173    60A      1.198450  
      61A      1.225422    62A      1.235854    63A      1.251846  
      64A      1.285048    65A      1.307006    66A      1.363619  
      67A      1.409805    68A      1.531278    69A      1.573897  
      70A      1.624883    71A      1.655468    72A      1.703799  
      73A      1.759459    74A      1.815477    75A      1.940903  
      76A      2.050051    77A      2.094016    78A      2.096932  
      79A      2.181893    80A      2.203306    81A      2.233939  
      82A      2.293033    83A      2.322676    84A      2.325452  
      85A      2.377949    86A      2.428226    87A      2.436713  
      88A      2.510391    89A      2.580512    90A      2.608125  
      91A      2.640029    92A      2.650180    93A      2.704475  
      94A      2.740385    95A      2.855872    96A      2.915468  
      97A      2.971006    98A      3.038847    99A      3.059166  
     100A      3.327186   101A      3.394857   102A      3.587715  
     103A      4.440047   104A      4.452688   105A      4.602427  
     106A      4.706674   107A      4.773508   108A      4.940870  

    Final Occupation by Irrep:
              A 
    DOCC [    24 ]

  Energy converged.

  @DF-RHF Final Energy:  -286.02827340748911

   => Energetics <=

    Nuclear Repulsion Energy =            252.3958264510832521
    One-Electron Energy =                -888.6671150180532095
    Two-Electron Energy =                 350.2430151594810468
    DFT Exchange-Correlation Energy =       0.0000000000000000
    Empirical Dispersion Energy =           0.0000000000000000
    PCM Polarization Energy =               0.0000000000000000
    EFP Energy =                            0.0000000000000000
    Total Energy =                       -286.0282734074888822

    Alert: EFP and PCM quantities not currently incorporated into SCF psivars.

Properties will be evaluated at   0.000000,   0.000000,   0.000000 Bohr
  ==> Properties <==


Properties computed using the SCF density matrix

  Nuclear Dipole Moment: (a.u.)
     X:    -5.0031      Y:    -3.1199      Z:     1.3749

  Electronic Dipole Moment: (a.u.)
     X:     3.6535      Y:     2.4174      Z:    -1.0327

  Dipole Moment: (a.u.)
     X:    -1.3495      Y:    -0.7025      Z:     0.3422     Total:     1.5594

  Dipole Moment: (Debye)
     X:    -3.4301      Y:    -1.7856      Z:     0.8698     Total:     3.9637


  Saving occupied orbitals to File 180.

*** tstop() called on cx1-3-2-1.cx1.hpc.ic.ac.uk at Tue Jul  5 16:29:17 2016
Module time:
	user time   =       6.66 seconds =       0.11 minutes
	system time =       0.04 seconds =       0.00 minutes
	total time  =          7 seconds =       0.12 minutes
Total time:
	user time   =       6.66 seconds =       0.11 minutes
	system time =       0.04 seconds =       0.00 minutes
	total time  =          7 seconds =       0.12 minutes


Properties will be evaluated at   0.000000,   0.000000,   0.000000 Bohr

Properties computed using the  density matrix

  Nuclear Dipole Moment: (a.u.)
     X:    -5.0031      Y:    -3.1199      Z:     1.3749

  Electronic Dipole Moment: (a.u.)
     X:     3.6535      Y:     2.4174      Z:    -1.0327

  Dipole Moment: (a.u.)
     X:    -1.3495      Y:    -0.7025      Z:     0.3422     Total:     1.5594

  Dipole Moment: (Debye)
     X:    -3.4301      Y:    -1.7856      Z:     0.8698     Total:     3.9637

  Quadrupole Moment: (Debye Ang)
    XX:   -39.5332     YY:   -35.6267     ZZ:   -37.8048
    XY:    -3.7767     XZ:     1.5541     YZ:     0.2276

  Traceless Quadrupole Moment: (Debye Ang)
    XX:    -1.8783     YY:     2.0282     ZZ:    -0.1500
    XY:    -3.7767     XZ:     1.5541     YZ:     0.2276

  Mulliken Charges: (a.u.)
   Center  Symbol    Alpha    Beta     Spin     Total
       1     O     4.30421  4.30421  0.00000 -0.60843
       2     C     2.62459  2.62459  0.00000  0.75082
       3     C     3.29865  3.29865  0.00000 -0.59730
       4     N     3.82246  3.82246  0.00000 -0.64493
       5     H     0.40656  0.40656  0.00000  0.18689
       6     H     0.39055  0.39055  0.00000  0.21891
       7     H     0.40814  0.40814  0.00000  0.18373
       8     C     3.14472  3.14472  0.00000 -0.28945
       9     C     3.14383  3.14383  0.00000 -0.28766
      10     H     0.38985  0.38985  0.00000  0.22030
      11     H     0.41915  0.41915  0.00000  0.16171
      12     H     0.41419  0.41419  0.00000  0.17162
      13     H     0.40913  0.40913  0.00000  0.18173
      14     H     0.40763  0.40763  0.00000  0.18475
      15     H     0.41634  0.41634  0.00000  0.16733

   Total alpha = 24.00000, Total beta = 24.00000, Total charge =  0.00000


*** PSI4 exiting successfully. Buy a developer a beer!
