    -----------------------------------------------------------------------
          Psi4: An Open-Source Ab Initio Electronic Structure Package
                              Psi4 (no tag) Driver

                          Git: Rev {detached?}  

    J. M. Turney, A. C. Simmonett, R. M. Parrish, E. G. Hohenstein,
    F. A. Evangelista, J. T. Fermann, B. J. Mintz, L. A. Burns, J. J. Wilke,
    M. L. Abrams, N. J. Russ, M. L. Leininger, C. L. Janssen, E. T. Seidl,
    W. D. Allen, H. F. Schaefer, R. A. King, E. F. Valeev, C. D. Sherrill,
    and T. D. Crawford, WIREs Comput. Mol. Sci. 2, 556-565 (2012)
    (doi: 10.1002/wcms.93)

                         Additional Contributions by
    A. E. DePrince, M. Saitow, U. Bozkaya, A. Yu. Sokolov
    -----------------------------------------------------------------------


    Psi4 started on: Tue Jul  5 16:35:44 2016

    Process ID:  18365
    PSI4DATADIR: /export131/home/mjharvey/miniconda3/share
    Memory level set to 256.000 MB

  ==> Input File <==

--------------------------------------------------------------------------
set {
	reference rhf
	basis 6-31G*
}


set_num_threads( 1 )
memory 2 gb

molecule MOL {
0 1

H	 -2.098997	 -0.674324	 -0.616650
O	 -2.035884	 -0.060112	 0.102722
C	 -0.955155	 0.788182	 -0.092531
C	 0.353668	 0.040312	 -0.004810
H	 -0.985057	 1.290372	 -1.054184
H	 -0.974469	 1.533190	 0.688632
F	 0.175635	 -1.247228	 -0.278883
F	 1.221104	 0.521222	 -0.880870
F	 0.900190	 0.118278	 1.191344

	symmetry c1
}
set optking {
	frozen_dihedral = ("
		1 2 3 5
	")
}

ee = energy('scf')
oeprop('DIPOLE', 'QUADRUPOLE', 'MULLIKEN_CHARGES')
f=open( 'psi4out.xyz', 'w' )
f.write( "9  " )
f.write( str(ee) + "\n" )
f.write( MOL.save_string_xyz() )
f.close()
--------------------------------------------------------------------------

  Memory set to   2.000 GiB by Python script.

*** tstart() called on cx1-3-2-1.cx1.hpc.ic.ac.uk
*** at Tue Jul  5 16:35:45 2016


         ---------------------------------------------------------
                                   SCF
            by Justin Turney, Rob Parrish, and Andy Simmonett
                              RHF Reference
                        1 Threads,   2000 MiB Core
         ---------------------------------------------------------

  ==> Geometry <==

    Molecular point group: c1
    Full point group: C1

    Geometry (in Angstrom), charge = 0, multiplicity = 1:

       Center              X                  Y                   Z               Mass       
    ------------   -----------------  -----------------  -----------------  -----------------
           H         -2.096657993000    -0.670330902578    -0.617502168247     1.007825032070
           O         -2.033544993000    -0.056118902578     0.101869831753    15.994914619560
           C         -0.952815993000     0.792175097422    -0.093383168247    12.000000000000
           C          0.356007007000     0.044305097422    -0.005662168247    12.000000000000
           H         -0.982717993000     1.294365097422    -1.055036168247     1.007825032070
           H         -0.972129993000     1.537183097422     0.687779831753     1.007825032070
           F          0.177974007000    -1.243234902578    -0.279735168247    18.998403224000
           F          1.223443007000     0.525215097422    -0.881722168247    18.998403224000
           F          0.902529007000     0.122271097422     1.190491831753    18.998403224000

  Running in c1 symmetry.

  Rotational constants: A =      0.18247  B =      0.09641  C =      0.09550 [cm^-1]
  Rotational constants: A =   5470.24288  B =   2890.25972  C =   2862.98765 [MHz]
  Nuclear repulsion =  277.432278583611151

  Charge       = 0
  Multiplicity = 1
  Electrons    = 50
  Nalpha       = 25
  Nbeta        = 25

  ==> Algorithm <==

  SCF Algorithm Type is DF.
  DIIS enabled.
  MOM disabled.
  Fractional occupation disabled.
  Guess Type is CORE.
  Energy threshold   = 1.00e-06
  Density threshold  = 1.00e-06
  Integral threshold = 0.00e+00

  ==> Primary Basis <==

  Basis Set: 6-31G*
    Number of shells: 42
    Number of basis function: 96
    Number of Cartesian functions: 96
    Spherical Harmonics?: false
    Max angular momentum: 2

  ==> Pre-Iterations <==

   -------------------------------------------------------
    Irrep   Nso     Nmo     Nalpha   Nbeta   Ndocc  Nsocc
   -------------------------------------------------------
     A         96      96       0       0       0       0
   -------------------------------------------------------
    Total      96      96      25      25      25       0
   -------------------------------------------------------

 OEINTS: Overlap, kinetic, potential, dipole, and quadrupole integrals
         stored in file 35.

  ==> Integral Setup <==

  ==> DFJK: Density-Fitted J/K Matrices <==

    J tasked:                  Yes
    K tasked:                  Yes
    wK tasked:                  No
    OpenMP threads:              1
    Integrals threads:           1
    Memory (MB):              1430
    Algorithm:                Core
    Integral Cache:           NONE
    Schwarz Cutoff:          1E-12
    Fitting Condition:       1E-12

   => Auxiliary Basis Set <=

  Basis Set: 
    Number of shells: 171
    Number of basis function: 561
    Number of Cartesian functions: 561
    Spherical Harmonics?: false
    Max angular momentum: 3

  Minimum eigenvalue in the overlap matrix is 1.7697117610E-03.
  Using Symmetric Orthogonalization.
  SCF Guess: Core (One-Electron) Hamiltonian.

  ==> Iterations <==

                           Total Energy        Delta E     RMS |[F,P]|

   @DF-RHF iter   1:  -399.94091366492091   -3.99941e+02   9.01600e-02 
   @DF-RHF iter   2:  -273.52593648182733    1.26415e+02   9.69204e-02 DIIS
   @DF-RHF iter   3:  -397.07579777067167   -1.23550e+02   6.50101e-02 DIIS
   @DF-RHF iter   4:  -449.23493751680599   -5.21591e+01   1.92369e-02 DIIS
   @DF-RHF iter   5:  -450.44320365946385   -1.20827e+00   7.76608e-03 DIIS
   @DF-RHF iter   6:  -450.58090200207175   -1.37698e-01   4.09739e-03 DIIS
   @DF-RHF iter   7:  -450.64851210718132   -6.76101e-02   1.24146e-03 DIIS
   @DF-RHF iter   8:  -450.65703533336637   -8.52323e-03   2.76967e-04 DIIS
   @DF-RHF iter   9:  -450.65756946732472   -5.34134e-04   1.05429e-04 DIIS
   @DF-RHF iter  10:  -450.65762047703936   -5.10097e-05   3.71593e-05 DIIS
   @DF-RHF iter  11:  -450.65763083644936   -1.03594e-05   7.08806e-06 DIIS
   @DF-RHF iter  12:  -450.65763130499874   -4.68549e-07   2.06646e-06 DIIS
   @DF-RHF iter  13:  -450.65763132964946   -2.46507e-08   5.70435e-07 DIIS

  ==> Post-Iterations <==

    Orbital Energies (a.u.)
    -----------------------

    Doubly Occupied:                                                      

       1A    -26.342853     2A    -26.341514     3A    -26.340983  
       4A    -20.587534     5A    -11.500105     6A    -11.307696  
       7A     -1.740349     8A     -1.638995     9A     -1.637151  
      10A     -1.400198    11A     -1.048014    12A     -0.922820  
      13A     -0.830842    14A     -0.828427    15A     -0.807126  
      16A     -0.724344    17A     -0.711793    18A     -0.700088  
      19A     -0.663813    20A     -0.660303    21A     -0.642603  
      22A     -0.626842    23A     -0.609995    24A     -0.528260  
      25A     -0.479704  

    Virtual:                                                              

      26A      0.213901    27A      0.268840    28A      0.282048  
      29A      0.327110    30A      0.422343    31A      0.436754  
      32A      0.477891    33A      0.502551    34A      0.695072  
      35A      0.741476    36A      0.755827    37A      0.774115  
      38A      0.814661    39A      0.895873    40A      0.937389  
      41A      1.051595    42A      1.127132    43A      1.142101  
      44A      1.187707    45A      1.212625    46A      1.319882  
      47A      1.336991    48A      1.349692    49A      1.372277  
      50A      1.433397    51A      1.482815    52A      1.591579  
      53A      1.615264    54A      1.628822    55A      1.634758  
      56A      1.669948    57A      1.671236    58A      1.698761  
      59A      1.731247    60A      1.897093    61A      1.920412  
      62A      1.968600    63A      2.012930    64A      2.020042  
      65A      2.117936    66A      2.130478    67A      2.144468  
      68A      2.163955    69A      2.252141    70A      2.284326  
      71A      2.299903    72A      2.356840    73A      2.378421  
      74A      2.402470    75A      2.403290    76A      2.415404  
      77A      2.464696    78A      2.576623    79A      2.663366  
      80A      2.677279    81A      2.798148    82A      2.891446  
      83A      2.921770    84A      3.101823    85A      3.139457  
      86A      3.175141    87A      3.237225    88A      3.421087  
      89A      3.427301    90A      3.432724    91A      4.130083  
      92A      4.589643    93A      4.818929    94A      4.916433  
      95A      5.007227    96A      5.806204  

    Final Occupation by Irrep:
              A 
    DOCC [    25 ]

  Energy converged.

  @DF-RHF Final Energy:  -450.65763132964946

   => Energetics <=

    Nuclear Repulsion Energy =            277.4322785836111507
    One-Electron Energy =               -1176.9350622836641378
    Two-Electron Energy =                 448.8451523704028432
    DFT Exchange-Correlation Energy =       0.0000000000000000
    Empirical Dispersion Energy =           0.0000000000000000
    PCM Polarization Energy =               0.0000000000000000
    EFP Energy =                            0.0000000000000000
    Total Energy =                       -450.6576313296501439

    Alert: EFP and PCM quantities not currently incorporated into SCF psivars.

Properties will be evaluated at   0.000000,   0.000000,   0.000000 Bohr
  ==> Properties <==


Properties computed using the SCF density matrix

  Nuclear Dipole Moment: (a.u.)
     X:    -5.9814      Y:     2.5878      Z:    -0.9501

  Electronic Dipole Moment: (a.u.)
     X:     5.6821      Y:    -2.2412      Z:     0.3686

  Dipole Moment: (a.u.)
     X:    -0.2993      Y:     0.3466      Z:    -0.5815     Total:     0.7401

  Dipole Moment: (Debye)
     X:    -0.7606      Y:     0.8810      Z:    -1.4780     Total:     1.8812


  Saving occupied orbitals to File 180.

*** tstop() called on cx1-3-2-1.cx1.hpc.ic.ac.uk at Tue Jul  5 16:35:49 2016
Module time:
	user time   =       4.08 seconds =       0.07 minutes
	system time =       0.05 seconds =       0.00 minutes
	total time  =          4 seconds =       0.07 minutes
Total time:
	user time   =       4.08 seconds =       0.07 minutes
	system time =       0.05 seconds =       0.00 minutes
	total time  =          4 seconds =       0.07 minutes


Properties will be evaluated at   0.000000,   0.000000,   0.000000 Bohr

Properties computed using the  density matrix

  Nuclear Dipole Moment: (a.u.)
     X:    -5.9814      Y:     2.5878      Z:    -0.9501

  Electronic Dipole Moment: (a.u.)
     X:     5.6821      Y:    -2.2412      Z:     0.3686

  Dipole Moment: (a.u.)
     X:    -0.2993      Y:     0.3466      Z:    -0.5815     Total:     0.7401

  Dipole Moment: (Debye)
     X:    -0.7606      Y:     0.8810      Z:    -1.4780     Total:     1.8812

  Quadrupole Moment: (Debye Ang)
    XX:   -35.7108     YY:   -30.6464     ZZ:   -32.1201
    XY:     0.3846     XZ:     3.4018     YZ:     1.1732

  Traceless Quadrupole Moment: (Debye Ang)
    XX:    -2.8850     YY:     2.1793     ZZ:     0.7057
    XY:     0.3846     XZ:     3.4018     YZ:     1.1732

  Mulliken Charges: (a.u.)
   Center  Symbol    Alpha    Beta     Spin     Total
       1     H     0.27267  0.27267  0.00000  0.45467
       2     O     4.35981  4.35981  0.00000 -0.71961
       3     C     3.07208  3.07208  0.00000 -0.14415
       4     C     2.44936  2.44936  0.00000  1.10128
       5     H     0.40684  0.40684  0.00000  0.18632
       6     H     0.39233  0.39233  0.00000  0.21535
       7     F     4.68573  4.68573  0.00000 -0.37147
       8     F     4.68373  4.68373  0.00000 -0.36746
       9     F     4.67746  4.67746  0.00000 -0.35492

   Total alpha = 25.00000, Total beta = 25.00000, Total charge = -0.00000


*** PSI4 exiting successfully. Buy a developer a beer!
