    -----------------------------------------------------------------------
          Psi4: An Open-Source Ab Initio Electronic Structure Package
                              Psi4 (no tag) Driver

                          Git: Rev {detached?}  

    J. M. Turney, A. C. Simmonett, R. M. Parrish, E. G. Hohenstein,
    F. A. Evangelista, J. T. Fermann, B. J. Mintz, L. A. Burns, J. J. Wilke,
    M. L. Abrams, N. J. Russ, M. L. Leininger, C. L. Janssen, E. T. Seidl,
    W. D. Allen, H. F. Schaefer, R. A. King, E. F. Valeev, C. D. Sherrill,
    and T. D. Crawford, WIREs Comput. Mol. Sci. 2, 556-565 (2012)
    (doi: 10.1002/wcms.93)

                         Additional Contributions by
    A. E. DePrince, M. Saitow, U. Bozkaya, A. Yu. Sokolov
    -----------------------------------------------------------------------


    Psi4 started on: Tue Jul  5 16:51:23 2016

    Process ID:   3950
    PSI4DATADIR: /export131/home/mjharvey/miniconda3/share
    Memory level set to 256.000 MB

  ==> Input File <==

--------------------------------------------------------------------------
set {
	reference rhf
	basis 6-31G*
}


set_num_threads( 1 )
memory 2 gb

molecule MOL {
0 1

O	 -0.488453	 0.057968	 1.132425
C	 -0.451170	 -1.129930	 1.097049
C	 0.801727	 -1.959116	 0.945507
O	 -1.528589	 -1.897310	 1.185968
C	 1.124911	 -2.785238	 2.184071
H	 1.613075	 -1.280220	 0.700432
H	 0.669725	 -2.590969	 0.072237
H	 1.272053	 -2.149836	 3.048928
H	 2.030738	 -3.360307	 2.024106
H	 0.320287	 -3.472711	 2.414906
C	 -1.426408	 -3.233158	 0.703817
C	 -1.288675	 -3.162735	 -0.802297
H	 -2.309573	 -3.783046	 0.999161
H	 -0.569933	 -3.708814	 1.161848
H	 -2.151686	 -2.678933	 -1.245361
H	 -1.207595	 -4.163908	 -1.213061
H	 -0.402507	 -2.604357	 -1.081898

	symmetry c1
}
set optking {
	frozen_dihedral = ("
		2 4 11 13,
		4 2 3 6
	")
}

ee = energy('scf')
oeprop('DIPOLE', 'QUADRUPOLE', 'MULLIKEN_CHARGES')
f=open( 'psi4out.xyz', 'w' )
f.write( "17  " )
f.write( str(ee) + "\n" )
f.write( MOL.save_string_xyz() )
f.close()
--------------------------------------------------------------------------

  Memory set to   2.000 GiB by Python script.

*** tstart() called on cx1-3-16-4.cx1.hpc.ic.ac.uk
*** at Tue Jul  5 16:51:23 2016


         ---------------------------------------------------------
                                   SCF
            by Justin Turney, Rob Parrish, and Andy Simmonett
                              RHF Reference
                        1 Threads,   2000 MiB Core
         ---------------------------------------------------------

  ==> Geometry <==

    Molecular point group: c1
    Full point group: C1

    Geometry (in Angstrom), charge = 0, multiplicity = 1:

       Center              X                  Y                   Z               Mass       
    ------------   -----------------  -----------------  -----------------  -----------------
           O         -0.019364471693     2.082974016654     0.215826913012    15.994914619560
           C          0.017918528307     0.895076016654     0.180450913012    12.000000000000
           C          1.270815528307     0.065890016654     0.028908913012    12.000000000000
           O         -1.059500471693     0.127696016654     0.269369913012    15.994914619560
           C          1.593999528307    -0.760231983346     1.267472913012    12.000000000000
           H          2.082163528307     0.744786016654    -0.216166086988     1.007825032070
           H          1.138813528307    -0.565962983346    -0.844361086988     1.007825032070
           H          1.741141528307    -0.124829983346     2.132329913012     1.007825032070
           H          2.499826528307    -1.335300983346     1.107507913012     1.007825032070
           H          0.789375528307    -1.447704983346     1.498307913012     1.007825032070
           C         -0.957319471693    -1.208151983346    -0.212781086988    12.000000000000
           C         -0.819586471693    -1.137728983346    -1.718895086988    12.000000000000
           H         -1.840484471693    -1.758039983346     0.082562913012     1.007825032070
           H         -0.100844471693    -1.683807983346     0.245249913012     1.007825032070
           H         -1.682597471693    -0.653926983346    -2.161959086988     1.007825032070
           H         -0.738506471693    -2.138901983346    -2.129659086988     1.007825032070
           H          0.066581528307    -0.579350983346    -1.998496086988     1.007825032070

  Running in c1 symmetry.

  Rotational constants: A =      0.10790  B =      0.08121  C =      0.05905 [cm^-1]
  Rotational constants: A =   3234.72453  B =   2434.67551  C =   1770.17123 [MHz]
  Nuclear repulsion =  331.693507083706891

  Charge       = 0
  Multiplicity = 1
  Electrons    = 56
  Nalpha       = 28
  Nbeta        = 28

  ==> Algorithm <==

  SCF Algorithm Type is DF.
  DIIS enabled.
  MOM disabled.
  Fractional occupation disabled.
  Guess Type is CORE.
  Energy threshold   = 1.00e-06
  Density threshold  = 1.00e-06
  Integral threshold = 0.00e+00

  ==> Primary Basis <==

  Basis Set: 6-31G*
    Number of shells: 62
    Number of basis function: 125
    Number of Cartesian functions: 125
    Spherical Harmonics?: false
    Max angular momentum: 2

  ==> Pre-Iterations <==

   -------------------------------------------------------
    Irrep   Nso     Nmo     Nalpha   Nbeta   Ndocc  Nsocc
   -------------------------------------------------------
     A        125     125       0       0       0       0
   -------------------------------------------------------
    Total     125     125      28      28      28       0
   -------------------------------------------------------

 OEINTS: Overlap, kinetic, potential, dipole, and quadrupole integrals
         stored in file 35.

  ==> Integral Setup <==

  ==> DFJK: Density-Fitted J/K Matrices <==

    J tasked:                  Yes
    K tasked:                  Yes
    wK tasked:                  No
    OpenMP threads:              1
    Integrals threads:           1
    Memory (MB):              1430
    Algorithm:                Core
    Integral Cache:           NONE
    Schwarz Cutoff:          1E-12
    Fitting Condition:       1E-12

   => Auxiliary Basis Set <=

  Basis Set: 
    Number of shells: 258
    Number of basis function: 817
    Number of Cartesian functions: 817
    Spherical Harmonics?: false
    Max angular momentum: 3

  Minimum eigenvalue in the overlap matrix is 2.9622597564E-03.
  Using Symmetric Orthogonalization.
  SCF Guess: Core (One-Electron) Hamiltonian.

  ==> Iterations <==

                           Total Energy        Delta E     RMS |[F,P]|

   @DF-RHF iter   1:  -259.26644090605373   -2.59266e+02   7.79004e-02 
   @DF-RHF iter   2:  -224.97947038837196    3.42870e+01   6.31339e-02 DIIS
   @DF-RHF iter   3:  -299.56937777821963   -7.45899e+01   5.28473e-02 DIIS
   @DF-RHF iter   4:  -343.10922992936480   -4.35399e+01   1.41461e-02 DIIS
   @DF-RHF iter   5:  -344.53535622078539   -1.42613e+00   6.69146e-03 DIIS
   @DF-RHF iter   6:  -344.84162276892073   -3.06267e-01   1.37134e-03 DIIS
   @DF-RHF iter   7:  -344.85606464000409   -1.44419e-02   6.41418e-04 DIIS
   @DF-RHF iter   8:  -344.85902548129695   -2.96084e-03   1.43592e-04 DIIS
   @DF-RHF iter   9:  -344.85927411883961   -2.48638e-04   4.50179e-05 DIIS
   @DF-RHF iter  10:  -344.85930749085992   -3.33720e-05   1.95753e-05 DIIS
   @DF-RHF iter  11:  -344.85931372906327   -6.23820e-06   8.50224e-06 DIIS
   @DF-RHF iter  12:  -344.85931534009217   -1.61103e-06   3.34163e-06 DIIS
   @DF-RHF iter  13:  -344.85931559531150   -2.55219e-07   9.23475e-07 DIIS

  ==> Post-Iterations <==

    Orbital Energies (a.u.)
    -----------------------

    Doubly Occupied:                                                      

       1A    -20.601834     2A    -20.543140     3A    -11.373003  
       4A    -11.297796     5A    -11.238793     6A    -11.235631  
       7A    -11.231974     8A     -1.466324     9A     -1.367272  
      10A     -1.076066    11A     -1.051265    12A     -0.925212  
      13A     -0.882436    14A     -0.778212    15A     -0.711390  
      16A     -0.692058    17A     -0.670676    18A     -0.636285  
      19A     -0.597626    20A     -0.575011    21A     -0.572345  
      22A     -0.561759    23A     -0.544088    24A     -0.529660  
      25A     -0.507006    26A     -0.485371    27A     -0.445162  
      28A     -0.426268  

    Virtual:                                                              

      29A      0.183521    30A      0.237034    31A      0.254793  
      32A      0.266029    33A      0.277282    34A      0.293273  
      35A      0.299690    36A      0.316066    37A      0.326906  
      38A      0.346631    39A      0.358591    40A      0.390101  
      41A      0.395198    42A      0.428346    43A      0.450085  
      44A      0.500497    45A      0.597044    46A      0.707548  
      47A      0.721410    48A      0.729398    49A      0.733308  
      50A      0.781332    51A      0.802945    52A      0.815688  
      53A      0.845333    54A      0.902118    55A      0.903303  
      56A      0.932437    57A      0.952907    58A      0.978660  
      59A      0.997830    60A      1.054223    61A      1.099645  
      62A      1.125870    63A      1.129166    64A      1.146178  
      65A      1.161899    66A      1.166619    67A      1.184727  
      68A      1.223066    69A      1.229106    70A      1.247607  
      71A      1.258948    72A      1.272721    73A      1.327050  
      74A      1.352443    75A      1.360643    76A      1.399594  
      77A      1.441193    78A      1.464900    79A      1.583783  
      80A      1.616652    81A      1.680419    82A      1.713448  
      83A      1.759668    84A      1.832828    85A      1.884348  
      86A      1.931815    87A      1.974176    88A      2.055574  
      89A      2.082745    90A      2.100882    91A      2.149875  
      92A      2.160953    93A      2.200917    94A      2.242025  
      95A      2.269939    96A      2.275532    97A      2.320584  
      98A      2.376666    99A      2.403099   100A      2.422862  
     101A      2.486513   102A      2.561137   103A      2.595433  
     104A      2.623846   105A      2.639624   106A      2.659509  
     107A      2.691847   108A      2.739619   109A      2.819167  
     110A      2.857370   111A      2.939040   112A      2.986964  
     113A      3.065745   114A      3.119358   115A      3.179753  
     116A      3.287600   117A      3.424470   118A      3.567933  
     119A      4.416335   120A      4.570452   121A      4.647350  
     122A      4.693228   123A      4.842170   124A      4.891778  
     125A      5.013779  

    Final Occupation by Irrep:
              A 
    DOCC [    28 ]

  Energy converged.

  @DF-RHF Final Energy:  -344.85931559531150

   => Energetics <=

    Nuclear Repulsion Energy =            331.6935070837068906
    One-Electron Energy =               -1127.0583386973123652
    Two-Electron Energy =                 450.5055160182938607
    DFT Exchange-Correlation Energy =       0.0000000000000000
    Empirical Dispersion Energy =           0.0000000000000000
    PCM Polarization Energy =               0.0000000000000000
    EFP Energy =                            0.0000000000000000
    Total Energy =                       -344.8593155953116138

    Alert: EFP and PCM quantities not currently incorporated into SCF psivars.

Properties will be evaluated at   0.000000,   0.000000,   0.000000 Bohr
  ==> Properties <==


Properties computed using the SCF density matrix

  Nuclear Dipole Moment: (a.u.)
     X:     3.7029      Y:    -8.9357      Z:    -2.1395

  Electronic Dipole Moment: (a.u.)
     X:    -3.2041      Y:     7.0973      Z:     1.8036

  Dipole Moment: (a.u.)
     X:     0.4988      Y:    -1.8384      Z:    -0.3359     Total:     1.9342

  Dipole Moment: (Debye)
     X:     1.2678      Y:    -4.6727      Z:    -0.8537     Total:     4.9163


  Saving occupied orbitals to File 180.

*** tstop() called on cx1-3-16-4.cx1.hpc.ic.ac.uk at Tue Jul  5 16:51:34 2016
Module time:
	user time   =      10.37 seconds =       0.17 minutes
	system time =       0.09 seconds =       0.00 minutes
	total time  =         11 seconds =       0.18 minutes
Total time:
	user time   =      10.37 seconds =       0.17 minutes
	system time =       0.09 seconds =       0.00 minutes
	total time  =         11 seconds =       0.18 minutes


Properties will be evaluated at   0.000000,   0.000000,   0.000000 Bohr

Properties computed using the  density matrix

  Nuclear Dipole Moment: (a.u.)
     X:     3.7029      Y:    -8.9357      Z:    -2.1395

  Electronic Dipole Moment: (a.u.)
     X:    -3.2041      Y:     7.0973      Z:     1.8036

  Dipole Moment: (a.u.)
     X:     0.4988      Y:    -1.8384      Z:    -0.3359     Total:     1.9342

  Dipole Moment: (Debye)
     X:     1.2678      Y:    -4.6727      Z:    -0.8537     Total:     4.9163

  Quadrupole Moment: (Debye Ang)
    XX:   -42.7951     YY:   -49.6240     ZZ:   -42.3287
    XY:     2.2555     XZ:     1.3204     YZ:    -0.5369

  Traceless Quadrupole Moment: (Debye Ang)
    XX:     2.1208     YY:    -4.7081     ZZ:     2.5872
    XY:     2.2555     XZ:     1.3204     YZ:    -0.5369

  Mulliken Charges: (a.u.)
   Center  Symbol    Alpha    Beta     Spin     Total
       1     O     4.27163  4.27163  0.00000 -0.54326
       2     C     2.60082  2.60082  0.00000  0.79836
       3     C     3.24012  3.24012  0.00000 -0.48025
       4     O     4.30173  4.30173  0.00000 -0.60345
       5     C     3.24973  3.24973  0.00000 -0.49946
       6     H     0.39109  0.39109  0.00000  0.21782
       7     H     0.40583  0.40583  0.00000  0.18835
       8     H     0.40375  0.40375  0.00000  0.19250
       9     H     0.40873  0.40873  0.00000  0.18255
      10     H     0.41022  0.41022  0.00000  0.17956
      11     C     3.01990  3.01990  0.00000 -0.03981
      12     C     3.25769  3.25769  0.00000 -0.51539
      13     H     0.39664  0.39664  0.00000  0.20672
      14     H     0.41556  0.41556  0.00000  0.16889
      15     H     0.40149  0.40149  0.00000  0.19701
      16     H     0.41523  0.41523  0.00000  0.16955
      17     H     0.40985  0.40985  0.00000  0.18031

   Total alpha = 28.00000, Total beta = 28.00000, Total charge = -0.00000


*** PSI4 exiting successfully. Buy a developer a beer!
