    -----------------------------------------------------------------------
          Psi4: An Open-Source Ab Initio Electronic Structure Package
                              Psi4 (no tag) Driver

                          Git: Rev {detached?}  

    J. M. Turney, A. C. Simmonett, R. M. Parrish, E. G. Hohenstein,
    F. A. Evangelista, J. T. Fermann, B. J. Mintz, L. A. Burns, J. J. Wilke,
    M. L. Abrams, N. J. Russ, M. L. Leininger, C. L. Janssen, E. T. Seidl,
    W. D. Allen, H. F. Schaefer, R. A. King, E. F. Valeev, C. D. Sherrill,
    and T. D. Crawford, WIREs Comput. Mol. Sci. 2, 556-565 (2012)
    (doi: 10.1002/wcms.93)

                         Additional Contributions by
    A. E. DePrince, M. Saitow, U. Bozkaya, A. Yu. Sokolov
    -----------------------------------------------------------------------


    Psi4 started on: Tue Jul  5 18:13:30 2016

    Process ID:   5930
    PSI4DATADIR: /export131/home/mjharvey/miniconda3/share
    Memory level set to 256.000 MB

  ==> Input File <==

--------------------------------------------------------------------------
set {
	reference rhf
	basis 6-31G*
}


set_num_threads( 1 )
memory 2 gb

molecule MOL {
0 1

H	 -2.628111	 0.138850	 1.425356
O	 -1.861339	 -0.190889	 0.979930
C	 -2.118183	 -1.481388	 0.487285
C	 -3.052471	 -1.489938	 -0.717606
H	 -1.154576	 -1.886010	 0.205476
H	 -2.517727	 -2.117832	 1.276007
C	 -2.681334	 -0.473466	 -1.800154
H	 -3.057862	 -2.490259	 -1.142690
H	 -4.062775	 -1.289740	 -0.364657
C	 -2.887989	 0.974664	 -1.347350
H	 -3.276981	 -0.664360	 -2.688484
H	 -1.638578	 -0.613036	 -2.085672
C	 -2.326781	 1.301407	 0.041399
H	 -2.445571	 1.645826	 -2.081281
H	 -3.954832	 1.188075	 -1.346429
C	 -3.034785	 0.600176	 1.203932
H	 -1.274701	 1.024554	 0.058597
H	 -2.357773	 2.378719	 0.197206
C	 -4.465221	 1.099239	 1.418936
H	 -2.461395	 0.751696	 2.117374
H	 -3.059400	 -0.473556	 1.034238
C	 -5.411106	 0.710962	 0.283063
H	 -4.847259	 0.703375	 2.357459
H	 -4.456195	 2.181939	 1.526468
H	 -5.467273	 -0.368187	 0.171231
H	 -6.416738	 1.077069	 0.465559
H	 -5.076338	 1.123259	 -0.664726

	symmetry c1
}
set optking {
	frozen_dihedral = ("
		14 10 7 4,
		14 10 13 16,
		10 7 4 8,
		8 4 3 2,
		10 13 16 20,
		4 3 2 1
	")
}

ee = energy('scf')
oeprop('DIPOLE', 'QUADRUPOLE', 'MULLIKEN_CHARGES')
f=open( 'psi4out.xyz', 'w' )
f.write( "27  " )
f.write( str(ee) + "\n" )
f.write( MOL.save_string_xyz() )
f.close()
--------------------------------------------------------------------------

  Memory set to   2.000 GiB by Python script.

*** tstart() called on cx1-3-4-2.cx1.hpc.ic.ac.uk
*** at Tue Jul  5 18:13:30 2016


         ---------------------------------------------------------
                                   SCF
            by Justin Turney, Rob Parrish, and Andy Simmonett
                              RHF Reference
                        1 Threads,   2000 MiB Core
         ---------------------------------------------------------

  ==> Geometry <==

    Molecular point group: c1
    Full point group: C1

    Geometry (in Angstrom), charge = 0, multiplicity = 1:

       Center              X                  Y                   Z               Mass       
    ------------   -----------------  -----------------  -----------------  -----------------
           H          0.461978726057     0.029924682390     1.341039469055     1.007825032070
           O          1.228750726057    -0.299814317610     0.895613469055    15.994914619560
           C          0.971906726057    -1.590313317610     0.402968469055    12.000000000000
           C          0.037618726057    -1.598863317610    -0.801922530945    12.000000000000
           H          1.935513726057    -1.994935317610     0.121159469055     1.007825032070
           H          0.572362726057    -2.226757317610     1.191690469055     1.007825032070
           C          0.408755726057    -0.582391317610    -1.884470530945    12.000000000000
           H          0.032227726057    -2.599184317610    -1.227006530945     1.007825032070
           H         -0.972685273943    -1.398665317610    -0.448973530945     1.007825032070
           C          0.202100726057     0.865738682390    -1.431666530945    12.000000000000
           H         -0.186891273943    -0.773285317610    -2.772800530945     1.007825032070
           H          1.451511726057    -0.721961317610    -2.169988530945     1.007825032070
           C          0.763308726057     1.192481682390    -0.042917530945    12.000000000000
           H          0.644518726057     1.536900682390    -2.165597530945     1.007825032070
           H         -0.864742273943     1.079149682390    -1.430745530945     1.007825032070
           C          0.055304726057     0.491250682390     1.119615469055    12.000000000000
           H          1.815388726057     0.915628682390    -0.025719530945     1.007825032070
           H          0.732316726057     2.269793682390     0.112889469055     1.007825032070
           C         -1.375131273943     0.990313682390     1.334619469055    12.000000000000
           H          0.628694726057     0.642770682390     2.033057469055     1.007825032070
           H          0.030689726057    -0.582481317610     0.949921469055     1.007825032070
           C         -2.321016273943     0.602036682390     0.198746469055    12.000000000000
           H         -1.757169273943     0.594449682390     2.273142469055     1.007825032070
           H         -1.366105273943     2.073013682390     1.442151469055     1.007825032070
           H         -2.377183273943    -0.477112317610     0.086914469055     1.007825032070
           H         -3.326648273943     0.968143682390     0.381242469055     1.007825032070
           H         -1.986248273943     1.014333682390    -0.749042530945     1.007825032070

  Running in c1 symmetry.

  Rotational constants: A =      0.06842  B =      0.05009  C =      0.04405 [cm^-1]
  Rotational constants: A =   2051.08203  B =   1501.61492  C =   1320.66496 [MHz]
  Nuclear repulsion =  564.264978900325900

  Charge       = 0
  Multiplicity = 1
  Electrons    = 74
  Nalpha       = 37
  Nbeta        = 37

  ==> Algorithm <==

  SCF Algorithm Type is DF.
  DIIS enabled.
  MOM disabled.
  Fractional occupation disabled.
  Guess Type is CORE.
  Energy threshold   = 1.00e-06
  Density threshold  = 1.00e-06
  Integral threshold = 0.00e+00

  ==> Primary Basis <==

  Basis Set: 6-31G*
    Number of shells: 90
    Number of basis function: 171
    Number of Cartesian functions: 171
    Spherical Harmonics?: false
    Max angular momentum: 2

  ==> Pre-Iterations <==

   -------------------------------------------------------
    Irrep   Nso     Nmo     Nalpha   Nbeta   Ndocc  Nsocc
   -------------------------------------------------------
     A        171     171       0       0       0       0
   -------------------------------------------------------
    Total     171     171      37      37      37       0
   -------------------------------------------------------

 OEINTS: Overlap, kinetic, potential, dipole, and quadrupole integrals
         stored in file 35.

  ==> Integral Setup <==

  ==> DFJK: Density-Fitted J/K Matrices <==

    J tasked:                  Yes
    K tasked:                  Yes
    wK tasked:                  No
    OpenMP threads:              1
    Integrals threads:           1
    Memory (MB):              1430
    Algorithm:                Core
    Integral Cache:           NONE
    Schwarz Cutoff:          1E-12
    Fitting Condition:       1E-12

   => Auxiliary Basis Set <=

  Basis Set: 
    Number of shells: 378
    Number of basis function: 1179
    Number of Cartesian functions: 1179
    Spherical Harmonics?: false
    Max angular momentum: 3

  Minimum eigenvalue in the overlap matrix is 1.3522054319E-03.
  Using Symmetric Orthogonalization.
  SCF Guess: Core (One-Electron) Hamiltonian.

  ==> Iterations <==

                           Total Energy        Delta E     RMS |[F,P]|

   @DF-RHF iter   1:  -252.67460282994398   -2.52675e+02   6.92139e-02 
   @DF-RHF iter   2:  -165.98230379190966    8.66923e+01   6.29636e-02 DIIS
   @DF-RHF iter   3:  -308.01161873419267   -1.42029e+02   4.86821e-02 DIIS
   @DF-RHF iter   4:  -324.99537172381690   -1.69838e+01   5.42320e-02 DIIS
   @DF-RHF iter   5:  -385.94528569616512   -6.09499e+01   8.34828e-03 DIIS
   @DF-RHF iter   6:  -386.88255777918346   -9.37272e-01   3.61139e-03 DIIS
   @DF-RHF iter   7:  -387.06835514494446   -1.85797e-01   6.76873e-04 DIIS
   @DF-RHF iter   8:  -387.07956286596175   -1.12077e-02   2.40360e-04 DIIS
   @DF-RHF iter   9:  -387.08107320813326   -1.51034e-03   1.05752e-04 DIIS
   @DF-RHF iter  10:  -387.08135329267202   -2.80085e-04   3.40542e-05 DIIS
   @DF-RHF iter  11:  -387.08142073932186   -6.74466e-05   1.57655e-05 DIIS
   @DF-RHF iter  12:  -387.08143503401539   -1.42947e-05   6.81794e-06 DIIS
   @DF-RHF iter  13:  -387.08143803357473   -2.99956e-06   2.38705e-06 DIIS
   @DF-RHF iter  14:  -387.08143842255379   -3.88979e-07   7.55544e-07 DIIS

  ==> Post-Iterations <==

    Orbital Energies (a.u.)
    -----------------------

    Doubly Occupied:                                                      

       1A    -20.495471     2A    -11.278242     3A    -11.269423  
       4A    -11.223861     5A    -11.217863     6A    -11.204809  
       7A    -11.193136     8A    -11.192743     9A    -11.175944  
      10A     -1.642444    11A     -1.145947    12A     -1.083853  
      13A     -1.018464    14A     -1.006856    15A     -0.917226  
      16A     -0.876036    17A     -0.849496    18A     -0.778954  
      19A     -0.748778    20A     -0.678085    21A     -0.671336  
      22A     -0.629980    23A     -0.624177    24A     -0.595666  
      25A     -0.575315    26A     -0.562650    27A     -0.546686  
      28A     -0.527991    29A     -0.520555    30A     -0.492978  
      31A     -0.472483    32A     -0.463557    33A     -0.454076  
      34A     -0.439600    35A     -0.424332    36A     -0.351729  
      37A     -0.248720  

    Virtual:                                                              

      38A      0.202486    39A      0.242448    40A      0.251593  
      41A      0.260391    42A      0.283395    43A      0.292870  
      44A      0.294691    45A      0.311042    46A      0.323439  
      47A      0.327405    48A      0.330064    49A      0.341404  
      50A      0.345860    51A      0.366856    52A      0.374787  
      53A      0.385140    54A      0.397202    55A      0.418792  
      56A      0.431769    57A      0.439292    58A      0.462714  
      59A      0.467189    60A      0.499103    61A      0.505711  
      62A      0.555425    63A      0.587922    64A      0.682545  
      65A      0.709934    66A      0.724846    67A      0.732270  
      68A      0.740077    69A      0.769297    70A      0.784495  
      71A      0.822438    72A      0.845580    73A      0.872939  
      74A      0.890308    75A      0.900929    76A      0.920876  
      77A      0.958731    78A      0.977445    79A      0.993750  
      80A      1.014844    81A      1.035194    82A      1.053218  
      83A      1.071467    84A      1.094575    85A      1.105528  
      86A      1.120946    87A      1.143911    88A      1.147880  
      89A      1.162291    90A      1.176733    91A      1.184073  
      92A      1.192308    93A      1.200998    94A      1.216226  
      95A      1.231521    96A      1.246374    97A      1.254235  
      98A      1.259115    99A      1.281206   100A      1.289615  
     101A      1.305769   102A      1.343726   103A      1.396881  
     104A      1.415573   105A      1.432314   106A      1.474776  
     107A      1.513042   108A      1.562018   109A      1.628089  
     110A      1.648178   111A      1.688695   112A      1.716294  
     113A      1.755201   114A      1.762629   115A      1.795206  
     116A      1.850643   117A      1.890314   118A      1.936765  
     119A      1.944362   120A      2.004413   121A      2.040406  
     122A      2.044750   123A      2.084615   124A      2.145440  
     125A      2.171513   126A      2.224675   127A      2.241943  
     128A      2.244870   129A      2.264004   130A      2.305370  
     131A      2.317591   132A      2.344486   133A      2.368020  
     134A      2.406700   135A      2.422733   136A      2.447451  
     137A      2.507409   138A      2.557641   139A      2.572433  
     140A      2.615563   141A      2.622764   142A      2.673608  
     143A      2.682696   144A      2.700938   145A      2.715921  
     146A      2.730393   147A      2.747706   148A      2.765082  
     149A      2.799844   150A      2.802320   151A      2.819064  
     152A      2.870002   153A      2.935989   154A      2.977074  
     155A      3.023606   156A      3.032653   157A      3.058832  
     158A      3.107014   159A      3.159639   160A      3.263639  
     161A      3.541477   162A      4.543237   163A      4.592901  
     164A      4.666035   165A      4.769705   166A      4.827247  
     167A      4.894493   168A      4.970396   169A      5.008490  
     170A      5.092320   171A      5.161314  

    Final Occupation by Irrep:
              A 
    DOCC [    37 ]

  Energy converged.

  @DF-RHF Final Energy:  -387.08143842255379

   => Energetics <=

    Nuclear Repulsion Energy =            564.2649789003259002
    One-Electron Energy =               -1643.4939733136866380
    Two-Electron Energy =                 692.1475559908069499
    DFT Exchange-Correlation Energy =       0.0000000000000000
    Empirical Dispersion Energy =           0.0000000000000000
    PCM Polarization Energy =               0.0000000000000000
    EFP Energy =                            0.0000000000000000
    Total Energy =                       -387.0814384225539015

    Alert: EFP and PCM quantities not currently incorporated into SCF psivars.

Properties will be evaluated at   0.000000,   0.000000,   0.000000 Bohr
  ==> Properties <==


Properties computed using the SCF density matrix

  Nuclear Dipole Moment: (a.u.)
     X:    -4.2431      Y:     0.3264      Z:    -0.9863

  Electronic Dipole Moment: (a.u.)
     X:     4.3747      Y:    -1.0262      Z:     0.9361

  Dipole Moment: (a.u.)
     X:     0.1315      Y:    -0.6998      Z:    -0.0502     Total:     0.7138

  Dipole Moment: (Debye)
     X:     0.3344      Y:    -1.7786      Z:    -0.1276     Total:     1.8143


  Saving occupied orbitals to File 180.

*** tstop() called on cx1-3-4-2.cx1.hpc.ic.ac.uk at Tue Jul  5 18:14:00 2016
Module time:
	user time   =      29.95 seconds =       0.50 minutes
	system time =       0.27 seconds =       0.00 minutes
	total time  =         30 seconds =       0.50 minutes
Total time:
	user time   =      29.95 seconds =       0.50 minutes
	system time =       0.27 seconds =       0.00 minutes
	total time  =         30 seconds =       0.50 minutes


Properties will be evaluated at   0.000000,   0.000000,   0.000000 Bohr

Properties computed using the  density matrix

  Nuclear Dipole Moment: (a.u.)
     X:    -4.2431      Y:     0.3264      Z:    -0.9863

  Electronic Dipole Moment: (a.u.)
     X:     4.3747      Y:    -1.0262      Z:     0.9361

  Dipole Moment: (a.u.)
     X:     0.1315      Y:    -0.6998      Z:    -0.0502     Total:     0.7138

  Dipole Moment: (Debye)
     X:     0.3344      Y:    -1.7786      Z:    -0.1276     Total:     1.8143

  Quadrupole Moment: (Debye Ang)
    XX:   -63.8485     YY:   -59.5224     ZZ:   -59.3709
    XY:    -0.3979     XZ:     0.4228     YZ:    -0.1545

  Traceless Quadrupole Moment: (Debye Ang)
    XX:    -2.9345     YY:     1.3915     ZZ:     1.5430
    XY:    -0.3979     XZ:     0.4228     YZ:    -0.1545

  Mulliken Charges: (a.u.)
   Center  Symbol    Alpha    Beta     Spin     Total
       1     H     0.42213  0.42213  0.00000  0.15573
       2     O     4.28360  4.28360  0.00000 -0.56721
       3     C     3.07029  3.07029  0.00000 -0.14058
       4     C     3.19148  3.19148  0.00000 -0.38295
       5     H     0.38873  0.38873  0.00000  0.22253
       6     H     0.40938  0.40938  0.00000  0.18124
       7     C     3.14960  3.14960  0.00000 -0.29920
       8     H     0.41219  0.41219  0.00000  0.17562
       9     H     0.40448  0.40448  0.00000  0.19104
      10     C     3.14976  3.14976  0.00000 -0.29953
      11     H     0.41638  0.41638  0.00000  0.16723
      12     H     0.42224  0.42224  0.00000  0.15551
      13     C     3.16258  3.16258  0.00000 -0.32515
      14     H     0.41917  0.41917  0.00000  0.16166
      15     H     0.42577  0.42577  0.00000  0.14846
      16     C     3.10128  3.10128  0.00000 -0.20255
      17     H     0.39135  0.39135  0.00000  0.21731
      18     H     0.43823  0.43823  0.00000  0.12353
      19     C     3.15940  3.15940  0.00000 -0.31880
      20     H     0.37182  0.37182  0.00000  0.25635
      21     H     0.42500  0.42500  0.00000  0.15000
      22     C     3.24758  3.24758  0.00000 -0.49516
      23     H     0.43688  0.43688  0.00000  0.12625
      24     H     0.43588  0.43588  0.00000  0.12824
      25     H     0.42586  0.42586  0.00000  0.14828
      26     H     0.41943  0.41943  0.00000  0.16114
      27     H     0.41949  0.41949  0.00000  0.16102

   Total alpha = 37.00000, Total beta = 37.00000, Total charge =  0.00000


*** PSI4 exiting successfully. Buy a developer a beer!
