    -----------------------------------------------------------------------
          Psi4: An Open-Source Ab Initio Electronic Structure Package
                              Psi4 (no tag) Driver

                          Git: Rev {detached?}  

    J. M. Turney, A. C. Simmonett, R. M. Parrish, E. G. Hohenstein,
    F. A. Evangelista, J. T. Fermann, B. J. Mintz, L. A. Burns, J. J. Wilke,
    M. L. Abrams, N. J. Russ, M. L. Leininger, C. L. Janssen, E. T. Seidl,
    W. D. Allen, H. F. Schaefer, R. A. King, E. F. Valeev, C. D. Sherrill,
    and T. D. Crawford, WIREs Comput. Mol. Sci. 2, 556-565 (2012)
    (doi: 10.1002/wcms.93)

                         Additional Contributions by
    A. E. DePrince, M. Saitow, U. Bozkaya, A. Yu. Sokolov
    -----------------------------------------------------------------------


    Psi4 started on: Tue Jul  5 16:44:28 2016

    Process ID:  18763
    PSI4DATADIR: /export131/home/mjharvey/miniconda3/share
    Memory level set to 256.000 MB

  ==> Input File <==

--------------------------------------------------------------------------
set {
	reference rhf
	basis 6-31G*
}


set_num_threads( 1 )
memory 2 gb

molecule MOL {
0 1

O	 -1.927922	 -0.691696	 0.255410
C	 -1.083277	 0.139568	 0.115197
C	 0.323299	 -0.082943	 0.642902
C	 -1.371997	 1.458288	 -0.567041
C	 1.355627	 -0.005344	 -0.493127
H	 0.396251	 -1.044647	 1.143147
H	 0.528637	 0.693580	 1.371677
C	 1.155333	 1.223865	 -1.377534
H	 2.360126	 0.010252	 -0.075980
H	 1.280057	 -0.907677	 -1.090809
H	 1.891536	 1.252673	 -2.174319
H	 1.250670	 2.141594	 -0.804378
H	 0.170717	 1.219102	 -1.835306
H	 -1.046016	 2.290670	 0.049842
H	 -2.429956	 1.544952	 -0.771850
H	 -0.818146	 1.515150	 -1.500433

	symmetry c1
}
set optking {
	frozen_dihedral = ("
		9 5 3 2
	")
}

ee = energy('scf')
oeprop('DIPOLE', 'QUADRUPOLE', 'MULLIKEN_CHARGES')
f=open( 'psi4out.xyz', 'w' )
f.write( "16  " )
f.write( str(ee) + "\n" )
f.write( MOL.save_string_xyz() )
f.close()
--------------------------------------------------------------------------

  Memory set to   2.000 GiB by Python script.

*** tstart() called on cx1-3-15-3.cx1.hpc.ic.ac.uk
*** at Tue Jul  5 16:44:29 2016


         ---------------------------------------------------------
                                   SCF
            by Justin Turney, Rob Parrish, and Andy Simmonett
                              RHF Reference
                        1 Threads,   2000 MiB Core
         ---------------------------------------------------------

  ==> Geometry <==

    Molecular point group: c1
    Full point group: C1

    Geometry (in Angstrom), charge = 0, multiplicity = 1:

       Center              X                  Y                   Z               Mass       
    ------------   -----------------  -----------------  -----------------  -----------------
           O         -1.664457680380    -1.046294774094     0.508716542812    15.994914619560
           C         -0.819812680380    -0.215030774094     0.368503542812    12.000000000000
           C          0.586763319620    -0.437541774094     0.896208542812    12.000000000000
           C         -1.108532680380     1.103689225906    -0.313734457188    12.000000000000
           C          1.619091319620    -0.359942774094    -0.239820457188    12.000000000000
           H          0.659715319620    -1.399245774094     1.396453542812     1.007825032070
           H          0.792101319620     0.338981225906     1.624983542812     1.007825032070
           C          1.418797319620     0.869266225906    -1.124227457188    12.000000000000
           H          2.623590319620    -0.344346774094     0.177326542812     1.007825032070
           H          1.543521319620    -1.262275774094    -0.837502457188     1.007825032070
           H          2.155000319620     0.898074225906    -1.921012457188     1.007825032070
           H          1.514134319620     1.786995225906    -0.551071457188     1.007825032070
           H          0.434181319620     0.864503225906    -1.581999457188     1.007825032070
           H         -0.782551680380     1.936071225906     0.303148542812     1.007825032070
           H         -2.166491680380     1.190353225906    -0.518543457188     1.007825032070
           H         -0.554681680380     1.160551225906    -1.247126457188     1.007825032070

  Running in c1 symmetry.

  Rotational constants: A =      0.18611  B =      0.09242  C =      0.06985 [cm^-1]
  Rotational constants: A =   5579.32367  B =   2770.55126  C =   2093.99403 [MHz]
  Nuclear repulsion =  247.495373242414075

  Charge       = 0
  Multiplicity = 1
  Electrons    = 48
  Nalpha       = 24
  Nbeta        = 24

  ==> Algorithm <==

  SCF Algorithm Type is DF.
  DIIS enabled.
  MOM disabled.
  Fractional occupation disabled.
  Guess Type is CORE.
  Energy threshold   = 1.00e-06
  Density threshold  = 1.00e-06
  Integral threshold = 0.00e+00

  ==> Primary Basis <==

  Basis Set: 6-31G*
    Number of shells: 56
    Number of basis function: 110
    Number of Cartesian functions: 110
    Spherical Harmonics?: false
    Max angular momentum: 2

  ==> Pre-Iterations <==

   -------------------------------------------------------
    Irrep   Nso     Nmo     Nalpha   Nbeta   Ndocc  Nsocc
   -------------------------------------------------------
     A        110     110       0       0       0       0
   -------------------------------------------------------
    Total     110     110      24      24      24       0
   -------------------------------------------------------

 OEINTS: Overlap, kinetic, potential, dipole, and quadrupole integrals
         stored in file 35.

  ==> Integral Setup <==

  ==> DFJK: Density-Fitted J/K Matrices <==

    J tasked:                  Yes
    K tasked:                  Yes
    wK tasked:                  No
    OpenMP threads:              1
    Integrals threads:           1
    Memory (MB):              1430
    Algorithm:                Core
    Integral Cache:           NONE
    Schwarz Cutoff:          1E-12
    Fitting Condition:       1E-12

   => Auxiliary Basis Set <=

  Basis Set: 
    Number of shells: 234
    Number of basis function: 736
    Number of Cartesian functions: 736
    Spherical Harmonics?: false
    Max angular momentum: 3

  Minimum eigenvalue in the overlap matrix is 3.8211229501E-03.
  Using Symmetric Orthogonalization.
  SCF Guess: Core (One-Electron) Hamiltonian.

  ==> Iterations <==

                           Total Energy        Delta E     RMS |[F,P]|

   @DF-RHF iter   1:  -211.72357712442226   -2.11724e+02   7.24853e-02 
   @DF-RHF iter   2:  -178.84161013232915    3.28820e+01   6.38237e-02 DIIS
   @DF-RHF iter   3:  -242.15908496184795   -6.33175e+01   4.40540e-02 DIIS
   @DF-RHF iter   4:  -263.37616398639727   -2.12171e+01   2.97984e-02 DIIS
   @DF-RHF iter   5:  -269.27425526650507   -5.89809e+00   1.11398e-02 DIIS
   @DF-RHF iter   6:  -269.89016401652555   -6.15909e-01   3.29502e-03 DIIS
   @DF-RHF iter   7:  -269.95232506583091   -6.21610e-02   1.44263e-03 DIIS
   @DF-RHF iter   8:  -269.96585836269105   -1.35333e-02   4.00481e-04 DIIS
   @DF-RHF iter   9:  -269.96729659698713   -1.43823e-03   1.43662e-04 DIIS
   @DF-RHF iter  10:  -269.96753628929093   -2.39692e-04   3.61418e-05 DIIS
   @DF-RHF iter  11:  -269.96756062471002   -2.43354e-05   1.38251e-05 DIIS
   @DF-RHF iter  12:  -269.96756460575796   -3.98105e-06   5.71165e-06 DIIS
   @DF-RHF iter  13:  -269.96756526427134   -6.58513e-07   2.15162e-06 DIIS
   @DF-RHF iter  14:  -269.96756538347074   -1.19199e-07   8.55831e-07 DIIS

  ==> Post-Iterations <==

    Orbital Energies (a.u.)
    -----------------------

    Doubly Occupied:                                                      

       1A    -20.548032     2A    -11.323822     3A    -11.236254  
       4A    -11.230575     5A    -11.217908     6A    -11.217610  
       7A     -1.392974     8A     -1.098551     9A     -1.001992  
      10A     -0.970948    11A     -0.834228    12A     -0.737517  
      13A     -0.689605    14A     -0.647201    15A     -0.631358  
      16A     -0.606015    17A     -0.576490    18A     -0.561516  
      19A     -0.555885    20A     -0.512424    21A     -0.490214  
      22A     -0.481776    23A     -0.444545    24A     -0.398674  

    Virtual:                                                              

      25A      0.160413    26A      0.228400    27A      0.253001  
      28A      0.276732    29A      0.290294    30A      0.298602  
      31A      0.322014    32A      0.324865    33A      0.335986  
      34A      0.346343    35A      0.382165    36A      0.390371  
      37A      0.408407    38A      0.486758    39A      0.507484  
      40A      0.540261    41A      0.706648    42A      0.709370  
      43A      0.735713    44A      0.762966    45A      0.791615  
      46A      0.822075    47A      0.825281    48A      0.876195  
      49A      0.894824    50A      0.942587    51A      0.972614  
      52A      0.993173    53A      1.020674    54A      1.043124  
      55A      1.108112    56A      1.116537    57A      1.144090  
      58A      1.150231    59A      1.167114    60A      1.186173  
      61A      1.204372    62A      1.214646    63A      1.236084  
      64A      1.241269    65A      1.268597    66A      1.302667  
      67A      1.309280    68A      1.375377    69A      1.392027  
      70A      1.436540    71A      1.574207    72A      1.648013  
      73A      1.691629    74A      1.787615    75A      1.807017  
      76A      1.893757    77A      1.921415    78A      2.033888  
      79A      2.052345    80A      2.101470    81A      2.119917  
      82A      2.161067    83A      2.192422    84A      2.240409  
      85A      2.264420    86A      2.313472    87A      2.363780  
      88A      2.377371    89A      2.419410    90A      2.480012  
      91A      2.554488    92A      2.581942    93A      2.657910  
      94A      2.678403    95A      2.715666    96A      2.737169  
      97A      2.772427    98A      2.860697    99A      2.920689  
     100A      2.984712   101A      3.044283   102A      3.126064  
     103A      3.375661   104A      3.384274   105A      4.420417  
     106A      4.559218   107A      4.668783   108A      4.739493  
     109A      4.933210   110A      4.979764  

    Final Occupation by Irrep:
              A 
    DOCC [    24 ]

  Energy converged.

  @DF-RHF Final Energy:  -269.96756538347074

   => Energetics <=

    Nuclear Repulsion Energy =            247.4953732424140753
    One-Electron Energy =                -856.1135975395454807
    Two-Electron Energy =                 338.6506589136607772
    DFT Exchange-Correlation Energy =       0.0000000000000000
    Empirical Dispersion Energy =           0.0000000000000000
    PCM Polarization Energy =               0.0000000000000000
    EFP Energy =                            0.0000000000000000
    Total Energy =                       -269.9675653834706281

    Alert: EFP and PCM quantities not currently incorporated into SCF psivars.

Properties will be evaluated at   0.000000,   0.000000,   0.000000 Bohr
  ==> Properties <==


Properties computed using the SCF density matrix

  Nuclear Dipole Moment: (a.u.)
     X:     5.8217      Y:     4.8414      Z:    -2.9556

  Electronic Dipole Moment: (a.u.)
     X:    -4.8462      Y:    -4.0185      Z:     2.7414

  Dipole Moment: (a.u.)
     X:     0.9755      Y:     0.8229      Z:    -0.2142     Total:     1.2940

  Dipole Moment: (Debye)
     X:     2.4794      Y:     2.0915      Z:    -0.5445     Total:     3.2891


  Saving occupied orbitals to File 180.

*** tstop() called on cx1-3-15-3.cx1.hpc.ic.ac.uk at Tue Jul  5 16:44:36 2016
Module time:
	user time   =       6.74 seconds =       0.11 minutes
	system time =       0.04 seconds =       0.00 minutes
	total time  =          7 seconds =       0.12 minutes
Total time:
	user time   =       6.74 seconds =       0.11 minutes
	system time =       0.04 seconds =       0.00 minutes
	total time  =          7 seconds =       0.12 minutes


Properties will be evaluated at   0.000000,   0.000000,   0.000000 Bohr

Properties computed using the  density matrix

  Nuclear Dipole Moment: (a.u.)
     X:     5.8217      Y:     4.8414      Z:    -2.9556

  Electronic Dipole Moment: (a.u.)
     X:    -4.8462      Y:    -4.0185      Z:     2.7414

  Dipole Moment: (a.u.)
     X:     0.9755      Y:     0.8229      Z:    -0.2142     Total:     1.2940

  Dipole Moment: (Debye)
     X:     2.4794      Y:     2.0915      Z:    -0.5445     Total:     3.2891

  Quadrupole Moment: (Debye Ang)
    XX:   -43.0475     YY:   -40.0813     ZZ:   -37.7235
    XY:    -4.2866     XZ:     1.9457     YZ:     1.1733

  Traceless Quadrupole Moment: (Debye Ang)
    XX:    -2.7634     YY:     0.2028     ZZ:     2.5606
    XY:    -4.2866     XZ:     1.9457     YZ:     1.1733

  Mulliken Charges: (a.u.)
   Center  Symbol    Alpha    Beta     Spin     Total
       1     O     4.25988  4.25988  0.00000 -0.51975
       2     C     2.73786  2.73786  0.00000  0.52428
       3     C     3.20249  3.20249  0.00000 -0.40498
       4     C     3.29372  3.29372  0.00000 -0.58744
       5     C     3.16275  3.16275  0.00000 -0.32550
       6     H     0.39753  0.39753  0.00000  0.20495
       7     H     0.41268  0.41268  0.00000  0.17463
       8     C     3.24646  3.24646  0.00000 -0.49293
       9     H     0.41136  0.41136  0.00000  0.17727
      10     H     0.41130  0.41130  0.00000  0.17739
      11     H     0.41340  0.41340  0.00000  0.17319
      12     H     0.41830  0.41830  0.00000  0.16341
      13     H     0.42437  0.42437  0.00000  0.15126
      14     H     0.40864  0.40864  0.00000  0.18271
      15     H     0.39700  0.39700  0.00000  0.20600
      16     H     0.40225  0.40225  0.00000  0.19551

   Total alpha = 24.00000, Total beta = 24.00000, Total charge = -0.00000


*** PSI4 exiting successfully. Buy a developer a beer!
