    -----------------------------------------------------------------------
          Psi4: An Open-Source Ab Initio Electronic Structure Package
                              Psi4 (no tag) Driver

                          Git: Rev {detached?}  

    J. M. Turney, A. C. Simmonett, R. M. Parrish, E. G. Hohenstein,
    F. A. Evangelista, J. T. Fermann, B. J. Mintz, L. A. Burns, J. J. Wilke,
    M. L. Abrams, N. J. Russ, M. L. Leininger, C. L. Janssen, E. T. Seidl,
    W. D. Allen, H. F. Schaefer, R. A. King, E. F. Valeev, C. D. Sherrill,
    and T. D. Crawford, WIREs Comput. Mol. Sci. 2, 556-565 (2012)
    (doi: 10.1002/wcms.93)

                         Additional Contributions by
    A. E. DePrince, M. Saitow, U. Bozkaya, A. Yu. Sokolov
    -----------------------------------------------------------------------


    Psi4 started on: Tue Jul  5 16:32:05 2016

    Process ID:  23844
    PSI4DATADIR: /export131/home/mjharvey/miniconda3/share
    Memory level set to 256.000 MB

  ==> Input File <==

--------------------------------------------------------------------------
set {
	reference rhf
	basis 6-31G*
}


set_num_threads( 1 )
memory 2 gb

molecule MOL {
0 1

H	 -2.798360	 -0.862255	 -0.071053
N	 -1.863561	 -0.715187	 0.256814
C	 -1.344686	 0.554728	 -0.219830
H	 -1.300452	 -1.461917	 -0.101532
C	 -2.388670	 1.255933	 -1.063362
H	 -1.037276	 1.230953	 0.579057
H	 -0.472858	 0.363281	 -0.837927
O	 -2.613597	 0.487859	 -2.210776
H	 -3.314937	 1.367674	 -0.500173
H	 -2.032853	 2.246914	 -1.336464
C	 -3.495150	 1.061858	 -3.122347
H	 -3.590188	 0.382961	 -3.958866
H	 -4.478542	 1.216317	 -2.681820
H	 -3.125180	 2.018752	 -3.484680

	symmetry c1
}
set optking {
	frozen_dihedral = ("
		8 5 3 6,
		5 8 11 13,
		11 8 5 3
	")
}

ee = energy('scf')
oeprop('DIPOLE', 'QUADRUPOLE', 'MULLIKEN_CHARGES')
f=open( 'psi4out.xyz', 'w' )
f.write( "14  " )
f.write( str(ee) + "\n" )
f.write( MOL.save_string_xyz() )
f.close()
--------------------------------------------------------------------------

  Memory set to   2.000 GiB by Python script.

*** tstart() called on cx1-3-6-4.cx1.hpc.ic.ac.uk
*** at Tue Jul  5 16:32:05 2016


         ---------------------------------------------------------
                                   SCF
            by Justin Turney, Rob Parrish, and Andy Simmonett
                              RHF Reference
                        1 Threads,   2000 MiB Core
         ---------------------------------------------------------

  ==> Geometry <==

    Molecular point group: c1
    Full point group: C1

    Geometry (in Angstrom), charge = 0, multiplicity = 1:

       Center              X                  Y                   Z               Mass       
    ------------   -----------------  -----------------  -----------------  -----------------
           H         -0.440965168389    -1.379279887294     1.222725409045     1.007825032070
           N          0.493833831611    -1.232211887294     1.550592409045    14.003074004780
           C          1.012708831611     0.037703112706     1.073948409045    12.000000000000
           H          1.056942831611    -1.978941887294     1.192246409045     1.007825032070
           C         -0.031275168389     0.738908112706     0.230416409045    12.000000000000
           H          1.320118831611     0.713928112706     1.872835409045     1.007825032070
           H          1.884536831611    -0.153743887294     0.455851409045     1.007825032070
           O         -0.256202168389    -0.029165887294    -0.916997590955    15.994914619560
           H         -0.957542168389     0.850649112706     0.793605409045     1.007825032070
           H          0.324541831611     1.729889112706    -0.042685590955     1.007825032070
           C         -1.137755168389     0.544833112706    -1.828568590955    12.000000000000
           H         -1.232793168389    -0.134063887294    -2.665087590955     1.007825032070
           H         -2.121147168389     0.699292112706    -1.388041590955     1.007825032070
           H         -0.767785168389     1.501727112706    -2.190901590955     1.007825032070

  Running in c1 symmetry.

  Rotational constants: A =      0.43464  B =      0.09111  C =      0.08257 [cm^-1]
  Rotational constants: A =  13030.19205  B =   2731.44144  C =   2475.51886 [MHz]
  Nuclear repulsion =  195.150986765842674

  Charge       = 0
  Multiplicity = 1
  Electrons    = 42
  Nalpha       = 21
  Nbeta        = 21

  ==> Algorithm <==

  SCF Algorithm Type is DF.
  DIIS enabled.
  MOM disabled.
  Fractional occupation disabled.
  Guess Type is CORE.
  Energy threshold   = 1.00e-06
  Density threshold  = 1.00e-06
  Integral threshold = 0.00e+00

  ==> Primary Basis <==

  Basis Set: 6-31G*
    Number of shells: 48
    Number of basis function: 93
    Number of Cartesian functions: 93
    Spherical Harmonics?: false
    Max angular momentum: 2

  ==> Pre-Iterations <==

   -------------------------------------------------------
    Irrep   Nso     Nmo     Nalpha   Nbeta   Ndocc  Nsocc
   -------------------------------------------------------
     A         93      93       0       0       0       0
   -------------------------------------------------------
    Total      93      93      21      21      21       0
   -------------------------------------------------------

 OEINTS: Overlap, kinetic, potential, dipole, and quadrupole integrals
         stored in file 35.

  ==> Integral Setup <==

  ==> DFJK: Density-Fitted J/K Matrices <==

    J tasked:                  Yes
    K tasked:                  Yes
    wK tasked:                  No
    OpenMP threads:              1
    Integrals threads:           1
    Memory (MB):              1430
    Algorithm:                Core
    Integral Cache:           NONE
    Schwarz Cutoff:          1E-12
    Fitting Condition:       1E-12

   => Auxiliary Basis Set <=

  Basis Set: 
    Number of shells: 201
    Number of basis function: 630
    Number of Cartesian functions: 630
    Spherical Harmonics?: false
    Max angular momentum: 3

  Minimum eigenvalue in the overlap matrix is 4.3713200520E-03.
  Using Symmetric Orthogonalization.
  SCF Guess: Core (One-Electron) Hamiltonian.

  ==> Iterations <==

                           Total Energy        Delta E     RMS |[F,P]|

   @DF-RHF iter   1:  -201.70514517166401   -2.01705e+02   7.99358e-02 
   @DF-RHF iter   2:  -154.83828377460196    4.68669e+01   6.71493e-02 DIIS
   @DF-RHF iter   3:  -211.51706125970105   -5.66788e+01   6.09929e-02 DIIS
   @DF-RHF iter   4:  -239.15871703675617   -2.76417e+01   4.15421e-02 DIIS
   @DF-RHF iter   5:  -247.84038560801008   -8.68167e+00   7.83436e-03 DIIS
   @DF-RHF iter   6:  -248.07098484883562   -2.30599e-01   3.28369e-03 DIIS
   @DF-RHF iter   7:  -248.11487265657212   -4.38878e-02   8.05615e-04 DIIS
   @DF-RHF iter   8:  -248.11798662982824   -3.11397e-03   2.38386e-04 DIIS
   @DF-RHF iter   9:  -248.11831577394844   -3.29144e-04   7.89634e-05 DIIS
   @DF-RHF iter  10:  -248.11835991919014   -4.41452e-05   2.82215e-05 DIIS
   @DF-RHF iter  11:  -248.11836621573900   -6.29655e-06   6.90816e-06 DIIS
   @DF-RHF iter  12:  -248.11836651984061   -3.04102e-07   2.47093e-06 DIIS
   @DF-RHF iter  13:  -248.11836656250443   -4.26638e-08   4.51322e-07 DIIS

  ==> Post-Iterations <==

    Orbital Energies (a.u.)
    -----------------------

    Doubly Occupied:                                                      

       1A    -20.561267     2A    -15.525412     3A    -11.271276  
       4A    -11.270112     5A    -11.241023     6A     -1.385893  
       7A     -1.173996     8A     -1.000257     9A     -0.909916  
      10A     -0.822759    11A     -0.689904    12A     -0.666854  
      13A     -0.653412    14A     -0.624359    15A     -0.583857  
      16A     -0.550464    17A     -0.536736    18A     -0.505402  
      19A     -0.472549    20A     -0.423011    21A     -0.374767  

    Virtual:                                                              

      22A      0.230492    23A      0.250470    24A      0.277734  
      25A      0.286320    26A      0.315567    27A      0.317250  
      28A      0.332335    29A      0.346345    30A      0.347754  
      31A      0.365653    32A      0.431667    33A      0.445382  
      34A      0.462595    35A      0.720026    36A      0.762268  
      37A      0.768297    38A      0.794904    39A      0.819527  
      40A      0.855195    41A      0.889951    42A      0.927021  
      43A      0.994500    44A      1.027859    45A      1.087882  
      46A      1.096388    47A      1.117514    48A      1.121877  
      49A      1.142398    50A      1.157262    51A      1.166221  
      52A      1.186510    53A      1.210964    54A      1.234373  
      55A      1.250069    56A      1.274610    57A      1.323342  
      58A      1.375281    59A      1.434437    60A      1.531716  
      61A      1.648852    62A      1.667695    63A      1.726564  
      64A      1.755700    65A      1.816304    66A      1.942088  
      67A      2.025887    68A      2.090752    69A      2.220233  
      70A      2.245211    71A      2.302917    72A      2.380252  
      73A      2.423092    74A      2.433650    75A      2.451235  
      76A      2.475321    77A      2.503015    78A      2.600029  
      79A      2.617524    80A      2.715700    81A      2.742219  
      82A      2.774450    83A      2.894450    84A      2.921858  
      85A      3.015942    86A      3.104124    87A      3.190534  
      88A      3.332583    89A      4.221714    90A      4.358084  
      91A      4.651883    92A      4.697218    93A      4.895768  

    Final Occupation by Irrep:
              A 
    DOCC [    21 ]

  Energy converged.

  @DF-RHF Final Energy:  -248.11836656250443

   => Energetics <=

    Nuclear Repulsion Energy =            195.1509867658426742
    One-Electron Energy =                -724.0521788135667975
    Two-Electron Energy =                 280.7828254852200303
    DFT Exchange-Correlation Energy =       0.0000000000000000
    Empirical Dispersion Energy =           0.0000000000000000
    PCM Polarization Energy =               0.0000000000000000
    EFP Energy =                            0.0000000000000000
    Total Energy =                       -248.1183665625041499

    Alert: EFP and PCM quantities not currently incorporated into SCF psivars.

Properties will be evaluated at   0.000000,   0.000000,   0.000000 Bohr
  ==> Properties <==


Properties computed using the SCF density matrix

  Nuclear Dipole Moment: (a.u.)
     X:    -0.8783      Y:     1.7372      Z:    -0.7115

  Electronic Dipole Moment: (a.u.)
     X:     0.6215      Y:    -1.2831      Z:     0.1134

  Dipole Moment: (a.u.)
     X:    -0.2568      Y:     0.4541      Z:    -0.5981     Total:     0.7937

  Dipole Moment: (Debye)
     X:    -0.6528      Y:     1.1543      Z:    -1.5203     Total:     2.0174


  Saving occupied orbitals to File 180.

*** tstop() called on cx1-3-6-4.cx1.hpc.ic.ac.uk at Tue Jul  5 16:32:11 2016
Module time:
	user time   =       4.94 seconds =       0.08 minutes
	system time =       0.04 seconds =       0.00 minutes
	total time  =          6 seconds =       0.10 minutes
Total time:
	user time   =       4.94 seconds =       0.08 minutes
	system time =       0.04 seconds =       0.00 minutes
	total time  =          6 seconds =       0.10 minutes


Properties will be evaluated at   0.000000,   0.000000,   0.000000 Bohr

Properties computed using the  density matrix

  Nuclear Dipole Moment: (a.u.)
     X:    -0.8783      Y:     1.7372      Z:    -0.7115

  Electronic Dipole Moment: (a.u.)
     X:     0.6215      Y:    -1.2831      Z:     0.1134

  Dipole Moment: (a.u.)
     X:    -0.2568      Y:     0.4541      Z:    -0.5981     Total:     0.7937

  Dipole Moment: (Debye)
     X:    -0.6528      Y:     1.1543      Z:    -1.5203     Total:     2.0174

  Quadrupole Moment: (Debye Ang)
    XX:   -29.8245     YY:   -30.4679     ZZ:   -36.6802
    XY:    -0.5194     XZ:     0.7754     YZ:     1.4228

  Traceless Quadrupole Moment: (Debye Ang)
    XX:     2.4997     YY:     1.8563     ZZ:    -4.3560
    XY:    -0.5194     XZ:     0.7754     YZ:     1.4228

  Mulliken Charges: (a.u.)
   Center  Symbol    Alpha    Beta     Spin     Total
       1     H     0.32578  0.32578  0.00000  0.34843
       2     N     3.92827  3.92827  0.00000 -0.85654
       3     C     3.05346  3.05346  0.00000 -0.10691
       4     H     0.32972  0.32972  0.00000  0.34055
       5     C     3.01152  3.01152  0.00000 -0.02303
       6     H     0.42168  0.42168  0.00000  0.15665
       7     H     0.41927  0.41927  0.00000  0.16145
       8     O     4.30593  4.30593  0.00000 -0.61186
       9     H     0.42734  0.42734  0.00000  0.14533
      10     H     0.42761  0.42761  0.00000  0.14478
      11     C     3.07968  3.07968  0.00000 -0.15937
      12     H     0.41144  0.41144  0.00000  0.17711
      13     H     0.42967  0.42967  0.00000  0.14066
      14     H     0.42863  0.42863  0.00000  0.14274

   Total alpha = 21.00000, Total beta = 21.00000, Total charge =  0.00000


*** PSI4 exiting successfully. Buy a developer a beer!
