
    -----------------------------------------------------------------------
          Psi4: An Open-Source Ab Initio Electronic Structure Package
                               Psi4 1.1 release

                         Git: Rev {HEAD} add49b9 


    R. M. Parrish, L. A. Burns, D. G. A. Smith, A. C. Simmonett,
    A. E. DePrince III, E. G. Hohenstein, U. Bozkaya, A. Yu. Sokolov,
    R. Di Remigio, R. M. Richard, J. F. Gonthier, A. M. James,
    H. R. McAlexander, A. Kumar, M. Saitow, X. Wang, B. P. Pritchard,
    P. Verma, H. F. Schaefer III, K. Patkowski, R. A. King, E. F. Valeev,
    F. A. Evangelista, J. M. Turney, T. D. Crawford, and C. D. Sherrill,
    J. Chem. Theory Comput. in press (2017).
    (doi: 10.1021/acs.jctc.7b00174)

    -----------------------------------------------------------------------


    Psi4 started on: Tuesday, 12 December 2017 10:56AM

    Process ID:  23091
    PSIDATADIR: /shared/raimis/opt/miniconda/envs/htmd/share/psi4
    Memory:     500.0 MiB
    Threads:    1
    
  ==> Input File <==

--------------------------------------------------------------------------
set_num_threads(1)
set_memory(4203741184)

set { reference rks }
set { basis cc-pVDZ }

molecule MOL {
    0 1
    noreorient
    nocom
    symmetry c1
    O    1.141000   0.017000   0.083000
    C    2.558000   0.086000  -0.005000
    C    3.192000  -0.789000   1.067000
    O    4.591221  -0.904642   0.838579
    H    0.789000   0.590000  -0.620000
    H    2.874000   1.128000   0.115000
    H    2.871000  -0.243000  -1.001000
    H    2.743582  -1.787404   1.060083
    H    3.026484  -0.356699   2.060277
    H    4.943016  -1.470460   1.547787
}

set optking { frozen_dihedral = (" 1 2 3 4 ") }

energy, wfn = energy('B3LYP-D3', return_wfn=True)

import os
os.chdir(os.environ['HTMD_PSI4_WORKDIR'])

oeprop(wfn, 'DIPOLE', 'QUADRUPOLE', 'MULLIKEN_CHARGES')

with open('psi4out.xyz', 'w') as f:
    f.write('10 ' )
    f.write('%.12f\n' % energy)
    f.write(MOL.save_string_xyz())
--------------------------------------------------------------------------
  Threads set to 1 by Python driver.

  Memory set to   3.915 GiB by Python driver.

*** tstart() called on computer06
*** at Tue Dec 12 10:56:08 2017

   => Loading Basis Set <=

    Name: CC-PVDZ
    Role: ORBITAL
    Keyword: BASIS
    atoms 1, 4 entry O          line   190 file /shared/raimis/opt/miniconda/envs/htmd/share/psi4/basis/cc-pvdz.gbs 
    atoms 2-3  entry C          line   130 file /shared/raimis/opt/miniconda/envs/htmd/share/psi4/basis/cc-pvdz.gbs 
    atoms 5-10 entry H          line    20 file /shared/raimis/opt/miniconda/envs/htmd/share/psi4/basis/cc-pvdz.gbs 


         ---------------------------------------------------------
                                   SCF
            by Justin Turney, Rob Parrish, and Andy Simmonett
                              RKS Reference
                        1 Threads,   4009 MiB Core
         ---------------------------------------------------------

  ==> Geometry <==

    Molecular point group: c1
    Full point group: C1

    Geometry (in Angstrom), charge = 0, multiplicity = 1:

       Center              X                  Y                   Z               Mass       
    ------------   -----------------  -----------------  -----------------  -----------------
           O          1.141000000000     0.017000000000     0.083000000000    15.994914619560
           C          2.558000000000     0.086000000000    -0.005000000000    12.000000000000
           C          3.192000000000    -0.789000000000     1.067000000000    12.000000000000
           O          4.591221000000    -0.904642000000     0.838579000000    15.994914619560
           H          0.789000000000     0.590000000000    -0.620000000000     1.007825032070
           H          2.874000000000     1.128000000000     0.115000000000     1.007825032070
           H          2.871000000000    -0.243000000000    -1.001000000000     1.007825032070
           H          2.743582000000    -1.787404000000     1.060083000000     1.007825032070
           H          3.026484000000    -0.356699000000     2.060277000000     1.007825032070
           H          4.943016000000    -1.470460000000     1.547787000000     1.007825032070

  Running in c1 symmetry.

  Rotational constants: A =      0.80189  B =      0.02545  C =      0.02494 [cm^-1]
  Rotational constants: A =  24039.99357  B =    763.06626  C =    747.73307 [MHz]
  Nuclear repulsion =  129.461210394455293

  Charge       = 0
  Multiplicity = 1
  Electrons    = 34
  Nalpha       = 17
  Nbeta        = 17

  ==> Algorithm <==

  SCF Algorithm Type is DF.
  DIIS enabled.
  MOM disabled.
  Fractional occupation disabled.
  Guess Type is SAD.
  Energy threshold   = 1.00e-06
  Density threshold  = 1.00e-06
  Integral threshold = 0.00e+00

  ==> Primary Basis <==

  Basis Set: CC-PVDZ
    Blend: CC-PVDZ
    Number of shells: 42
    Number of basis function: 86
    Number of Cartesian functions: 90
    Spherical Harmonics?: true
    Max angular momentum: 2

  ==> DFT Potential <==

   => B3LYP Composite Functional <= 

    B3LYP Hybrid-GGA Exchange-Correlation Functional (VWN1-RPA)

    P.J. Stephens et. al., J. Phys. Chem., 98, 11623-11627, 1994

    Points   =           5000
    Deriv    =              1
    GGA      =           TRUE
    Meta     =          FALSE

    X_LRC        =          FALSE
    X_Hybrid     =           TRUE
    X_Alpha      =   2.000000E-01
    X_Omega      =   0.000000E+00
    C_LRC        =          FALSE
    C_Hybrid     =          FALSE
    C_Alpha      =   0.000000E+00
    C_Omega      =   0.000000E+00

   => Exchange Functionals <=

    0.8000    B3_X
    0.2000      HF 

   => Correlation Functionals <=

    0.1900 VWN3RPA_C
    0.8100   LYP_C

   => Molecular Quadrature <=

    Radial Scheme    =       TREUTLER
    Pruning Scheme   =           FLAT
    Nuclear Scheme   =       TREUTLER

    BS radius alpha  =              1
    Pruning alpha    =              1
    Radial Points    =             75
    Spherical Points =            302
    Total Points     =         222556
    Total Blocks     =            213
    Max Points       =           4808
    Max Functions    =             86

   => -D3ZERO: Empirical Dispersion <=

    Grimme's -D3 (zero-damping) Dispersion Correction
    Grimme S.; Antony J.; Ehrlich S.; Krieg H. (2010), J. Chem. Phys., 132: 154104

        S6 =   1.000000E+00
        S8 =   1.703000E+00
       SR6 =   1.261000E+00
    ALPHA6 =   1.400000E+01

   => Loading Basis Set <=

    Name: (CC-PVDZ AUX)
    Role: JKFIT
    Keyword: DF_BASIS_SCF
    atoms 1, 4 entry O          line   220 file /shared/raimis/opt/miniconda/envs/htmd/share/psi4/basis/cc-pvdz-jkfit.gbs 
    atoms 2-3  entry C          line   120 file /shared/raimis/opt/miniconda/envs/htmd/share/psi4/basis/cc-pvdz-jkfit.gbs 
    atoms 5-10 entry H          line    50 file /shared/raimis/opt/miniconda/envs/htmd/share/psi4/basis/cc-pvdz-jkfit.gbs 

  ==> Pre-Iterations <==

   -------------------------------------------------------
    Irrep   Nso     Nmo     Nalpha   Nbeta   Ndocc  Nsocc
   -------------------------------------------------------
     A         86      86       0       0       0       0
   -------------------------------------------------------
    Total      86      86      17      17      17       0
   -------------------------------------------------------

  ==> Integral Setup <==

  ==> DFJK: Density-Fitted J/K Matrices <==

    J tasked:                  Yes
    K tasked:                  Yes
    wK tasked:                  No
    OpenMP threads:              1
    Integrals threads:           1
    Memory (MB):              3006
    Algorithm:                Core
    Integral Cache:           NONE
    Schwarz Cutoff:          1E-12
    Fitting Condition:       1E-12

   => Auxiliary Basis Set <=

  Basis Set: (CC-PVDZ AUX)
    Blend: CC-PVDZ-JKFIT
    Number of shells: 150
    Number of basis function: 418
    Number of Cartesian functions: 474
    Spherical Harmonics?: true
    Max angular momentum: 3

  Minimum eigenvalue in the overlap matrix is 4.9733144904E-03.
  Using Symmetric Orthogonalization.

  SCF Guess: Superposition of Atomic Densities via on-the-fly atomic UHF.

  ==> Iterations <==

                           Total Energy        Delta E     RMS |[F,P]|

   @DF-RKS iter   0:  -231.01628331683352   -2.31016e+02   4.13004e-02 
   @DF-RKS iter   1:  -230.17612026366433    8.40163e-01   5.28155e-03 
   @DF-RKS iter   2:  -230.12594429315982    5.01760e-02   7.00503e-03 DIIS
   @DF-RKS iter   3:  -230.25576250473938   -1.29818e-01   6.41818e-04 DIIS
   @DF-RKS iter   4:  -230.25690027883090   -1.13777e-03   2.00152e-04 DIIS
   @DF-RKS iter   5:  -230.25703871898997   -1.38440e-04   4.93045e-05 DIIS
   @DF-RKS iter   6:  -230.25704731834756   -8.59936e-06   4.93635e-06 DIIS
   @DF-RKS iter   7:  -230.25704738410826   -6.57607e-08   2.45875e-06 DIIS
   @DF-RKS iter   8:  -230.25704739919502   -1.50868e-08   7.44463e-07 DIIS

  ==> Post-Iterations <==

    Orbital Energies (a.u.)
    -----------------------

    Doubly Occupied:                                                      

       1A    -19.131589     2A    -19.131544     3A    -10.226290  
       4A    -10.226094     5A     -1.018805     6A     -1.008489  
       7A     -0.732359     8A     -0.603627     9A     -0.525847  
      10A     -0.482820    11A     -0.470861    12A     -0.412213  
      13A     -0.395444    14A     -0.350131    15A     -0.319318  
      16A     -0.264181    17A     -0.263129  

    Virtual:                                                              

      18A      0.042880    19A      0.058582    20A      0.108494  
      21A      0.117929    22A      0.124611    23A      0.166348  
      24A      0.189475    25A      0.241847    26A      0.244338  
      27A      0.442727    28A      0.447583    29A      0.493321  
      30A      0.536185    31A      0.545829    32A      0.595373  
      33A      0.617826    34A      0.627455    35A      0.632260  
      36A      0.647135    37A      0.656216    38A      0.687553  
      39A      0.882969    40A      0.883743    41A      0.920634  
      42A      0.963686    43A      1.009380    44A      1.054090  
      45A      1.061609    46A      1.175870    47A      1.209893  
      48A      1.214953    49A      1.268468    50A      1.304478  
      51A      1.337964    52A      1.351409    53A      1.479515  
      54A      1.569904    55A      1.600118    56A      1.602638  
      57A      1.627654    58A      1.640543    59A      1.654403  
      60A      1.708367    61A      1.759138    62A      1.767039  
      63A      1.790923    64A      1.889571    65A      1.929822  
      66A      1.970458    67A      2.048528    68A      2.052043  
      69A      2.112369    70A      2.160108    71A      2.274997  
      72A      2.281430    73A      2.406833    74A      2.422282  
      75A      2.481434    76A      2.517058    77A      2.905924  
      78A      2.963822    79A      3.004090    80A      3.025595  
      81A      3.057929    82A      3.142137    83A      3.179192  
      84A      3.209496    85A      3.676260    86A      3.704791  

    Final Occupation by Irrep:
              A 
    DOCC [    17 ]

  Energy converged.

  @DF-RKS Final Energy:  -230.25704739919502

   => Energetics <=

    Nuclear Repulsion Energy =            129.4612103944552928
    One-Electron Energy =                -570.6781604717682512
    Two-Electron Energy =                 235.5032626708086241
    DFT Exchange-Correlation Energy =     -24.5389608826906667
    Empirical Dispersion Energy =          -0.0043991100000000
    PCM Polarization Energy =               0.0000000000000000
    EFP Energy =                            0.0000000000000000
    Total Energy =                       -230.2570473991950166



Properties will be evaluated at   0.000000,   0.000000,   0.000000 Bohr

Properties computed using the SCF density matrix

  Nuclear Dipole Moment: (a.u.)
     X:   184.4464      Y:   -25.4333      Z:    31.9492

  Electronic Dipole Moment: (a.u.)
     X:  -184.4417      Y:    25.4960      Z:   -31.9015

  Dipole Moment: (a.u.)
     X:     0.0047      Y:     0.0628      Z:     0.0477     Total:     0.0790

  Dipole Moment: (Debye)
     X:     0.0120      Y:     0.1596      Z:     0.1213     Total:     0.2008


*** tstop() called on computer06 at Tue Dec 12 10:56:29 2017
Module time:
	user time   =      20.44 seconds =       0.34 minutes
	system time =       0.17 seconds =       0.00 minutes
	total time  =         21 seconds =       0.35 minutes
Total time:
	user time   =      20.44 seconds =       0.34 minutes
	system time =       0.17 seconds =       0.00 minutes
	total time  =         21 seconds =       0.35 minutes


Properties will be evaluated at   0.000000,   0.000000,   0.000000 Bohr

Properties computed using the  density matrix

  Nuclear Dipole Moment: (a.u.)
     X:   184.4464      Y:   -25.4333      Z:    31.9492

  Electronic Dipole Moment: (a.u.)
     X:  -184.4417      Y:    25.4960      Z:   -31.9015

  Dipole Moment: (a.u.)
     X:     0.0047      Y:     0.0628      Z:     0.0477     Total:     0.0790

  Dipole Moment: (Debye)
     X:     0.0120      Y:     0.1596      Z:     0.1213     Total:     0.2008

  Quadrupole Moment: (Debye Ang)
    XX:   -26.3648     YY:   -22.2294     ZZ:   -21.0356
    XY:    -3.0916     XZ:     5.2276     YZ:    -3.4341

  Traceless Quadrupole Moment: (Debye Ang)
    XX:    -3.1548     YY:     0.9806     ZZ:     2.1743
    XY:    -3.0916     XZ:     5.2276     YZ:    -3.4341

  Mulliken Charges: (a.u.)
   Center  Symbol    Alpha    Beta     Spin     Total
       1     O     4.14045  4.14045  0.00000 -0.28089
       2     C     2.93614  2.93614  0.00000  0.12773
       3     C     2.93627  2.93627  0.00000  0.12745
       4     O     4.14067  4.14067  0.00000 -0.28133
       5     H     0.42744  0.42744  0.00000  0.14512
       6     H     0.49837  0.49837  0.00000  0.00326
       7     H     0.49756  0.49756  0.00000  0.00488
       8     H     0.49744  0.49744  0.00000  0.00511
       9     H     0.49828  0.49828  0.00000  0.00344
      10     H     0.42739  0.42739  0.00000  0.14523

   Total alpha = 17.00000, Total beta = 17.00000, Total charge =  0.00000


*** Psi4 exiting successfully. Buy a developer a beer!
