    -----------------------------------------------------------------------
          Psi4: An Open-Source Ab Initio Electronic Structure Package
                              Psi4 (no tag) Driver

                          Git: Rev {detached?}  

    J. M. Turney, A. C. Simmonett, R. M. Parrish, E. G. Hohenstein,
    F. A. Evangelista, J. T. Fermann, B. J. Mintz, L. A. Burns, J. J. Wilke,
    M. L. Abrams, N. J. Russ, M. L. Leininger, C. L. Janssen, E. T. Seidl,
    W. D. Allen, H. F. Schaefer, R. A. King, E. F. Valeev, C. D. Sherrill,
    and T. D. Crawford, WIREs Comput. Mol. Sci. 2, 556-565 (2012)
    (doi: 10.1002/wcms.93)

                         Additional Contributions by
    A. E. DePrince, M. Saitow, U. Bozkaya, A. Yu. Sokolov
    -----------------------------------------------------------------------


    Psi4 started on: Tue Jul  5 16:26:58 2016

    Process ID:  20303
    PSI4DATADIR: /export131/home/mjharvey/miniconda3/share
    Memory level set to 256.000 MB

  ==> Input File <==

--------------------------------------------------------------------------
set {
	reference rhf
	basis 6-31G*
}


set_num_threads( 1 )
memory 2 gb

molecule MOL {
0 1

H	 -2.273092	 1.173159	 0.000295
O	 -1.438904	 1.618192	 0.000114
C	 -0.409536	 0.736003	 0.000030
C	 -0.077255	 0.168211	 1.220031
C	 0.289320	 0.405915	 -1.159100
H	 -0.641952	 0.450594	 2.089150
C	 0.961339	 -0.739980	 1.297613
C	 1.328807	 -0.509999	 -1.051602
C	 -0.074671	 1.026627	 -2.489226
H	 1.214150	 -1.176936	 2.247166
C	 1.671922	 -1.084956	 0.159175
H	 1.878542	 -0.775532	 -1.937959
H	 0.029398	 2.109633	 -2.474763
H	 0.571356	 0.654898	 -3.274365
H	 -1.097499	 0.795419	 -2.779680
H	 2.480900	 -1.790613	 0.212106

	symmetry c1
}
ee = energy('scf')
oeprop('DIPOLE', 'QUADRUPOLE', 'MULLIKEN_CHARGES')
f=open( 'psi4out.xyz', 'w' )
f.write( "16  " )
f.write( str(ee) + "\n" )
f.write( MOL.save_string_xyz() )
f.close()
--------------------------------------------------------------------------

  Memory set to   2.000 GiB by Python script.

*** tstart() called on cx1-3-15-2.cx1.hpc.ic.ac.uk
*** at Tue Jul  5 16:26:59 2016


         ---------------------------------------------------------
                                   SCF
            by Justin Turney, Rob Parrish, and Andy Simmonett
                              RHF Reference
                        1 Threads,   2000 MiB Core
         ---------------------------------------------------------

  ==> Geometry <==

    Molecular point group: c1
    Full point group: C1

    Geometry (in Angstrom), charge = 0, multiplicity = 1:

       Center              X                  Y                   Z               Mass       
    ------------   -----------------  -----------------  -----------------  -----------------
           H         -2.490038360269     0.919992065495     0.280141186963     1.007825032070
           O         -1.655850360269     1.365025065495     0.279960186963    15.994914619560
           C         -0.626482360269     0.482836065495     0.279876186963    12.000000000000
           C         -0.294201360269    -0.084955934505     1.499877186963    12.000000000000
           C          0.072373639731     0.152748065495    -0.879253813037    12.000000000000
           H         -0.858898360269     0.197427065495     2.368996186963     1.007825032070
           C          0.744392639731    -0.993146934505     1.577459186963    12.000000000000
           C          1.111860639731    -0.763165934505    -0.771755813037    12.000000000000
           C         -0.291617360269     0.773460065495    -2.209379813037    12.000000000000
           H          0.997203639731    -1.430102934505     2.527012186963     1.007825032070
           C          1.454975639731    -1.338122934505     0.439021186963    12.000000000000
           H          1.661595639731    -1.028698934505    -1.658112813037     1.007825032070
           H         -0.187548360269     1.856466065495    -2.194916813037     1.007825032070
           H          0.354409639731     0.401731065495    -2.994518813037     1.007825032070
           H         -1.314445360269     0.542252065495    -2.499833813037     1.007825032070
           H          2.263953639731    -2.043779934505     0.491952186963     1.007825032070

  Running in c1 symmetry.

  Rotational constants: A =      0.10726  B =      0.07496  C =      0.04466 [cm^-1]
  Rotational constants: A =   3215.45030  B =   2247.22579  C =   1338.75353 [MHz]
  Nuclear repulsion =  349.644369593671911

  Charge       = 0
  Multiplicity = 1
  Electrons    = 58
  Nalpha       = 29
  Nbeta        = 29

  ==> Algorithm <==

  SCF Algorithm Type is DF.
  DIIS enabled.
  MOM disabled.
  Fractional occupation disabled.
  Guess Type is CORE.
  Energy threshold   = 1.00e-06
  Density threshold  = 1.00e-06
  Integral threshold = 0.00e+00

  ==> Primary Basis <==

  Basis Set: 6-31G*
    Number of shells: 64
    Number of basis function: 136
    Number of Cartesian functions: 136
    Spherical Harmonics?: false
    Max angular momentum: 2

  ==> Pre-Iterations <==

   -------------------------------------------------------
    Irrep   Nso     Nmo     Nalpha   Nbeta   Ndocc  Nsocc
   -------------------------------------------------------
     A        136     136       0       0       0       0
   -------------------------------------------------------
    Total     136     136      29      29      29       0
   -------------------------------------------------------

 OEINTS: Overlap, kinetic, potential, dipole, and quadrupole integrals
         stored in file 35.

  ==> Integral Setup <==

  ==> DFJK: Density-Fitted J/K Matrices <==

    J tasked:                  Yes
    K tasked:                  Yes
    wK tasked:                  No
    OpenMP threads:              1
    Integrals threads:           1
    Memory (MB):              1430
    Algorithm:                Core
    Integral Cache:           NONE
    Schwarz Cutoff:          1E-12
    Fitting Condition:       1E-12

   => Auxiliary Basis Set <=

  Basis Set: 
    Number of shells: 264
    Number of basis function: 848
    Number of Cartesian functions: 848
    Spherical Harmonics?: false
    Max angular momentum: 3

  Minimum eigenvalue in the overlap matrix is 3.9252359052E-04.
  Using Symmetric Orthogonalization.
  SCF Guess: Core (One-Electron) Hamiltonian.

  ==> Iterations <==

                           Total Energy        Delta E     RMS |[F,P]|

   @DF-RHF iter   1:  -269.54721333765605   -2.69547e+02   6.77378e-02 
   @DF-RHF iter   2:  -243.71854803045125    2.58287e+01   5.44136e-02 DIIS
   @DF-RHF iter   3:  -288.27203984883607   -4.45535e+01   5.35387e-02 DIIS
   @DF-RHF iter   4:  -335.30968629111823   -4.70376e+01   2.93561e-02 DIIS
   @DF-RHF iter   5:  -343.62861187348250   -8.31893e+00   9.10183e-03 DIIS
   @DF-RHF iter   6:  -344.51309010770120   -8.84478e-01   2.75950e-03 DIIS
   @DF-RHF iter   7:  -344.58205328069647   -6.89632e-02   7.29213e-04 DIIS
   @DF-RHF iter   8:  -344.58770395193818   -5.65067e-03   3.38621e-04 DIIS
   @DF-RHF iter   9:  -344.58921538921203   -1.51144e-03   1.15175e-04 DIIS
   @DF-RHF iter  10:  -344.58948908362339   -2.73694e-04   3.88708e-05 DIIS
   @DF-RHF iter  11:  -344.58954403225124   -5.49486e-05   2.09474e-05 DIIS
   @DF-RHF iter  12:  -344.58956323651950   -1.92043e-05   9.76038e-06 DIIS
   @DF-RHF iter  13:  -344.58956849038049   -5.25386e-06   2.67196e-06 DIIS
   @DF-RHF iter  14:  -344.58956880249133   -3.12111e-07   8.63647e-07 DIIS

  ==> Post-Iterations <==

    Orbital Energies (a.u.)
    -----------------------

    Doubly Occupied:                                                      

       1A    -20.575243     2A    -11.282957     3A    -11.234644  
       4A    -11.228262     5A    -11.227999     6A    -11.224411  
       7A    -11.222193     8A    -11.218641     9A     -1.397278  
      10A     -1.147521    11A     -1.042908    12A     -1.002257  
      13A     -0.930511    14A     -0.830193    15A     -0.805830  
      16A     -0.728675    17A     -0.666146    18A     -0.654748  
      19A     -0.621822    20A     -0.590571    21A     -0.570513  
      22A     -0.564077    23A     -0.541620    24A     -0.516809  
      25A     -0.500751    26A     -0.480854    27A     -0.458970  
      28A     -0.328404    29A     -0.315899  

    Virtual:                                                              

      30A      0.149474    31A      0.153532    32A      0.225635  
      33A      0.247012    34A      0.272845    35A      0.296193  
      36A      0.323938    37A      0.325432    38A      0.331727  
      39A      0.351210    40A      0.400042    41A      0.416156  
      42A      0.458683    43A      0.483635    44A      0.514898  
      45A      0.561521    46A      0.565264    47A      0.709216  
      48A      0.725107    49A      0.739362    50A      0.743624  
      51A      0.752083    52A      0.775689    53A      0.823326  
      54A      0.833792    55A      0.840910    56A      0.847434  
      57A      0.851999    58A      0.883400    59A      0.890973  
      60A      0.921049    61A      0.941827    62A      0.961433  
      63A      1.021262    64A      1.043485    65A      1.061413  
      66A      1.111531    67A      1.116999    68A      1.126469  
      69A      1.143944    70A      1.166093    71A      1.186824  
      72A      1.196135    73A      1.210513    74A      1.223780  
      75A      1.244197    76A      1.283415    77A      1.298848  
      78A      1.326224    79A      1.375279    80A      1.402808  
      81A      1.432468    82A      1.444870    83A      1.508980  
      84A      1.510523    85A      1.615099    86A      1.639516  
      87A      1.662179    88A      1.725386    89A      1.738781  
      90A      1.762728    91A      1.786259    92A      1.794947  
      93A      1.949980    94A      2.041113    95A      2.078694  
      96A      2.108992    97A      2.141579    98A      2.160924  
      99A      2.203398   100A      2.225415   101A      2.252802  
     102A      2.286948   103A      2.314254   104A      2.335235  
     105A      2.432639   106A      2.445109   107A      2.485685  
     108A      2.511245   109A      2.570721   110A      2.617166  
     111A      2.640239   112A      2.655040   113A      2.663400  
     114A      2.672716   115A      2.698330   116A      2.791420  
     117A      2.905261   118A      2.937818   119A      2.960249  
     120A      3.032819   121A      3.088817   122A      3.107381  
     123A      3.140949   124A      3.171004   125A      3.248810  
     126A      3.365613   127A      3.549789   128A      3.839740  
     129A      4.348570   130A      4.534710   131A      4.552637  
     132A      4.613784   133A      4.721807   134A      4.829956  
     135A      4.856503   136A      5.193853  

    Final Occupation by Irrep:
              A 
    DOCC [    29 ]

  Energy converged.

  @DF-RHF Final Energy:  -344.58956880249133

   => Energetics <=

    Nuclear Repulsion Energy =            349.6443695936719109
    One-Electron Energy =               -1160.6465029457531273
    Two-Electron Energy =                 466.4125645495899448
    DFT Exchange-Correlation Energy =       0.0000000000000000
    Empirical Dispersion Energy =           0.0000000000000000
    PCM Polarization Energy =               0.0000000000000000
    EFP Energy =                            0.0000000000000000
    Total Energy =                       -344.5895688024913284

    Alert: EFP and PCM quantities not currently incorporated into SCF psivars.

Properties will be evaluated at   0.000000,   0.000000,   0.000000 Bohr
  ==> Properties <==


Properties computed using the SCF density matrix

  Nuclear Dipole Moment: (a.u.)
     X:     0.3916      Y:    -0.5416      Z:    -3.4479

  Electronic Dipole Moment: (a.u.)
     X:    -0.6898      Y:     0.0017      Z:     3.3534

  Dipole Moment: (a.u.)
     X:    -0.2982      Y:    -0.5399      Z:    -0.0945     Total:     0.6239

  Dipole Moment: (Debye)
     X:    -0.7580      Y:    -1.3722      Z:    -0.2402     Total:     1.5859


  Saving occupied orbitals to File 180.

*** tstop() called on cx1-3-15-2.cx1.hpc.ic.ac.uk at Tue Jul  5 16:27:12 2016
Module time:
	user time   =      12.97 seconds =       0.22 minutes
	system time =       0.08 seconds =       0.00 minutes
	total time  =         13 seconds =       0.22 minutes
Total time:
	user time   =      12.97 seconds =       0.22 minutes
	system time =       0.08 seconds =       0.00 minutes
	total time  =         13 seconds =       0.22 minutes


Properties will be evaluated at   0.000000,   0.000000,   0.000000 Bohr

Properties computed using the  density matrix

  Nuclear Dipole Moment: (a.u.)
     X:     0.3916      Y:    -0.5416      Z:    -3.4479

  Electronic Dipole Moment: (a.u.)
     X:    -0.6898      Y:     0.0017      Z:     3.3534

  Dipole Moment: (a.u.)
     X:    -0.2982      Y:    -0.5399      Z:    -0.0945     Total:     0.6239

  Dipole Moment: (Debye)
     X:    -0.7580      Y:    -1.3722      Z:    -0.2402     Total:     1.5859

  Quadrupole Moment: (Debye Ang)
    XX:   -41.9365     YY:   -51.3910     ZZ:   -43.4173
    XY:    -1.2147     XZ:    -1.1256     YZ:    -1.5673

  Traceless Quadrupole Moment: (Debye Ang)
    XX:     3.6451     YY:    -5.8094     ZZ:     2.1643
    XY:    -1.2147     XZ:    -1.1256     YZ:    -1.5673

  Mulliken Charges: (a.u.)
   Center  Symbol    Alpha    Beta     Spin     Total
       1     H     0.27056  0.27056  0.00000  0.45887
       2     O     4.38731  4.38731  0.00000 -0.77463
       3     C     2.83059  2.83059  0.00000  0.33881
       4     C     3.11643  3.11643  0.00000 -0.23286
       5     C     3.00198  3.00198  0.00000 -0.00396
       6     H     0.39634  0.39634  0.00000  0.20732
       7     C     3.10143  3.10143  0.00000 -0.20286
       8     C     3.11264  3.11264  0.00000 -0.22527
       9     C     3.24309  3.24309  0.00000 -0.48618
      10     H     0.40029  0.40029  0.00000  0.19942
      11     C     3.10094  3.10094  0.00000 -0.20188
      12     H     0.40106  0.40106  0.00000  0.19788
      13     H     0.40564  0.40564  0.00000  0.18871
      14     H     0.41600  0.41600  0.00000  0.16801
      15     H     0.41600  0.41600  0.00000  0.16800
      16     H     0.39969  0.39969  0.00000  0.20062

   Total alpha = 29.00000, Total beta = 29.00000, Total charge =  0.00000


*** PSI4 exiting successfully. Buy a developer a beer!
