    -----------------------------------------------------------------------
          Psi4: An Open-Source Ab Initio Electronic Structure Package
                              Psi4 (no tag) Driver

                          Git: Rev {detached?}  

    J. M. Turney, A. C. Simmonett, R. M. Parrish, E. G. Hohenstein,
    F. A. Evangelista, J. T. Fermann, B. J. Mintz, L. A. Burns, J. J. Wilke,
    M. L. Abrams, N. J. Russ, M. L. Leininger, C. L. Janssen, E. T. Seidl,
    W. D. Allen, H. F. Schaefer, R. A. King, E. F. Valeev, C. D. Sherrill,
    and T. D. Crawford, WIREs Comput. Mol. Sci. 2, 556-565 (2012)
    (doi: 10.1002/wcms.93)

                         Additional Contributions by
    A. E. DePrince, M. Saitow, U. Bozkaya, A. Yu. Sokolov
    -----------------------------------------------------------------------


    Psi4 started on: Tue Jul  5 16:37:31 2016

    Process ID:  22804
    PSI4DATADIR: /export131/home/mjharvey/miniconda3/share
    Memory level set to 256.000 MB

  ==> Input File <==

--------------------------------------------------------------------------
set {
	reference rhf
	basis 6-31G*
}


set_num_threads( 1 )
memory 2 gb

molecule MOL {
0 1

H	 -2.698709	 -0.000305	 0.034435
C	 -1.693833	 0.000034	 0.434417
O	 -0.828952	 -0.000968	 -0.659236
H	 -1.574200	 0.882896	 1.055746
H	 -1.574147	 -0.881698	 1.057355
C	 0.559449	 -0.000018	 -0.420814
C	 1.350706	 0.615680	 -1.573093
C	 0.921453	 0.618737	 0.927909
H	 0.802663	 -1.055019	 -0.377779
H	 1.032367	 0.189156	 -2.518231
H	 2.409369	 0.411873	 -1.446872
H	 1.230079	 1.693139	 -1.625003
H	 0.305538	 0.194894	 1.713697
H	 1.961401	 0.414293	 1.162808
H	 0.791708	 1.696221	 0.933871

	symmetry c1
}
set optking {
	frozen_dihedral = ("
		6 3 2 1
	")
}

ee = energy('scf')
oeprop('DIPOLE', 'QUADRUPOLE', 'MULLIKEN_CHARGES')
f=open( 'psi4out.xyz', 'w' )
f.write( "15  " )
f.write( str(ee) + "\n" )
f.write( MOL.save_string_xyz() )
f.close()
--------------------------------------------------------------------------

  Memory set to   2.000 GiB by Python script.

*** tstart() called on cx1-3-4-2.cx1.hpc.ic.ac.uk
*** at Tue Jul  5 16:37:32 2016


         ---------------------------------------------------------
                                   SCF
            by Justin Turney, Rob Parrish, and Andy Simmonett
                              RHF Reference
                        1 Threads,   2000 MiB Core
         ---------------------------------------------------------

  ==> Geometry <==

    Molecular point group: c1
    Full point group: C1

    Geometry (in Angstrom), charge = 0, multiplicity = 1:

       Center              X                  Y                   Z               Mass       
    ------------   -----------------  -----------------  -----------------  -----------------
           H         -2.740578023888    -0.248315277371     0.279239533299     1.007825032070
           C         -1.735702023888    -0.247976277371     0.679221533299    12.000000000000
           O         -0.870821023888    -0.248978277371    -0.414431466701    15.994914619560
           H         -1.616069023888     0.634885722629     1.300550533299     1.007825032070
           H         -1.616016023888    -1.129708277371     1.302159533299     1.007825032070
           C          0.517579976112    -0.248028277371    -0.176009466701    12.000000000000
           C          1.308836976112     0.367669722629    -1.328288466701    12.000000000000
           C          0.879583976112     0.370726722629     1.172713533299    12.000000000000
           H          0.760793976112    -1.303029277371    -0.132974466701     1.007825032070
           H          0.990497976112    -0.058854277371    -2.273426466701     1.007825032070
           H          2.367499976112     0.163862722629    -1.202067466701     1.007825032070
           H          1.188209976112     1.445128722629    -1.380198466701     1.007825032070
           H          0.263668976112    -0.053116277371     1.958501533299     1.007825032070
           H          1.919531976112     0.166282722629     1.407612533299     1.007825032070
           H          0.749838976112     1.448210722629     1.178675533299     1.007825032070

  Running in c1 symmetry.

  Rotational constants: A =      0.26566  B =      0.12805  C =      0.09494 [cm^-1]
  Rotational constants: A =   7964.20573  B =   3838.81878  C =   2846.11313 [MHz]
  Nuclear repulsion =  197.819796992375842

  Charge       = 0
  Multiplicity = 1
  Electrons    = 42
  Nalpha       = 21
  Nbeta        = 21

  ==> Algorithm <==

  SCF Algorithm Type is DF.
  DIIS enabled.
  MOM disabled.
  Fractional occupation disabled.
  Guess Type is CORE.
  Energy threshold   = 1.00e-06
  Density threshold  = 1.00e-06
  Integral threshold = 0.00e+00

  ==> Primary Basis <==

  Basis Set: 6-31G*
    Number of shells: 50
    Number of basis function: 95
    Number of Cartesian functions: 95
    Spherical Harmonics?: false
    Max angular momentum: 2

  ==> Pre-Iterations <==

   -------------------------------------------------------
    Irrep   Nso     Nmo     Nalpha   Nbeta   Ndocc  Nsocc
   -------------------------------------------------------
     A         95      95       0       0       0       0
   -------------------------------------------------------
    Total      95      95      21      21      21       0
   -------------------------------------------------------

 OEINTS: Overlap, kinetic, potential, dipole, and quadrupole integrals
         stored in file 35.

  ==> Integral Setup <==

  ==> DFJK: Density-Fitted J/K Matrices <==

    J tasked:                  Yes
    K tasked:                  Yes
    wK tasked:                  No
    OpenMP threads:              1
    Integrals threads:           1
    Memory (MB):              1430
    Algorithm:                Core
    Integral Cache:           NONE
    Schwarz Cutoff:          1E-12
    Fitting Condition:       1E-12

   => Auxiliary Basis Set <=

  Basis Set: 
    Number of shells: 210
    Number of basis function: 655
    Number of Cartesian functions: 655
    Spherical Harmonics?: false
    Max angular momentum: 3

  Minimum eigenvalue in the overlap matrix is 3.8868215600E-03.
  Using Symmetric Orthogonalization.
  SCF Guess: Core (One-Electron) Hamiltonian.

  ==> Iterations <==

                           Total Energy        Delta E     RMS |[F,P]|

   @DF-RHF iter   1:  -178.88297377619554   -1.78883e+02   8.07459e-02 
   @DF-RHF iter   2:  -173.25852127710206    5.62445e+00   6.27022e-02 DIIS
   @DF-RHF iter   3:  -204.39273721163059   -3.11342e+01   4.99047e-02 DIIS
   @DF-RHF iter   4:  -218.79194706462491   -1.43992e+01   4.60638e-02 DIIS
   @DF-RHF iter   5:  -232.01959593975559   -1.32276e+01   4.68304e-03 DIIS
   @DF-RHF iter   6:  -232.11178839822199   -9.21925e-02   1.92318e-03 DIIS
   @DF-RHF iter   7:  -232.12853346667615   -1.67451e-02   6.84085e-04 DIIS
   @DF-RHF iter   8:  -232.13076989456957   -2.23643e-03   2.01748e-04 DIIS
   @DF-RHF iter   9:  -232.13101153740254   -2.41643e-04   6.95315e-05 DIIS
   @DF-RHF iter  10:  -232.13103967294225   -2.81355e-05   2.27175e-05 DIIS
   @DF-RHF iter  11:  -232.13104390615925   -4.23322e-06   6.73055e-06 DIIS
   @DF-RHF iter  12:  -232.13104423449889   -3.28340e-07   1.15371e-06 DIIS
   @DF-RHF iter  13:  -232.13104424786385   -1.33650e-08   2.15772e-07 DIIS

  ==> Post-Iterations <==

    Orbital Energies (a.u.)
    -----------------------

    Doubly Occupied:                                                      

       1A    -20.546233     2A    -11.274206     3A    -11.262599  
       4A    -11.212761     5A    -11.210121     6A     -1.369788  
       7A     -1.050786     8A     -0.950819     9A     -0.917980  
      10A     -0.784993    11A     -0.673948    12A     -0.645900  
      13A     -0.629439    14A     -0.592529    15A     -0.546709  
      16A     -0.541047    17A     -0.530129    18A     -0.508940  
      19A     -0.499123    20A     -0.444592    21A     -0.400106  

    Virtual:                                                              

      22A      0.230139    23A      0.266186    24A      0.287408  
      25A      0.293098    26A      0.318216    27A      0.320099  
      28A      0.330922    29A      0.334612    30A      0.348862  
      31A      0.354125    32A      0.369561    33A      0.416454  
      34A      0.444765    35A      0.468368    36A      0.704714  
      37A      0.726236    38A      0.765720    39A      0.769596  
      40A      0.798748    41A      0.812868    42A      0.841855  
      43A      0.905896    44A      0.949919    45A      0.969523  
      46A      0.995396    47A      1.072090    48A      1.120644  
      49A      1.139810    50A      1.153849    51A      1.171146  
      52A      1.178043    53A      1.185768    54A      1.202711  
      55A      1.211472    56A      1.235833    57A      1.244967  
      58A      1.284472    59A      1.331410    60A      1.407098  
      61A      1.473755    62A      1.602292    63A      1.624668  
      64A      1.665652    65A      1.703495    66A      1.771454  
      67A      1.871536    68A      1.962768    69A      2.055745  
      70A      2.078538    71A      2.140185    72A      2.218296  
      73A      2.309568    74A      2.331196    75A      2.398249  
      76A      2.456800    77A      2.467263    78A      2.526642  
      79A      2.567490    80A      2.574418    81A      2.605452  
      82A      2.616405    83A      2.703023    84A      2.737633  
      85A      2.841155    86A      2.909585    87A      2.958846  
      88A      3.046945    89A      3.258119    90A      3.327144  
      91A      4.407899    92A      4.612568    93A      4.680560  
      94A      4.725205    95A      4.964563  

    Final Occupation by Irrep:
              A 
    DOCC [    21 ]

  Energy converged.

  @DF-RHF Final Energy:  -232.13104424786385

   => Energetics <=

    Nuclear Repulsion Energy =            197.8197969923758421
    One-Electron Energy =                -706.7162040703166213
    Two-Electron Energy =                 276.7653628300768105
    DFT Exchange-Correlation Energy =       0.0000000000000000
    Empirical Dispersion Energy =           0.0000000000000000
    PCM Polarization Energy =               0.0000000000000000
    EFP Energy =                            0.0000000000000000
    Total Energy =                       -232.1310442478639970

    Alert: EFP and PCM quantities not currently incorporated into SCF psivars.

Properties will be evaluated at   0.000000,   0.000000,   0.000000 Bohr
  ==> Properties <==


Properties computed using the SCF density matrix

  Nuclear Dipole Moment: (a.u.)
     X:     2.1214      Y:     0.9975      Z:     2.2836

  Electronic Dipole Moment: (a.u.)
     X:    -1.9008      Y:    -0.9560      Z:    -1.7639

  Dipole Moment: (a.u.)
     X:     0.2206      Y:     0.0415      Z:     0.5197     Total:     0.5661

  Dipole Moment: (Debye)
     X:     0.5607      Y:     0.1056      Z:     1.3210     Total:     1.4390


  Saving occupied orbitals to File 180.

*** tstop() called on cx1-3-4-2.cx1.hpc.ic.ac.uk at Tue Jul  5 16:37:41 2016
Module time:
	user time   =       8.36 seconds =       0.14 minutes
	system time =       0.05 seconds =       0.00 minutes
	total time  =          9 seconds =       0.15 minutes
Total time:
	user time   =       8.36 seconds =       0.14 minutes
	system time =       0.05 seconds =       0.00 minutes
	total time  =          9 seconds =       0.15 minutes


Properties will be evaluated at   0.000000,   0.000000,   0.000000 Bohr

Properties computed using the  density matrix

  Nuclear Dipole Moment: (a.u.)
     X:     2.1214      Y:     0.9975      Z:     2.2836

  Electronic Dipole Moment: (a.u.)
     X:    -1.9008      Y:    -0.9560      Z:    -1.7639

  Dipole Moment: (a.u.)
     X:     0.2206      Y:     0.0415      Z:     0.5197     Total:     0.5661

  Dipole Moment: (Debye)
     X:     0.5607      Y:     0.1056      Z:     1.3210     Total:     1.4390

  Quadrupole Moment: (Debye Ang)
    XX:   -31.4853     YY:   -33.3471     ZZ:   -33.5702
    XY:    -0.1582     XZ:    -2.2670     YZ:    -0.3559

  Traceless Quadrupole Moment: (Debye Ang)
    XX:     1.3156     YY:    -0.5462     ZZ:    -0.7694
    XY:    -0.1582     XZ:    -2.2670     YZ:    -0.3559

  Mulliken Charges: (a.u.)
   Center  Symbol    Alpha    Beta     Spin     Total
       1     H     0.41146  0.41146  0.00000  0.17707
       2     C     3.08303  3.08303  0.00000 -0.16606
       3     O     4.31840  4.31840  0.00000 -0.63680
       4     H     0.42568  0.42568  0.00000  0.14864
       5     H     0.43088  0.43088  0.00000  0.13825
       6     C     2.89457  2.89457  0.00000  0.21087
       7     C     3.24492  3.24492  0.00000 -0.48985
       8     C     3.26494  3.26494  0.00000 -0.52988
       9     H     0.42946  0.42946  0.00000  0.14108
      10     H     0.41027  0.41027  0.00000  0.17945
      11     H     0.42118  0.42118  0.00000  0.15764
      12     H     0.41843  0.41843  0.00000  0.16314
      13     H     0.41413  0.41413  0.00000  0.17174
      14     H     0.41593  0.41593  0.00000  0.16815
      15     H     0.41672  0.41672  0.00000  0.16657

   Total alpha = 21.00000, Total beta = 21.00000, Total charge =  0.00000


*** PSI4 exiting successfully. Buy a developer a beer!
