    -----------------------------------------------------------------------
          Psi4: An Open-Source Ab Initio Electronic Structure Package
                              Psi4 (no tag) Driver

                          Git: Rev {detached?}  

    J. M. Turney, A. C. Simmonett, R. M. Parrish, E. G. Hohenstein,
    F. A. Evangelista, J. T. Fermann, B. J. Mintz, L. A. Burns, J. J. Wilke,
    M. L. Abrams, N. J. Russ, M. L. Leininger, C. L. Janssen, E. T. Seidl,
    W. D. Allen, H. F. Schaefer, R. A. King, E. F. Valeev, C. D. Sherrill,
    and T. D. Crawford, WIREs Comput. Mol. Sci. 2, 556-565 (2012)
    (doi: 10.1002/wcms.93)

                         Additional Contributions by
    A. E. DePrince, M. Saitow, U. Bozkaya, A. Yu. Sokolov
    -----------------------------------------------------------------------


    Psi4 started on: Tue Jul  5 16:25:32 2016

    Process ID:  13016
    PSI4DATADIR: /export131/home/mjharvey/miniconda3/share
    Memory level set to 256.000 MB

  ==> Input File <==

--------------------------------------------------------------------------
set {
	reference rhf
	basis 6-31G*
}


set_num_threads( 1 )
memory 2 gb

molecule MOL {
0 1

H	 -2.332866	 -0.526655	 0.057417
O	 -1.422729	 -0.573567	 -0.196946
C	 -0.731407	 0.539437	 0.309156
C	 0.680193	 0.672443	 -0.251532
H	 -1.319765	 1.404033	 0.030086
H	 -0.700012	 0.506517	 1.397677
C	 0.752091	 0.528005	 -1.771951
H	 1.079875	 1.638374	 0.043217
H	 1.304879	 -0.086399	 0.214801
H	 0.196828	 1.315991	 -2.271908
H	 1.777501	 0.588093	 -2.121077
H	 0.349335	 -0.428032	 -2.097594

	symmetry c1
}
set optking {
	frozen_dihedral = ("
		8 4 3 2
	")
}

ee = energy('scf')
oeprop('DIPOLE', 'QUADRUPOLE', 'MULLIKEN_CHARGES')
f=open( 'psi4out.xyz', 'w' )
f.write( "12  " )
f.write( str(ee) + "\n" )
f.write( MOL.save_string_xyz() )
f.close()
--------------------------------------------------------------------------

  Memory set to   2.000 GiB by Python script.

*** tstart() called on cx1-1-3-4.cx1.hpc.ic.ac.uk
*** at Tue Jul  5 16:25:33 2016


         ---------------------------------------------------------
                                   SCF
            by Justin Turney, Rob Parrish, and Andy Simmonett
                              RHF Reference
                        1 Threads,   2000 MiB Core
         ---------------------------------------------------------

  ==> Geometry <==

    Molecular point group: c1
    Full point group: C1

    Geometry (in Angstrom), charge = 0, multiplicity = 1:

       Center              X                  Y                   Z               Mass       
    ------------   -----------------  -----------------  -----------------  -----------------
           H         -2.099966820608    -0.795579051734     0.532071802518     1.007825032070
           O         -1.189829820608    -0.842491051734     0.277708802518    15.994914619560
           C         -0.498507820608     0.270512948266     0.783810802518    12.000000000000
           C          0.913092179392     0.403518948266     0.223122802518    12.000000000000
           H         -1.086865820608     1.135108948266     0.504740802518     1.007825032070
           H         -0.467112820608     0.237592948266     1.872331802518     1.007825032070
           C          0.984990179392     0.259080948266    -1.297296197482    12.000000000000
           H          1.312774179392     1.369449948266     0.517871802518     1.007825032070
           H          1.537778179392    -0.355323051734     0.689455802518     1.007825032070
           H          0.429727179392     1.047066948266    -1.797253197482     1.007825032070
           H          2.010400179392     0.319168948266    -1.646422197482     1.007825032070
           H          0.582234179392    -0.696956051734    -1.622939197482     1.007825032070

  Running in c1 symmetry.

  Rotational constants: A =      0.47456  B =      0.17429  C =      0.14216 [cm^-1]
  Rotational constants: A =  14227.01611  B =   5225.22625  C =   4261.75716 [MHz]
  Nuclear repulsion =  132.988223917875416

  Charge       = 0
  Multiplicity = 1
  Electrons    = 34
  Nalpha       = 17
  Nbeta        = 17

  ==> Algorithm <==

  SCF Algorithm Type is DF.
  DIIS enabled.
  MOM disabled.
  Fractional occupation disabled.
  Guess Type is CORE.
  Energy threshold   = 1.00e-06
  Density threshold  = 1.00e-06
  Integral threshold = 0.00e+00

  ==> Primary Basis <==

  Basis Set: 6-31G*
    Number of shells: 40
    Number of basis function: 76
    Number of Cartesian functions: 76
    Spherical Harmonics?: false
    Max angular momentum: 2

  ==> Pre-Iterations <==

   -------------------------------------------------------
    Irrep   Nso     Nmo     Nalpha   Nbeta   Ndocc  Nsocc
   -------------------------------------------------------
     A         76      76       0       0       0       0
   -------------------------------------------------------
    Total      76      76      17      17      17       0
   -------------------------------------------------------

 OEINTS: Overlap, kinetic, potential, dipole, and quadrupole integrals
         stored in file 35.

  ==> Integral Setup <==

  ==> DFJK: Density-Fitted J/K Matrices <==

    J tasked:                  Yes
    K tasked:                  Yes
    wK tasked:                  No
    OpenMP threads:              1
    Integrals threads:           1
    Memory (MB):              1430
    Algorithm:                Core
    Integral Cache:           NONE
    Schwarz Cutoff:          1E-12
    Fitting Condition:       1E-12

   => Auxiliary Basis Set <=

  Basis Set: 
    Number of shells: 168
    Number of basis function: 524
    Number of Cartesian functions: 524
    Spherical Harmonics?: false
    Max angular momentum: 3

  Minimum eigenvalue in the overlap matrix is 4.9434014384E-03.
  Using Symmetric Orthogonalization.
  SCF Guess: Core (One-Electron) Hamiltonian.

  ==> Iterations <==

                           Total Energy        Delta E     RMS |[F,P]|

   @DF-RHF iter   1:  -155.96801396683725   -1.55968e+02   8.73040e-02 
   @DF-RHF iter   2:  -122.57402024193337    3.33940e+01   7.91103e-02 DIIS
   @DF-RHF iter   3:  -164.28223958421859   -4.17082e+01   6.57361e-02 DIIS
   @DF-RHF iter   4:  -192.24230825985467   -2.79601e+01   1.72781e-02 DIIS
   @DF-RHF iter   5:  -193.07258013658679   -8.30272e-01   3.33443e-03 DIIS
   @DF-RHF iter   6:  -193.10475012903902   -3.21700e-02   9.23585e-04 DIIS
   @DF-RHF iter   7:  -193.10734208035501   -2.59195e-03   3.11607e-04 DIIS
   @DF-RHF iter   8:  -193.10769907864591   -3.56998e-04   1.01473e-04 DIIS
   @DF-RHF iter   9:  -193.10774434548546   -4.52668e-05   3.46283e-05 DIIS
   @DF-RHF iter  10:  -193.10774868159729   -4.33611e-06   1.07336e-05 DIIS
   @DF-RHF iter  11:  -193.10774926239549   -5.80798e-07   2.73173e-06 DIIS
   @DF-RHF iter  12:  -193.10774931082426   -4.84288e-08   6.98491e-07 DIIS

  ==> Post-Iterations <==

    Orbital Energies (a.u.)
    -----------------------

    Doubly Occupied:                                                      

       1A    -20.551119     2A    -11.267990     3A    -11.217794  
       4A    -11.203032     5A     -1.359052     6A     -1.045695  
       7A     -0.918029     8A     -0.798582     9A     -0.701622  
      10A     -0.643855    11A     -0.585224    12A     -0.583612  
      13A     -0.532503    14A     -0.496873    15A     -0.485471  
      16A     -0.461253    17A     -0.429994  

    Virtual:                                                              

      18A      0.219592    19A      0.263752    20A      0.294006  
      21A      0.298349    22A      0.324059    23A      0.329778  
      24A      0.350178    25A      0.362666    26A      0.399326  
      27A      0.417672    28A      0.450597    29A      0.724050  
      30A      0.734611    31A      0.764212    32A      0.785036  
      33A      0.824311    34A      0.912764    35A      0.938355  
      36A      0.984939    37A      1.052002    38A      1.105345  
      39A      1.130634    40A      1.150971    41A      1.165974  
      42A      1.197202    43A      1.210049    44A      1.225337  
      45A      1.239524    46A      1.252964    47A      1.298058  
      48A      1.318084    49A      1.467029    50A      1.570724  
      51A      1.692977    52A      1.747099    53A      1.769898  
      54A      1.937082    55A      1.980100    56A      2.040465  
      57A      2.057812    58A      2.183057    59A      2.288335  
      60A      2.325588    61A      2.371483    62A      2.435077  
      63A      2.547814    64A      2.608762    65A      2.682070  
      66A      2.708186    67A      2.745613    68A      2.760684  
      69A      2.882597    70A      2.995265    71A      3.042370  
      72A      3.220284    73A      4.180656    74A      4.589599  
      75A      4.742072    76A      4.912530  

    Final Occupation by Irrep:
              A 
    DOCC [    17 ]

  Energy converged.

  @DF-RHF Final Energy:  -193.10774931082426

   => Energetics <=

    Nuclear Repulsion Energy =            132.9882239178754162
    One-Electron Energy =                -525.6285889362602575
    Two-Electron Energy =                 199.5326157075606091
    DFT Exchange-Correlation Energy =       0.0000000000000000
    Empirical Dispersion Energy =           0.0000000000000000
    PCM Polarization Energy =               0.0000000000000000
    EFP Energy =                            0.0000000000000000
    Total Energy =                       -193.1077493108242322

    Alert: EFP and PCM quantities not currently incorporated into SCF psivars.

Properties will be evaluated at   0.000000,   0.000000,   0.000000 Bohr
  ==> Properties <==


Properties computed using the SCF density matrix

  Nuclear Dipole Moment: (a.u.)
     X:     2.0745      Y:     2.1151      Z:    -0.8894

  Electronic Dipole Moment: (a.u.)
     X:    -2.3654      Y:    -1.6435      Z:     1.2508

  Dipole Moment: (a.u.)
     X:    -0.2909      Y:     0.4716      Z:     0.3614     Total:     0.6616

  Dipole Moment: (Debye)
     X:    -0.7395      Y:     1.1987      Z:     0.9185     Total:     1.6815


  Saving occupied orbitals to File 180.

*** tstop() called on cx1-1-3-4.cx1.hpc.ic.ac.uk at Tue Jul  5 16:25:36 2016
Module time:
	user time   =       2.94 seconds =       0.05 minutes
	system time =       0.03 seconds =       0.00 minutes
	total time  =          3 seconds =       0.05 minutes
Total time:
	user time   =       2.94 seconds =       0.05 minutes
	system time =       0.03 seconds =       0.00 minutes
	total time  =          3 seconds =       0.05 minutes


Properties will be evaluated at   0.000000,   0.000000,   0.000000 Bohr

Properties computed using the  density matrix

  Nuclear Dipole Moment: (a.u.)
     X:     2.0745      Y:     2.1151      Z:    -0.8894

  Electronic Dipole Moment: (a.u.)
     X:    -2.3654      Y:    -1.6435      Z:     1.2508

  Dipole Moment: (a.u.)
     X:    -0.2909      Y:     0.4716      Z:     0.3614     Total:     0.6616

  Dipole Moment: (Debye)
     X:    -0.7395      Y:     1.1987      Z:     0.9185     Total:     1.6815

  Quadrupole Moment: (Debye Ang)
    XX:   -22.2721     YY:   -28.0386     ZZ:   -26.3424
    XY:    -0.1987     XZ:    -1.5171     YZ:     0.0006

  Traceless Quadrupole Moment: (Debye Ang)
    XX:     3.2789     YY:    -2.4876     ZZ:    -0.7913
    XY:    -0.1987     XZ:    -1.5171     YZ:     0.0006

  Mulliken Charges: (a.u.)
   Center  Symbol    Alpha    Beta     Spin     Total
       1     H     0.27976  0.27976  0.00000  0.44048
       2     O     4.37189  4.37189  0.00000 -0.74377
       3     C     2.99189  2.99189  0.00000  0.01623
       4     C     3.16298  3.16298  0.00000 -0.32596
       5     H     0.43433  0.43433  0.00000  0.13133
       6     H     0.42965  0.42965  0.00000  0.14069
       7     C     3.24067  3.24067  0.00000 -0.48133
       8     H     0.42043  0.42043  0.00000  0.15914
       9     H     0.41702  0.41702  0.00000  0.16596
      10     H     0.42435  0.42435  0.00000  0.15130
      11     H     0.42167  0.42167  0.00000  0.15665
      12     H     0.40536  0.40536  0.00000  0.18928

   Total alpha = 17.00000, Total beta = 17.00000, Total charge = -0.00000


*** PSI4 exiting successfully. Buy a developer a beer!
