    -----------------------------------------------------------------------
          Psi4: An Open-Source Ab Initio Electronic Structure Package
                              Psi4 (no tag) Driver

                          Git: Rev {detached?}  

    J. M. Turney, A. C. Simmonett, R. M. Parrish, E. G. Hohenstein,
    F. A. Evangelista, J. T. Fermann, B. J. Mintz, L. A. Burns, J. J. Wilke,
    M. L. Abrams, N. J. Russ, M. L. Leininger, C. L. Janssen, E. T. Seidl,
    W. D. Allen, H. F. Schaefer, R. A. King, E. F. Valeev, C. D. Sherrill,
    and T. D. Crawford, WIREs Comput. Mol. Sci. 2, 556-565 (2012)
    (doi: 10.1002/wcms.93)

                         Additional Contributions by
    A. E. DePrince, M. Saitow, U. Bozkaya, A. Yu. Sokolov
    -----------------------------------------------------------------------


    Psi4 started on: Tue Jul  5 16:34:46 2016

    Process ID:  22719
    PSI4DATADIR: /export131/home/mjharvey/miniconda3/share
    Memory level set to 256.000 MB

  ==> Input File <==

--------------------------------------------------------------------------
set {
	reference rhf
	basis 6-31G*
}


set_num_threads( 1 )
memory 2 gb

molecule MOL {
0 1

O	 1.242000	 1.468000	 -0.027000
C	 0.903000	 0.324000	 -0.015000
C	 -0.582000	 -0.067000	 -0.005000
C	 1.954000	 -0.773000	 -0.006000
C	 -0.853000	 -1.205000	 -1.004000
C	 -1.432000	 1.154000	 -0.372000
C	 -0.943000	 -0.531000	 1.421000
H	 -0.572000	 -0.921000	 -2.014000
H	 -1.912000	 -1.442000	 -1.013000
H	 -0.319000	 -2.114000	 -0.749000
H	 -1.191000	 1.515000	 -1.366000
H	 -2.485000	 0.892000	 -0.352000
H	 -1.267000	 1.970000	 0.320000
H	 -1.999000	 -0.777000	 1.471000
H	 -0.387000	 -1.414000	 1.719000
H	 -0.748000	 0.253000	 2.146000
H	 2.062000	 -1.179000	 -1.007000
H	 2.900000	 -0.343000	 0.295000
H	 1.698000	 -1.593000	 0.653000

	symmetry c1
}
ee = optimize('scf')
oeprop('DIPOLE', 'QUADRUPOLE', 'MULLIKEN_CHARGES')
f=open( 'psi4out.xyz', 'w' )
f.write( "19  " )
f.write( str(ee) + "\n" )
f.write( MOL.save_string_xyz() )
f.close()
--------------------------------------------------------------------------

  Memory set to   2.000 GiB by Python script.
gradient() will perform analytic gradient computation.

*** tstart() called on cx1-3-15-2.cx1.hpc.ic.ac.uk
*** at Tue Jul  5 16:34:46 2016


         ---------------------------------------------------------
                                   SCF
            by Justin Turney, Rob Parrish, and Andy Simmonett
                              RHF Reference
                        1 Threads,   2000 MiB Core
         ---------------------------------------------------------

  ==> Geometry <==

    Molecular point group: c1
    Full point group: C1

    Geometry (in Angstrom), charge = 0, multiplicity = 1:

       Center              X                  Y                   Z               Mass       
    ------------   -----------------  -----------------  -----------------  -----------------
           O          1.200270438890     1.416933232239    -0.026000320701    15.994914619560
           C          0.861270438890     0.272933232239    -0.014000320701    12.000000000000
           C         -0.623729561110    -0.118066767761    -0.004000320701    12.000000000000
           C          1.912270438890    -0.824066767761    -0.005000320701    12.000000000000
           C         -0.894729561110    -1.256066767761    -1.003000320701    12.000000000000
           C         -1.473729561110     1.102933232239    -0.371000320701    12.000000000000
           C         -0.984729561110    -0.582066767761     1.421999679299    12.000000000000
           H         -0.613729561110    -0.972066767761    -2.013000320701     1.007825032070
           H         -1.953729561110    -1.493066767761    -1.012000320701     1.007825032070
           H         -0.360729561110    -2.165066767761    -0.748000320701     1.007825032070
           H         -1.232729561110     1.463933232239    -1.365000320701     1.007825032070
           H         -2.526729561110     0.840933232239    -0.351000320701     1.007825032070
           H         -1.308729561110     1.918933232239     0.320999679299     1.007825032070
           H         -2.040729561110    -0.828066767761     1.471999679299     1.007825032070
           H         -0.428729561110    -1.465066767761     1.719999679299     1.007825032070
           H         -0.789729561110     0.201933232239     2.146999679299     1.007825032070
           H          2.020270438890    -1.230066767761    -1.006000320701     1.007825032070
           H          2.858270438890    -0.394066767761     0.295999679299     1.007825032070
           H          1.656270438890    -1.644066767761     0.653999679299     1.007825032070

  Running in c1 symmetry.

  Rotational constants: A =      0.10725  B =      0.07670  C =      0.06417 [cm^-1]
  Rotational constants: A =   3215.16820  B =   2299.38104  C =   1923.79296 [MHz]
  Nuclear repulsion =  326.281920428663511

  Charge       = 0
  Multiplicity = 1
  Electrons    = 56
  Nalpha       = 28
  Nbeta        = 28

  ==> Algorithm <==

  SCF Algorithm Type is DF.
  DIIS enabled.
  MOM disabled.
  Fractional occupation disabled.
  Guess Type is CORE.
  Energy threshold   = 1.00e-08
  Density threshold  = 1.00e-08
  Integral threshold = 0.00e+00

  ==> Primary Basis <==

  Basis Set: 6-31G*
    Number of shells: 66
    Number of basis function: 129
    Number of Cartesian functions: 129
    Spherical Harmonics?: false
    Max angular momentum: 2

  ==> Pre-Iterations <==

   -------------------------------------------------------
    Irrep   Nso     Nmo     Nalpha   Nbeta   Ndocc  Nsocc
   -------------------------------------------------------
     A        129     129       0       0       0       0
   -------------------------------------------------------
    Total     129     129      28      28      28       0
   -------------------------------------------------------

 OEINTS: Overlap, kinetic, potential, dipole, and quadrupole integrals
         stored in file 35.

  ==> Integral Setup <==

  ==> DFJK: Density-Fitted J/K Matrices <==

    J tasked:                  Yes
    K tasked:                  Yes
    wK tasked:                  No
    OpenMP threads:              1
    Integrals threads:           1
    Memory (MB):              1430
    Algorithm:                Core
    Integral Cache:           NONE
    Schwarz Cutoff:          1E-12
    Fitting Condition:       1E-12

   => Auxiliary Basis Set <=

  Basis Set: 
    Number of shells: 276
    Number of basis function: 867
    Number of Cartesian functions: 867
    Spherical Harmonics?: false
    Max angular momentum: 3

  Minimum eigenvalue in the overlap matrix is 2.9870740209E-03.
  Using Symmetric Orthogonalization.
  SCF Guess: Core (One-Electron) Hamiltonian.

  ==> Iterations <==

                           Total Energy        Delta E     RMS |[F,P]|

   @DF-RHF iter   1:  -207.56612215801738   -2.07566e+02   9.16686e-02 
   @DF-RHF iter   2:  -248.77570171836066   -4.12096e+01   4.23340e-02 DIIS
   @DF-RHF iter   3:  -236.31771561963842    1.24580e+01   6.73831e-02 DIIS
   @DF-RHF iter   4:  -292.18504997602975   -5.58673e+01   4.07508e-02 DIIS
   @DF-RHF iter   5:  -302.26064614522488   -1.00756e+01   2.55009e-02 DIIS
   @DF-RHF iter   6:  -306.21645598803150   -3.95581e+00   1.63283e-02 DIIS
   @DF-RHF iter   7:  -308.58839837811854   -2.37194e+00   6.46717e-03 DIIS
   @DF-RHF iter   8:  -309.01356233182287   -4.25164e-01   1.95339e-03 DIIS
   @DF-RHF iter   9:  -309.05854557623093   -4.49832e-02   6.86465e-04 DIIS
   @DF-RHF iter  10:  -309.06225011975823   -3.70454e-03   1.96857e-04 DIIS
   @DF-RHF iter  11:  -309.06294197171701   -6.91852e-04   1.10137e-04 DIIS
   @DF-RHF iter  12:  -309.06309117897069   -1.49207e-04   3.53512e-05 DIIS
   @DF-RHF iter  13:  -309.06312237590600   -3.11969e-05   1.07035e-05 DIIS
   @DF-RHF iter  14:  -309.06312495150883   -2.57560e-06   2.19351e-06 DIIS
   @DF-RHF iter  15:  -309.06312504687469   -9.53659e-08   7.44267e-07 DIIS
   @DF-RHF iter  16:  -309.06312505691108   -1.00364e-08   2.54357e-07 DIIS
   @DF-RHF iter  17:  -309.06312505912365   -2.21257e-09   1.17721e-07 DIIS
   @DF-RHF iter  18:  -309.06312505983919   -7.15545e-10   5.53893e-08 DIIS
   @DF-RHF iter  19:  -309.06312506001598   -1.76783e-10   1.79486e-08 DIIS
   @DF-RHF iter  20:  -309.06312506003019   -1.42109e-11   5.29946e-09 DIIS

  ==> Post-Iterations <==

    Orbital Energies (a.u.)
    -----------------------

    Doubly Occupied:                                                      

       1A    -20.548375     2A    -11.322792     3A    -11.246411  
       4A    -11.226778     5A    -11.224686     6A    -11.224164  
       7A    -11.208291     8A     -1.395012     9A     -1.109632  
      10A     -1.001822    11A     -0.946760    12A     -0.934757  
      13A     -0.835127    14A     -0.703592    15A     -0.664474  
      16A     -0.631661    17A     -0.619871    18A     -0.597416  
      19A     -0.591875    20A     -0.565001    21A     -0.546200  
      22A     -0.544542    23A     -0.523899    24A     -0.513009  
      25A     -0.498824    26A     -0.471569    27A     -0.465999  
      28A     -0.392535  

    Virtual:                                                              

      29A      0.169334    30A      0.208011    31A      0.263302  
      32A      0.274370    33A      0.279209    34A      0.298590  
      35A      0.305257    36A      0.313107    37A      0.323579  
      38A      0.348267    39A      0.353939    40A      0.372218  
      41A      0.376752    42A      0.386940    43A      0.403802  
      44A      0.417936    45A      0.426148    46A      0.501474  
      47A      0.529592    48A      0.683996    49A      0.692752  
      50A      0.705925    51A      0.750826    52A      0.771402  
      53A      0.803271    54A      0.849067    55A      0.868506  
      56A      0.905702    57A      0.923311    58A      0.933434  
      59A      0.944767    60A      0.999102    61A      1.006039  
      62A      1.042025    63A      1.062651    64A      1.088562  
      65A      1.110963    66A      1.119329    67A      1.149245  
      68A      1.157491    69A      1.160611    70A      1.172725  
      71A      1.185152    72A      1.189690    73A      1.216983  
      74A      1.217457    75A      1.229291    76A      1.251593  
      77A      1.267400    78A      1.296282    79A      1.312052  
      80A      1.341777    81A      1.407565    82A      1.425601  
      83A      1.568886    84A      1.624496    85A      1.652073  
      86A      1.734507    87A      1.802090    88A      1.862312  
      89A      1.929259    90A      1.948907    91A      1.976395  
      92A      2.020252    93A      2.086869    94A      2.096365  
      95A      2.145447    96A      2.170022    97A      2.199696  
      98A      2.222009    99A      2.255326   100A      2.294214  
     101A      2.302669   102A      2.397407   103A      2.412260  
     104A      2.448078   105A      2.469102   106A      2.512282  
     107A      2.569317   108A      2.598615   109A      2.611971  
     110A      2.616164   111A      2.625764   112A      2.687569  
     113A      2.734858   114A      2.818708   115A      2.857984  
     116A      2.913031   117A      3.017675   118A      3.048023  
     119A      3.078025   120A      3.173412   121A      3.382175  
     122A      3.411870   123A      4.477510   124A      4.565475  
     125A      4.681518   126A      4.737893   127A      4.767840  
     128A      4.889265   129A      5.134068  

    Final Occupation by Irrep:
              A 
    DOCC [    28 ]

  Energy converged.

  @DF-RHF Final Energy:  -309.06312506003019

   => Energetics <=

    Nuclear Repulsion Energy =            326.2819204286635113
    One-Electron Energy =               -1065.5799453673589596
    Two-Electron Energy =                 430.2348998786641232
    DFT Exchange-Correlation Energy =       0.0000000000000000
    Empirical Dispersion Energy =           0.0000000000000000
    PCM Polarization Energy =               0.0000000000000000
    EFP Energy =                            0.0000000000000000
    Total Energy =                       -309.0631250600313251

    Alert: EFP and PCM quantities not currently incorporated into SCF psivars.

Properties will be evaluated at   0.000000,   0.000000,   0.000000 Bohr
  ==> Properties <==


Properties computed using the SCF density matrix

  Nuclear Dipole Moment: (a.u.)
     X:    -4.4198      Y:    -5.3985      Z:     0.1077

  Electronic Dipole Moment: (a.u.)
     X:     4.0395      Y:     4.2891      Z:    -0.0861

  Dipole Moment: (a.u.)
     X:    -0.3803      Y:    -1.1094      Z:     0.0216     Total:     1.1729

  Dipole Moment: (Debye)
     X:    -0.9665      Y:    -2.8198      Z:     0.0549     Total:     2.9813


  Saving occupied orbitals to File 180.

*** tstop() called on cx1-3-15-2.cx1.hpc.ic.ac.uk at Tue Jul  5 16:35:05 2016
Module time:
	user time   =      16.95 seconds =       0.28 minutes
	system time =       0.08 seconds =       0.00 minutes
	total time  =         19 seconds =       0.32 minutes
Total time:
	user time   =      16.95 seconds =       0.28 minutes
	system time =       0.08 seconds =       0.00 minutes
	total time  =         19 seconds =       0.32 minutes

*** tstart() called on cx1-3-15-2.cx1.hpc.ic.ac.uk
*** at Tue Jul  5 16:35:05 2016


         ------------------------------------------------------------
                                   SCF GRAD                          
                          Rob Parrish, Justin Turney,                
                       Andy Simmonett, and Alex Sokolov              
         ------------------------------------------------------------

  ==> Geometry <==

    Molecular point group: c1
    Full point group: C1

    Geometry (in Angstrom), charge = 0, multiplicity = 1:

       Center              X                  Y                   Z               Mass       
    ------------   -----------------  -----------------  -----------------  -----------------
           O          1.200270438890     1.416933232239    -0.026000320701    15.994914619560
           C          0.861270438890     0.272933232239    -0.014000320701    12.000000000000
           C         -0.623729561110    -0.118066767761    -0.004000320701    12.000000000000
           C          1.912270438890    -0.824066767761    -0.005000320701    12.000000000000
           C         -0.894729561110    -1.256066767761    -1.003000320701    12.000000000000
           C         -1.473729561110     1.102933232239    -0.371000320701    12.000000000000
           C         -0.984729561110    -0.582066767761     1.421999679299    12.000000000000
           H         -0.613729561110    -0.972066767761    -2.013000320701     1.007825032070
           H         -1.953729561110    -1.493066767761    -1.012000320701     1.007825032070
           H         -0.360729561110    -2.165066767761    -0.748000320701     1.007825032070
           H         -1.232729561110     1.463933232239    -1.365000320701     1.007825032070
           H         -2.526729561110     0.840933232239    -0.351000320701     1.007825032070
           H         -1.308729561110     1.918933232239     0.320999679299     1.007825032070
           H         -2.040729561110    -0.828066767761     1.471999679299     1.007825032070
           H         -0.428729561110    -1.465066767761     1.719999679299     1.007825032070
           H         -0.789729561110     0.201933232239     2.146999679299     1.007825032070
           H          2.020270438890    -1.230066767761    -1.006000320701     1.007825032070
           H          2.858270438890    -0.394066767761     0.295999679299     1.007825032070
           H          1.656270438890    -1.644066767761     0.653999679299     1.007825032070

  Nuclear repulsion =  326.281920428663511

  ==> Basis Set <==

  Basis Set: 6-31G*
    Number of shells: 66
    Number of basis function: 129
    Number of Cartesian functions: 129
    Spherical Harmonics?: false
    Max angular momentum: 2

  ==> DFJKGrad: Density-Fitted SCF Gradients <==

    Gradient:                    1
    J tasked:                  Yes
    K tasked:                  Yes
    wK tasked:                  No
    OpenMP threads:              1
    Integrals threads:           1
    Memory (MB):              1430
    Schwarz Cutoff:          0E+00
    Fitting Condition:       1E-12

   => Auxiliary Basis Set <=

  Basis Set: 
    Number of shells: 276
    Number of basis function: 867
    Number of Cartesian functions: 867
    Spherical Harmonics?: false
    Max angular momentum: 3


  -Total Gradient:
     Atom            X                  Y                   Z
    ------   -----------------  -----------------  -----------------
       1       -0.000413890569    -0.000839218987    -0.000094011085
       2        0.000257877382     0.001100809036     0.000354886602
       3        0.000149909198     0.000389219550    -0.000355908079
       4       -0.000299021660    -0.001006335547    -0.000442275379
       5        0.000033253610     0.000280125540    -0.000003044534
       6       -0.000572007161    -0.000828112683     0.000000374760
       7       -0.000117427935    -0.000184004190     0.000089897064
       8       -0.000030612875    -0.000057774601     0.000080889473
       9       -0.000076546080    -0.000122339093    -0.000045178012
      10       -0.000022741778    -0.000104610187    -0.000004173379
      11        0.000089116589     0.000130951106    -0.000156779218
      12        0.000381967929     0.000122706835    -0.000009186430
      13        0.000108443198     0.000366771938     0.000219192462
      14       -0.000075871806     0.000000263525    -0.000005962572
      15        0.000076811213    -0.000094197656    -0.000011933054
      16        0.000036473355     0.000184713696     0.000084457871
      17       -0.000001202173     0.000094988927     0.000294875061
      18        0.000379307035     0.000253078008     0.000187254569
      19        0.000096162526     0.000312964780    -0.000183376120


*** tstop() called on cx1-3-15-2.cx1.hpc.ic.ac.uk at Tue Jul  5 16:35:20 2016
Module time:
	user time   =      15.52 seconds =       0.26 minutes
	system time =       0.06 seconds =       0.00 minutes
	total time  =         15 seconds =       0.25 minutes
Total time:
	user time   =      32.47 seconds =       0.54 minutes
	system time =       0.14 seconds =       0.00 minutes
	total time  =         34 seconds =       0.57 minutes
CURRENT ENERGY: -309.0631250600

			-----------------------------------------
			 OPTKING 2.0: for geometry optimizations 
			  - R.A. King,  Bethel University        
			-----------------------------------------

	Internal coordinates to be generated automatically.
	Detected frag with atoms:  1 2 3 4 5 6 7 8 9 10 11 12 13 14 15 16 17 18 19
	---Fragment 1 Bond Connectivity---
	 1 : 2
	 2 : 1 3 4
	 3 : 2 5 6 7
	 4 : 2 17 18 19
	 5 : 3 8 9 10
	 6 : 3 11 12 13
	 7 : 3 14 15 16
	 8 : 5
	 9 : 5
	 10 : 5
	 11 : 6
	 12 : 6
	 13 : 6
	 14 : 7
	 15 : 7
	 16 : 7
	 17 : 4
	 18 : 4
	 19 : 4

	---Fragment 1 Geometry and Gradient---
	 O           2.2681824149        2.6776157575       -0.0491334855
	 C           1.6275652559        0.5157690615       -0.0264567719
	 C          -1.1786780515       -0.2231138565       -0.0075595106
	 C           3.6136674215       -1.5572605063       -0.0094492367
	 C          -1.6907938335       -2.3736221957       -1.8953959173
	 C          -2.7849452644        2.0842417518       -0.7010890013
	 C          -1.8608691855       -1.0999467821        2.6871899549
	 H          -1.1597807902       -1.8369399739       -3.8040193115
	 H          -3.6920138082       -2.8214872892       -1.9124034525
	 H          -0.6816800785       -4.0913832505       -1.4135157534
	 H          -2.3295212664        2.7664328858       -2.5794767774
	 H          -4.7748268824        1.5891335050       -0.6632944787
	 H          -2.4731404525        3.6262582762        0.6066014826
	 H          -3.8564199818       -1.5648194108        2.7816762616
	 H          -0.8101814556       -2.7685749575        3.2503283425
	 H          -1.4923725895        0.3815985061        4.0572414013
	 H           3.8177578439       -2.3244893162       -1.9010650957
	 H           5.4013483432       -0.7446782691        0.5593583293
	 H           3.1298975315       -3.1068359352        1.2358802849
	            -0.0004138906       -0.0008392190       -0.0000940111
	             0.0002578774        0.0011008090        0.0003548866
	             0.0001499092        0.0003892196       -0.0003559081
	            -0.0002990217       -0.0010063355       -0.0004422754
	             0.0000332536        0.0002801255       -0.0000030445
	            -0.0005720072       -0.0008281127        0.0000003748
	            -0.0001174279       -0.0001840042        0.0000898971
	            -0.0000306129       -0.0000577746        0.0000808895
	            -0.0000765461       -0.0001223391       -0.0000451780
	            -0.0000227418       -0.0001046102       -0.0000041734
	             0.0000891166        0.0001309511       -0.0001567792
	             0.0003819679        0.0001227068       -0.0000091864
	             0.0001084432        0.0003667719        0.0002191925
	            -0.0000758718        0.0000002635       -0.0000059626
	             0.0000768112       -0.0000941977       -0.0000119331
	             0.0000364734        0.0001847137        0.0000844579
	            -0.0000012022        0.0000949889        0.0002948751
	             0.0003793070        0.0002530780        0.0001872546
	             0.0000961625        0.0003129648       -0.0001833761

	Previous optimization step data not found.  Starting new optimization.

	---Fragment 1 Intrafragment Coordinates---
	 - Coordinate -           - BOHR/RAD -       - ANG/DEG -
	 R(1,2)           =         2.254880	       1.193231
	 R(2,3)           =         2.901949	       1.535645
	 R(2,4)           =         2.870948	       1.519240
	 R(3,5)           =         2.907039	       1.538339
	 R(3,6)           =         2.895681	       1.532328
	 R(3,7)           =         2.914772	       1.542431
	 R(4,17)          =         2.051464	       1.085588
	 R(4,18)          =         2.044416	       1.081858
	 R(4,19)          =         2.045987	       1.082690
	 R(5,8)           =         2.052522	       1.086148
	 R(5,9)           =         2.050793	       1.085233
	 R(5,10)          =         2.049688	       1.084648
	 R(6,11)          =         2.049667	       1.084637
	 R(6,12)          =         2.050900	       1.085289
	 R(6,13)          =         2.045750	       1.082564
	 R(7,14)          =         2.051160	       1.085427
	 R(7,15)          =         2.050705	       1.085186
	 R(7,16)          =         2.051294	       1.085498
	 B(1,2,3)         =         2.116371	     121.259119
	 B(1,2,4)         =         2.089551	     119.722453
	 B(2,3,5)         =         1.933154	     110.761575
	 B(2,3,6)         =         1.909190	     109.388551
	 B(2,3,7)         =         1.884877	     107.995502
	 B(2,4,17)        =         1.910713	     109.475817
	 B(2,4,18)        =         1.896071	     108.636884
	 B(2,4,19)        =         1.968075	     112.762366
	 B(3,2,4)         =         2.077261	     119.018264
	 B(3,5,8)         =         1.944289	     111.399551
	 B(3,5,9)         =         1.916485	     109.806489
	 B(3,5,10)        =         1.961196	     112.368268
	 B(3,6,11)        =         1.940614	     111.188967
	 B(3,6,12)        =         1.919236	     109.964139
	 B(3,6,13)        =         1.942257	     111.283134
	 B(3,7,14)        =         1.916083	     109.783496
	 B(3,7,15)        =         1.959231	     112.255645
	 B(3,7,16)        =         1.937099	     110.987593
	 B(5,3,6)         =         1.913680	     109.645808
	 B(5,3,7)         =         1.914115	     109.670705
	 B(6,3,7)         =         1.908480	     109.347827
	 B(8,5,9)         =         1.877428	     107.568716
	 B(8,5,10)        =         1.886386	     108.081975
	 B(9,5,10)        =         1.874811	     107.418782
	 B(11,6,12)       =         1.888957	     108.229280
	 B(11,6,13)       =         1.876605	     107.521564
	 B(12,6,13)       =         1.894488	     108.546147
	 B(14,7,15)       =         1.876959	     107.541802
	 B(14,7,16)       =         1.883565	     107.920315
	 B(15,7,16)       =         1.888340	     108.193940
	 B(17,4,18)       =         1.894629	     108.554225
	 B(17,4,19)       =         1.877077	     107.548615
	 B(18,4,19)       =         1.916052	     109.781682
	 D(1,2,3,5)       =         2.362598	     135.366915
	 D(1,2,3,6)       =         0.251278	      14.397181
	 D(1,2,3,7)       =        -1.824286	    -104.523875
	 D(1,2,4,17)      =        -1.762154	    -100.964013
	 D(1,2,4,18)      =         0.304128	      17.425237
	 D(1,2,4,19)      =         2.432158	     139.352361
	 D(2,3,5,8)       =        -1.024700	     -58.710991
	 D(2,3,5,9)       =        -3.102687	    -177.770845
	 D(2,3,5,10)      =         1.095002	      62.738971
	 D(2,3,6,11)      =         1.065730	      61.061825
	 D(2,3,6,12)      =        -3.125630	    -179.085436
	 D(2,3,6,13)      =        -1.025823	     -58.775326
	 D(2,3,7,14)      =         3.101928	     177.727369
	 D(2,3,7,15)      =        -1.094598	     -62.715819
	 D(2,3,7,16)      =         1.021089	      58.504115
	 D(3,2,4,17)      =         1.381973	      79.181228
	 D(3,2,4,18)      =        -2.834930	    -162.429522
	 D(3,2,4,19)      =        -0.706900	     -40.502399
	 D(4,2,3,5)       =        -0.781570	     -44.780638
	 D(4,2,3,6)       =        -2.892890	    -165.750372
	 D(4,2,3,7)       =         1.314732	      75.328572
	 D(5,3,6,11)      =        -1.057374	     -60.583053
	 D(5,3,6,12)      =         1.034451	      59.269686
	 D(5,3,6,13)      =         3.134259	     179.579795
	 D(5,3,7,14)      =        -1.073030	     -61.480100
	 D(5,3,7,15)      =         1.013630	      58.076712
	 D(5,3,7,16)      =         3.129317	     179.296646
	 D(6,3,5,8)       =         1.083960	      62.106343
	 D(6,3,5,9)       =        -0.994026	     -56.953511
	 D(6,3,5,10)      =        -3.079523	    -176.443696
	 D(6,3,7,14)      =         1.025912	      58.780416
	 D(6,3,7,15)      =         3.112572	     178.337228
	 D(6,3,7,16)      =        -1.054927	     -60.442838
	 D(7,3,5,8)       =        -3.103451	    -177.814632
	 D(7,3,5,9)       =         1.101748	      63.125514
	 D(7,3,5,10)      =        -0.983749	     -56.364671
	 D(7,3,6,11)      =         3.126604	     179.141191
	 D(7,3,6,12)      =        -1.064757	     -61.006070
	 D(7,3,6,13)      =         1.035051	      59.304039

	Current energy   :      -309.0631250600

	Generating empirical Hessian (Schlegel '84) for each fragment.
	Taking RFO optimization step.
	Going to follow RFO solution 1.
	Using RFO vector 1.
	Norm of target step-size    0.08632
	Projected energy change by RFO approximation:        -0.0000562356

	Back-transformation to cartesian coordinates...
	Successfully converged to displaced geometry.

	--- Internal Coordinate Step in ANG or DEG, aJ/ANG or AJ/DEG ---
	 ---------------------------------------------------------------------------
	   Coordinate                Previous        Force       Change         New 
	   ----------                --------       ------       ------       ------
	    1 R(1,2)          =      1.193231     0.007590     0.000450     1.193682
	    2 R(2,3)          =      1.535645     0.000029     0.000006     1.535652
	    3 R(2,4)          =      1.519240    -0.003046    -0.000643     1.518598
	    4 R(3,5)          =      1.538339    -0.000016    -0.000004     1.538335
	    5 R(3,6)          =      1.532328     0.001504     0.000331     1.532659
	    6 R(3,7)          =      1.542431    -0.001577    -0.000358     1.542073
	    7 R(4,17)         =      1.085588     0.002534     0.000461     1.086049
	    8 R(4,18)         =      1.081858    -0.003991    -0.000717     1.081142
	    9 R(4,19)         =      1.082690     0.003060     0.000551     1.083241
	   10 R(5,8)          =      1.086148     0.000809     0.000147     1.086295
	   11 R(5,9)          =      1.085233    -0.000839    -0.000152     1.085081
	   12 R(5,10)         =      1.084648    -0.000622    -0.000113     1.084536
	   13 R(6,11)         =      1.084637    -0.001706    -0.000309     1.084328
	   14 R(6,12)         =      1.085289     0.003299     0.000599     1.085889
	   15 R(6,13)         =      1.082564    -0.003568    -0.000642     1.081922
	   16 R(7,14)         =      1.085427    -0.000605    -0.000110     1.085317
	   17 R(7,15)         =      1.085186    -0.000929    -0.000169     1.085018
	   18 R(7,16)         =      1.085498    -0.001618    -0.000294     1.085204
	   19 B(1,2,3)        =    121.259119     0.000014     0.020101   121.279220
	   20 B(1,2,4)        =    119.722453    -0.000013    -0.061686   119.660767
	   21 B(2,3,5)        =    110.761575    -0.000002    -0.024700   110.736875
	   22 B(2,3,6)        =    109.388551    -0.000002    -0.031430   109.357121
	   23 B(2,3,7)        =    107.995502     0.000001     0.002817   107.998319
	   24 B(2,4,17)       =    109.475817    -0.000008    -0.049102   109.426715
	   25 B(2,4,18)       =    108.636884     0.000010     0.058438   108.695322
	   26 B(2,4,19)       =    112.762366     0.000002     0.011454   112.773819
	   27 B(3,2,4)        =    119.018264    -0.000001    -0.025002   118.993262
	   28 B(3,5,8)        =    111.399551    -0.000001    -0.011739   111.387812
	   29 B(3,5,9)        =    109.806489    -0.000010    -0.045014   109.761475
	   30 B(3,5,10)       =    112.368268    -0.000004    -0.012208   112.356060
	   31 B(3,6,11)       =    111.188967    -0.000000     0.006247   111.195214
	   32 B(3,6,12)       =    109.964139    -0.000004    -0.034521   109.929619
	   33 B(3,6,13)       =    111.283134    -0.000001     0.004215   111.287349
	   34 B(3,7,14)       =    109.783496    -0.000000    -0.001945   109.781551
	   35 B(3,7,15)       =    112.255645     0.000003     0.013719   112.269363
	   36 B(3,7,16)       =    110.987593     0.000006     0.029888   111.017481
	   37 B(5,3,6)        =    109.645808     0.000002     0.017287   109.663095
	   38 B(5,3,7)        =    109.670705     0.000001     0.023619   109.694325
	   39 B(6,3,7)        =    109.347827    -0.000000     0.012406   109.360233
	   40 B(8,5,9)        =    107.568716     0.000004     0.011899   107.580615
	   41 B(8,5,10)       =    108.081975     0.000003     0.012666   108.094641
	   42 B(9,5,10)       =    107.418782     0.000008     0.048291   107.467073
	   43 B(11,6,12)      =    108.229280     0.000000    -0.016133   108.213147
	   44 B(11,6,13)      =    107.521564     0.000005     0.053513   107.575078
	   45 B(12,6,13)      =    108.546147     0.000000    -0.012624   108.533523
	   46 B(14,7,15)      =    107.541802    -0.000002    -0.017443   107.524360
	   47 B(14,7,16)      =    107.920315    -0.000002    -0.004870   107.915446
	   48 B(15,7,16)      =    108.193940    -0.000005    -0.021668   108.172271
	   49 B(17,4,18)      =    108.554225    -0.000003    -0.019501   108.534724
	   50 B(17,4,19)      =    107.548615    -0.000001    -0.023330   107.525285
	   51 B(18,4,19)      =    109.781682    -0.000001     0.019276   109.800957
	   52 D(1,2,3,5)      =    135.366915     0.000001     1.720820   137.087735
	   53 D(1,2,3,6)      =     14.397181     0.000001     1.735559    16.132740
	   54 D(1,2,3,7)      =   -104.523875     0.000001     1.736788  -102.787087
	   55 D(1,2,4,17)     =   -100.964013    -0.000001    -1.432797  -102.396810
	   56 D(1,2,4,18)     =     17.425237    -0.000001    -1.450420    15.974817
	   57 D(1,2,4,19)     =    139.352361     0.000000    -1.377159   137.975202
	   58 D(2,3,5,8)      =    -58.710991     0.000000    -0.058326   -58.769316
	   59 D(2,3,5,9)      =   -177.770845     0.000001    -0.036585  -177.807430
	   60 D(2,3,5,10)     =     62.738971     0.000000    -0.059087    62.679883
	   61 D(2,3,6,11)     =     61.061825     0.000000    -0.034210    61.027615
	   62 D(2,3,6,12)     =   -179.085436    -0.000000    -0.072977  -179.158413
	   63 D(2,3,6,13)     =    -58.775326    -0.000001    -0.108966   -58.884292
	   64 D(2,3,7,14)     =    177.727369     0.000000    -0.002835   177.724533
	   65 D(2,3,7,15)     =    -62.715819    -0.000000    -0.017246   -62.733065
	   66 D(2,3,7,16)     =     58.504115    -0.000000    -0.014283    58.489832
	   67 D(3,2,4,17)     =     79.181228     0.000000     1.354494    80.535721
	   68 D(3,2,4,18)     =   -162.429522    -0.000000     1.336871  -161.092652
	   69 D(3,2,4,19)     =    -40.502399     0.000001     1.410132   -39.092267
	   70 D(4,2,3,5)      =    -44.780638    -0.000001    -1.113350   -45.893988
	   71 D(4,2,3,6)      =   -165.750372    -0.000001    -1.098611  -166.848983
	   72 D(4,2,3,7)      =     75.328572    -0.000000    -1.097382    74.231190
	   73 D(5,3,6,11)     =    -60.583053     0.000001     0.005371   -60.577682
	   74 D(5,3,6,12)     =     59.269686     0.000000    -0.033396    59.236290
	   75 D(5,3,6,13)     =    179.579795    -0.000000    -0.069385   179.510411
	   76 D(5,3,7,14)     =    -61.480100    -0.000000    -0.017176   -61.497276
	   77 D(5,3,7,15)     =     58.076712    -0.000000    -0.031587    58.045125
	   78 D(5,3,7,16)     =    179.296646    -0.000000    -0.028624   179.268022
	   79 D(6,3,5,8)      =     62.106343    -0.000001    -0.102064    62.004280
	   80 D(6,3,5,9)      =    -56.953511    -0.000000    -0.080323   -57.033834
	   81 D(6,3,5,10)     =   -176.443696    -0.000001    -0.102825  -176.546521
	   82 D(6,3,7,14)     =     58.780416     0.000001     0.026270    58.806686
	   83 D(6,3,7,15)     =    178.337228     0.000000     0.011859   178.349087
	   84 D(6,3,7,16)     =    -60.442838     0.000000     0.014822   -60.428016
	   85 D(7,3,5,8)      =   -177.814632    -0.000000    -0.061431  -177.876063
	   86 D(7,3,5,9)      =     63.125514     0.000000    -0.039690    63.085824
	   87 D(7,3,5,10)     =    -56.364671    -0.000000    -0.062193   -56.426863
	   88 D(7,3,6,11)     =    179.141191     0.000000    -0.041938   179.099253
	   89 D(7,3,6,12)     =    -61.006070    -0.000000    -0.080705   -61.086775
	   90 D(7,3,6,13)     =     59.304039    -0.000001    -0.116693    59.187346
	 ---------------------------------------------------------------------------

  ==> Convergence Check <==

  Measures of convergence in internal coordinates in au.
  Criteria marked as inactive (o), active & met (*), and active & unmet ( ).
  --------------------------------------------------------------------------------------------- ~
   Step     Total Energy     Delta E     MAX Force     RMS Force      MAX Disp      RMS Disp    ~
  --------------------------------------------------------------------------------------------- ~
    Convergence Criteria    1.00e-06 *    3.00e-04 *             o    1.20e-03 *             o  ~
  --------------------------------------------------------------------------------------------- ~
      1    -309.06312506   -3.09e+02      9.21e-04      1.56e-04 o    3.03e-02      9.10e-03 o  ~
  ---------------------------------------------------------------------------------------------

	Writing optimization data to binary file.
	Structure for next step:
	Cartesian Geometry (in Angstrom)
	    O     1.2008402789   1.4169451648  -0.0126431579
	    C     0.8610342973   0.2727650605  -0.0287499929
	    C    -0.6238573916  -0.1183312657  -0.0096119723
	    C     1.9114084830  -0.8236003898   0.0001603868
	    C    -0.9001718618  -1.2567636317  -1.0066563546
	    C    -1.4756114620   1.1030939110  -0.3724882650
	    C    -0.9762877759  -0.5812894638   1.4184818913
	    H    -0.6259439130  -0.9723904666  -2.0185695932
	    H    -1.9590073936  -1.4939658120  -1.0084227646
	    H    -0.3635340986  -2.1649664241  -0.7548523346
	    H    -1.2399829109   1.4637045368  -1.3675796016
	    H    -2.5289686411   0.8405006217  -0.3472408953
	    H    -1.3077638751   1.9183587425   0.3186886908
	    H    -2.0318654108  -0.8272341761   1.4748773378
	    H    -0.4189024079  -1.4640947395   1.7138454585
	    H    -0.7770380186   0.2025680253   2.1420389824
	    H     2.0348349923  -1.2320213115  -0.9985687054
	    H     2.8523695356  -0.3938304912   0.3144174292
	    H     1.6445855517  -1.6427169173   0.6568673758
			--------------------------
			 OPTKING Finished Execution 
			--------------------------

    Structure for next step:
    Molecular point group: c1
    Full point group: C1

    Geometry (in Angstrom), charge = 0, multiplicity = 1:

    O            1.200766763022     1.416913091652    -0.012022563374
    C            0.860960807311     0.272733074648    -0.028129397156
    C           -0.623930768120    -0.118363221646    -0.008991377990
    C            1.911334912893    -0.823632291921     0.000780980392
    C           -0.900245217254    -1.256795500741    -1.006035684132
    C           -1.475684773466     1.103061861748    -0.371867643013
    C           -0.976361125533    -0.581321384410     1.419102376520
    H           -0.626017289343    -0.972422357300    -2.017948845525
    H           -1.959080668182    -1.493997662940    -1.007802094012
    H           -0.363607495019    -2.164998223752    -0.754231683355
    H           -1.240056240388     1.463672460033    -1.366958903596
    H           -2.529041872203     0.840468592517    -0.346620275222
    H           -1.307837199385     1.918326630981     0.319309260060
    H           -2.031938679790    -0.827266077883     1.475497818729
    H           -0.418975800125    -1.464126592713     1.714465921198
    H           -0.777111383431     0.202536044792     2.142659412392
    H            2.034761412748    -1.232053182393    -0.997948035611
    H            2.852295893622    -0.393862426121     0.315037998762
    H            1.644512001950    -1.642748756833     0.657487919195

gradient() will perform analytic gradient computation.

*** tstart() called on cx1-3-15-2.cx1.hpc.ic.ac.uk
*** at Tue Jul  5 16:35:21 2016


         ---------------------------------------------------------
                                   SCF
            by Justin Turney, Rob Parrish, and Andy Simmonett
                              RHF Reference
                        1 Threads,   2000 MiB Core
         ---------------------------------------------------------

  ==> Geometry <==

    Molecular point group: c1
    Full point group: C1

    Geometry (in Angstrom), charge = 0, multiplicity = 1:

       Center              X                  Y                   Z               Mass       
    ------------   -----------------  -----------------  -----------------  -----------------
           O          1.200766763022     1.416913091652    -0.012022563374    15.994914619560
           C          0.860960807311     0.272733074648    -0.028129397156    12.000000000000
           C         -0.623930768120    -0.118363221646    -0.008991377990    12.000000000000
           C          1.911334912893    -0.823632291921     0.000780980392    12.000000000000
           C         -0.900245217254    -1.256795500741    -1.006035684132    12.000000000000
           C         -1.475684773466     1.103061861748    -0.371867643013    12.000000000000
           C         -0.976361125533    -0.581321384410     1.419102376520    12.000000000000
           H         -0.626017289343    -0.972422357300    -2.017948845525     1.007825032070
           H         -1.959080668182    -1.493997662940    -1.007802094012     1.007825032070
           H         -0.363607495019    -2.164998223752    -0.754231683355     1.007825032070
           H         -1.240056240388     1.463672460033    -1.366958903596     1.007825032070
           H         -2.529041872203     0.840468592517    -0.346620275222     1.007825032070
           H         -1.307837199385     1.918326630981     0.319309260060     1.007825032070
           H         -2.031938679790    -0.827266077883     1.475497818729     1.007825032070
           H         -0.418975800125    -1.464126592713     1.714465921198     1.007825032070
           H         -0.777111383431     0.202536044792     2.142659412392     1.007825032070
           H          2.034761412748    -1.232053182393    -0.997948035611     1.007825032070
           H          2.852295893622    -0.393862426121     0.315037998762     1.007825032070
           H          1.644512001950    -1.642748756833     0.657487919195     1.007825032070

  Running in c1 symmetry.

  Rotational constants: A =      0.10727  B =      0.07672  C =      0.06418 [cm^-1]
  Rotational constants: A =   3215.83795  B =   2300.07511  C =   1924.11781 [MHz]
  Nuclear repulsion =  326.298683240596347

  Charge       = 0
  Multiplicity = 1
  Electrons    = 56
  Nalpha       = 28
  Nbeta        = 28

  ==> Algorithm <==

  SCF Algorithm Type is DF.
  DIIS enabled.
  MOM disabled.
  Fractional occupation disabled.
  Guess Type is READ.
  Energy threshold   = 1.00e-08
  Density threshold  = 1.00e-08
  Integral threshold = 0.00e+00

  ==> Primary Basis <==

  Basis Set: 6-31G*
    Number of shells: 66
    Number of basis function: 129
    Number of Cartesian functions: 129
    Spherical Harmonics?: false
    Max angular momentum: 2

  ==> Pre-Iterations <==

   -------------------------------------------------------
    Irrep   Nso     Nmo     Nalpha   Nbeta   Ndocc  Nsocc
   -------------------------------------------------------
     A        129     129       0       0       0       0
   -------------------------------------------------------
    Total     129     129      28      28      28       0
   -------------------------------------------------------

 OEINTS: Overlap, kinetic, potential, dipole, and quadrupole integrals
         stored in file 35.

  ==> Integral Setup <==

  ==> DFJK: Density-Fitted J/K Matrices <==

    J tasked:                  Yes
    K tasked:                  Yes
    wK tasked:                  No
    OpenMP threads:              1
    Integrals threads:           1
    Memory (MB):              1430
    Algorithm:                Core
    Integral Cache:           NONE
    Schwarz Cutoff:          1E-12
    Fitting Condition:       1E-12

   => Auxiliary Basis Set <=

  Basis Set: 
    Number of shells: 276
    Number of basis function: 867
    Number of Cartesian functions: 867
    Spherical Harmonics?: false
    Max angular momentum: 3

  Minimum eigenvalue in the overlap matrix is 3.0060330541E-03.
  Using Symmetric Orthogonalization.
  SCF Guess: Reading in previously saved MOs, projecting if necessary.

  Using orbitals from previous SCF, no projection.
  Recomputing DOCC and SOCC from number of alpha and beta electrons from previous calculation.
              A 
    DOCC [    28 ]

  ==> Iterations <==

                           Total Energy        Delta E     RMS |[F,P]|

   @DF-RHF iter   0:  -309.06166550332352   -3.09062e+02   3.80731e-04 
   @DF-RHF iter   1:  -309.06294710960697   -1.28161e-03   5.44955e-05 
   @DF-RHF iter   2:  -309.06299620535913   -4.90958e-05   1.99292e-05 DIIS
   @DF-RHF iter   3:  -309.06300492993910   -8.72458e-06   7.35678e-06 DIIS
   @DF-RHF iter   4:  -309.06300576073397   -8.30795e-07   3.26340e-06 DIIS
   @DF-RHF iter   5:  -309.06300602337069   -2.62637e-07   1.51067e-06 DIIS
   @DF-RHF iter   6:  -309.06300607831065   -5.49400e-08   3.85790e-07 DIIS
   @DF-RHF iter   7:  -309.06300608295237   -4.64172e-09   1.48325e-07 DIIS
   @DF-RHF iter   8:  -309.06300608392996   -9.77593e-10   7.59559e-08 DIIS
   @DF-RHF iter   9:  -309.06300608425806   -3.28100e-10   2.89164e-08 DIIS
   @DF-RHF iter  10:  -309.06300608430195   -4.38831e-11   6.40591e-09 DIIS

  ==> Post-Iterations <==

    Orbital Energies (a.u.)
    -----------------------

    Doubly Occupied:                                                      

       1A    -20.548318     2A    -11.322762     3A    -11.246522  
       4A    -11.226670     5A    -11.224710     6A    -11.224045  
       7A    -11.208365     8A     -1.394676     9A     -1.109708  
      10A     -1.001858    11A     -0.946847    12A     -0.934865  
      13A     -0.835138    14A     -0.703621    15A     -0.664426  
      16A     -0.631606    17A     -0.619783    18A     -0.597538  
      19A     -0.592032    20A     -0.564899    21A     -0.546309  
      22A     -0.544340    23A     -0.523996    24A     -0.513026  
      25A     -0.498734    26A     -0.471565    27A     -0.466067  
      28A     -0.392557  

    Virtual:                                                              

      29A      0.168899    30A      0.208445    31A      0.263223  
      32A      0.274535    33A      0.279313    34A      0.298595  
      35A      0.305320    36A      0.313019    37A      0.322947  
      38A      0.348242    39A      0.353597    40A      0.372550  
      41A      0.376501    42A      0.387807    43A      0.404687  
      44A      0.417811    45A      0.426192    46A      0.501130  
      47A      0.530567    48A      0.683940    49A      0.692392  
      50A      0.705780    51A      0.751016    52A      0.769827  
      53A      0.805382    54A      0.849472    55A      0.868527  
      56A      0.906019    57A      0.921886    58A      0.933702  
      59A      0.945032    60A      0.998415    61A      1.006345  
      62A      1.041295    63A      1.060926    64A      1.088595  
      65A      1.110885    66A      1.119050    67A      1.149179  
      68A      1.157884    69A      1.161311    70A      1.174092  
      71A      1.184856    72A      1.189306    73A      1.216339  
      74A      1.218375    75A      1.228990    76A      1.251871  
      77A      1.267553    78A      1.295706    79A      1.311001  
      80A      1.340170    81A      1.410721    82A      1.424966  
      83A      1.571260    84A      1.624860    85A      1.654556  
      86A      1.732278    87A      1.801060    88A      1.864214  
      89A      1.926445    90A      1.945719    91A      1.976831  
      92A      2.021694    93A      2.088002    94A      2.095693  
      95A      2.146255    96A      2.170970    97A      2.200689  
      98A      2.223673    99A      2.255347   100A      2.291734  
     101A      2.301278   102A      2.397401   103A      2.411883  
     104A      2.446990   105A      2.471541   106A      2.510402  
     107A      2.567564   108A      2.598587   109A      2.612224  
     110A      2.615850   111A      2.626438   112A      2.689455  
     113A      2.730741   114A      2.818220   115A      2.859121  
     116A      2.914452   117A      3.013999   118A      3.049814  
     119A      3.079247   120A      3.173923   121A      3.382463  
     122A      3.411212   123A      4.479024   124A      4.564615  
     125A      4.682334   126A      4.739782   127A      4.768258  
     128A      4.887017   129A      5.134001  

    Final Occupation by Irrep:
              A 
    DOCC [    28 ]

  Energy converged.

  @DF-RHF Final Energy:  -309.06300608430195

   => Energetics <=

    Nuclear Repulsion Energy =            326.2986832405963469
    One-Electron Energy =               -1065.6134110997484186
    Two-Electron Energy =                 430.2517217748498410
    DFT Exchange-Correlation Energy =       0.0000000000000000
    Empirical Dispersion Energy =           0.0000000000000000
    PCM Polarization Energy =               0.0000000000000000
    EFP Energy =                            0.0000000000000000
    Total Energy =                       -309.0630060843022306

    Alert: EFP and PCM quantities not currently incorporated into SCF psivars.

Properties will be evaluated at   0.000000,   0.000000,   0.000000 Bohr
  ==> Properties <==


Properties computed using the SCF density matrix

  Nuclear Dipole Moment: (a.u.)
     X:    -4.4211      Y:    -5.3991      Z:     0.1246

  Electronic Dipole Moment: (a.u.)
     X:     4.0392      Y:     4.2899      Z:    -0.1145

  Dipole Moment: (a.u.)
     X:    -0.3819      Y:    -1.1092      Z:     0.0100     Total:     1.1732

  Dipole Moment: (Debye)
     X:    -0.9706      Y:    -2.8194      Z:     0.0255     Total:     2.9819


  Saving occupied orbitals to File 180.

*** tstop() called on cx1-3-15-2.cx1.hpc.ic.ac.uk at Tue Jul  5 16:35:32 2016
Module time:
	user time   =      10.38 seconds =       0.17 minutes
	system time =       0.04 seconds =       0.00 minutes
	total time  =         11 seconds =       0.18 minutes
Total time:
	user time   =      43.00 seconds =       0.72 minutes
	system time =       0.19 seconds =       0.00 minutes
	total time  =         46 seconds =       0.77 minutes

*** tstart() called on cx1-3-15-2.cx1.hpc.ic.ac.uk
*** at Tue Jul  5 16:35:32 2016


         ------------------------------------------------------------
                                   SCF GRAD                          
                          Rob Parrish, Justin Turney,                
                       Andy Simmonett, and Alex Sokolov              
         ------------------------------------------------------------

  ==> Geometry <==

    Molecular point group: c1
    Full point group: C1

    Geometry (in Angstrom), charge = 0, multiplicity = 1:

       Center              X                  Y                   Z               Mass       
    ------------   -----------------  -----------------  -----------------  -----------------
           O          1.200766763022     1.416913091652    -0.012022563374    15.994914619560
           C          0.860960807311     0.272733074648    -0.028129397156    12.000000000000
           C         -0.623930768120    -0.118363221646    -0.008991377990    12.000000000000
           C          1.911334912893    -0.823632291921     0.000780980392    12.000000000000
           C         -0.900245217254    -1.256795500741    -1.006035684132    12.000000000000
           C         -1.475684773466     1.103061861748    -0.371867643013    12.000000000000
           C         -0.976361125533    -0.581321384410     1.419102376520    12.000000000000
           H         -0.626017289343    -0.972422357300    -2.017948845525     1.007825032070
           H         -1.959080668182    -1.493997662940    -1.007802094012     1.007825032070
           H         -0.363607495019    -2.164998223752    -0.754231683355     1.007825032070
           H         -1.240056240388     1.463672460033    -1.366958903596     1.007825032070
           H         -2.529041872203     0.840468592517    -0.346620275222     1.007825032070
           H         -1.307837199385     1.918326630981     0.319309260060     1.007825032070
           H         -2.031938679790    -0.827266077883     1.475497818729     1.007825032070
           H         -0.418975800125    -1.464126592713     1.714465921198     1.007825032070
           H         -0.777111383431     0.202536044792     2.142659412392     1.007825032070
           H          2.034761412748    -1.232053182393    -0.997948035611     1.007825032070
           H          2.852295893622    -0.393862426121     0.315037998762     1.007825032070
           H          1.644512001950    -1.642748756833     0.657487919195     1.007825032070

  Nuclear repulsion =  326.298683240596347

  ==> Basis Set <==

  Basis Set: 6-31G*
    Number of shells: 66
    Number of basis function: 129
    Number of Cartesian functions: 129
    Spherical Harmonics?: false
    Max angular momentum: 2

  ==> DFJKGrad: Density-Fitted SCF Gradients <==

    Gradient:                    1
    J tasked:                  Yes
    K tasked:                  Yes
    wK tasked:                  No
    OpenMP threads:              1
    Integrals threads:           1
    Memory (MB):              1430
    Schwarz Cutoff:          0E+00
    Fitting Condition:       1E-12

   => Auxiliary Basis Set <=

  Basis Set: 
    Number of shells: 276
    Number of basis function: 867
    Number of Cartesian functions: 867
    Spherical Harmonics?: false
    Max angular momentum: 3


  -Total Gradient:
     Atom            X                  Y                   Z
    ------   -----------------  -----------------  -----------------
       1        0.000147605979    -0.000300258908     0.002497202349
       2       -0.000032740103     0.000224142687    -0.007435357510
       3       -0.000010007840     0.000085264189     0.002204558517
       4       -0.000041188313    -0.000001284036     0.002365162195
       5        0.000284093737     0.000001795597    -0.000048511722
       6        0.000073738673    -0.000061629600    -0.000051252718
       7       -0.000402602217    -0.000163773201    -0.000058381068
       8       -0.000008605969    -0.000004325374    -0.000002658462
       9        0.000003346377     0.000092454344     0.000076195266
      10       -0.000061059605    -0.000004634830    -0.000002429269
      11        0.000016095592     0.000024934011     0.000071412789
      12        0.000016009625    -0.000029803144     0.000046919403
      13       -0.000018803597     0.000046562523    -0.000018814327
      14        0.000007450979    -0.000031317483     0.000137728293
      15        0.000124194588    -0.000033824777    -0.000025438985
      16       -0.000023182015     0.000005275263     0.000029206833
      17       -0.000291199455     0.000443014228     0.000033085211
      18        0.000073908360    -0.000078247069     0.000050052429
      19        0.000142945204    -0.000214344428     0.000131320774


*** tstop() called on cx1-3-15-2.cx1.hpc.ic.ac.uk at Tue Jul  5 16:35:48 2016
Module time:
	user time   =      15.19 seconds =       0.25 minutes
	system time =       0.07 seconds =       0.00 minutes
	total time  =         16 seconds =       0.27 minutes
Total time:
	user time   =      58.20 seconds =       0.97 minutes
	system time =       0.26 seconds =       0.00 minutes
	total time  =         62 seconds =       1.03 minutes
CURRENT ENERGY: -309.0630060843

			-----------------------------------------
			 OPTKING 2.0: for geometry optimizations 
			  - R.A. King,  Bethel University        
			-----------------------------------------

	Previous internal coordinate definitions found.
	---Fragment 1 Geometry and Gradient---
	 O           2.2691203316        2.6775776973       -0.0227193522
	 C           1.6269801370        0.5153908185       -0.0531568569
	 C          -1.1790582776       -0.2236740731       -0.0169912420
	 C           3.6118995336       -1.5564394659        0.0014758391
	 C          -1.7012169131       -2.3749993014       -1.9011319229
	 C          -2.7886400803        2.0844848263       -0.7027280030
	 C          -1.8450551341       -1.0985382117        2.6817148462
	 H          -1.1830012313       -1.8376119408       -3.8133706682
	 H          -3.7021259351       -2.8232464261       -1.9044699538
	 H          -0.6871185855       -4.0912537211       -1.4252913223
	 H          -2.3433666837        2.7659400977       -2.5831779627
	 H          -4.7791965171        1.5882554631       -0.6550173923
	 H          -2.4714541332        3.6251119660        0.6034070532
	 H          -3.8398076236       -1.5633063262        2.7882867871
	 H          -0.7917495185       -2.7667982841        3.2398710552
	 H          -1.4685276894        0.3827376567        4.0490394855
	 H           3.8451418159       -2.3282430959       -1.8858484822
	 H           5.3900580889       -0.7442921194        0.5953355391
	 H           3.1076773059       -3.1043452556        1.2424721030
	             0.0001476060       -0.0003002589        0.0024972023
	            -0.0000327401        0.0002241427       -0.0074353575
	            -0.0000100078        0.0000852642        0.0022045585
	            -0.0000411883       -0.0000012840        0.0023651622
	             0.0002840937        0.0000017956       -0.0000485117
	             0.0000737387       -0.0000616296       -0.0000512527
	            -0.0004026022       -0.0001637732       -0.0000583811
	            -0.0000086060       -0.0000043254       -0.0000026585
	             0.0000033464        0.0000924543        0.0000761953
	            -0.0000610596       -0.0000046348       -0.0000024293
	             0.0000160956        0.0000249340        0.0000714128
	             0.0000160096       -0.0000298031        0.0000469194
	            -0.0000188036        0.0000465625       -0.0000188143
	             0.0000074510       -0.0000313175        0.0001377283
	             0.0001241946       -0.0000338248       -0.0000254390
	            -0.0000231820        0.0000052753        0.0000292068
	            -0.0002911995        0.0004430142        0.0000330852
	             0.0000739084       -0.0000782471        0.0000500524
	             0.0001429452       -0.0002143444        0.0001313208

	---Fragment 1 Intrafragment Coordinates---
	 - Coordinate -           - BOHR/RAD -       - ANG/DEG -
	 R(1,2)           =         2.255731	       1.193682
	 R(2,3)           =         2.901961	       1.535652
	 R(2,4)           =         2.869734	       1.518598
	 R(3,5)           =         2.907032	       1.538335
	 R(3,6)           =         2.896306	       1.532659
	 R(3,7)           =         2.914096	       1.542073
	 R(4,17)          =         2.052334	       1.086049
	 R(4,18)          =         2.043062	       1.081142
	 R(4,19)          =         2.047028	       1.083241
	 R(5,8)           =         2.052800	       1.086295
	 R(5,9)           =         2.050506	       1.085081
	 R(5,10)          =         2.049475	       1.084536
	 R(6,11)          =         2.049083	       1.084328
	 R(6,12)          =         2.052032	       1.085889
	 R(6,13)          =         2.044536	       1.081922
	 R(7,14)          =         2.050952	       1.085317
	 R(7,15)          =         2.050386	       1.085018
	 R(7,16)          =         2.050738	       1.085204
	 B(1,2,3)         =         2.116722	     121.279220
	 B(1,2,4)         =         2.088474	     119.660767
	 B(2,3,5)         =         1.932723	     110.736875
	 B(2,3,6)         =         1.908642	     109.357121
	 B(2,3,7)         =         1.884926	     107.998319
	 B(2,4,17)        =         1.909856	     109.426715
	 B(2,4,18)        =         1.897091	     108.695322
	 B(2,4,19)        =         1.968274	     112.773819
	 B(3,2,4)         =         2.076824	     118.993262
	 B(3,5,8)         =         1.944084	     111.387812
	 B(3,5,9)         =         1.915699	     109.761475
	 B(3,5,10)        =         1.960983	     112.356060
	 B(3,6,11)        =         1.940723	     111.195214
	 B(3,6,12)        =         1.918634	     109.929619
	 B(3,6,13)        =         1.942331	     111.287349
	 B(3,7,14)        =         1.916050	     109.781551
	 B(3,7,15)        =         1.959470	     112.269363
	 B(3,7,16)        =         1.937621	     111.017481
	 B(5,3,6)         =         1.913982	     109.663095
	 B(5,3,7)         =         1.914527	     109.694325
	 B(6,3,7)         =         1.908696	     109.360233
	 B(8,5,9)         =         1.877636	     107.580615
	 B(8,5,10)        =         1.886607	     108.094641
	 B(9,5,10)        =         1.875654	     107.467073
	 B(11,6,12)       =         1.888676	     108.213147
	 B(11,6,13)       =         1.877539	     107.575078
	 B(12,6,13)       =         1.894267	     108.533523
	 B(14,7,15)       =         1.876654	     107.524360
	 B(14,7,16)       =         1.883480	     107.915446
	 B(15,7,16)       =         1.887962	     108.172271
	 B(17,4,18)       =         1.894288	     108.534724
	 B(17,4,19)       =         1.876670	     107.525285
	 B(18,4,19)       =         1.916388	     109.800957
	 D(1,2,3,5)       =         2.392632	     137.087735
	 D(1,2,3,6)       =         0.281569	      16.132740
	 D(1,2,3,7)       =        -1.793973	    -102.787087
	 D(1,2,4,17)      =        -1.787161	    -102.396810
	 D(1,2,4,18)      =         0.278813	      15.974817
	 D(1,2,4,19)      =         2.408122	     137.975202
	 D(2,3,5,8)       =        -1.025718	     -58.769316
	 D(2,3,5,9)       =        -3.103325	    -177.807430
	 D(2,3,5,10)      =         1.093970	      62.679883
	 D(2,3,6,11)      =         1.065133	      61.027615
	 D(2,3,6,12)      =        -3.126904	    -179.158413
	 D(2,3,6,13)      =        -1.027725	     -58.884292
	 D(2,3,7,14)      =         3.101878	     177.724533
	 D(2,3,7,15)      =        -1.094899	     -62.733065
	 D(2,3,7,16)      =         1.020840	      58.489832
	 D(3,2,4,17)      =         1.405614	      80.535721
	 D(3,2,4,18)      =        -2.811597	    -161.092652
	 D(3,2,4,19)      =        -0.682289	     -39.092267
	 D(4,2,3,5)       =        -0.801001	     -45.893988
	 D(4,2,3,6)       =        -2.912064	    -166.848983
	 D(4,2,3,7)       =         1.295579	      74.231190
	 D(5,3,6,11)      =        -1.057280	     -60.577682
	 D(5,3,6,12)      =         1.033868	      59.236290
	 D(5,3,6,13)      =         3.133048	     179.510411
	 D(5,3,7,14)      =        -1.073330	     -61.497276
	 D(5,3,7,15)      =         1.013079	      58.045125
	 D(5,3,7,16)      =         3.128817	     179.268022
	 D(6,3,5,8)       =         1.082179	      62.004280
	 D(6,3,5,9)       =        -0.995428	     -57.033834
	 D(6,3,5,10)      =        -3.081318	    -176.546521
	 D(6,3,7,14)      =         1.026370	      58.806686
	 D(6,3,7,15)      =         3.112779	     178.349087
	 D(6,3,7,16)      =        -1.054668	     -60.428016
	 D(7,3,5,8)       =        -3.104523	    -177.876063
	 D(7,3,5,9)       =         1.101055	      63.085824
	 D(7,3,5,10)      =        -0.984835	     -56.426863
	 D(7,3,6,11)      =         3.125872	     179.099253
	 D(7,3,6,12)      =        -1.066165	     -61.086775
	 D(7,3,6,13)      =         1.033014	      59.187346

	Current energy   :      -309.0630060843

	Energy change for the previous step:
		Projected    :        -0.0000562356
		Actual       :         0.0001189757

	Performing BFGS update.
	Previous computed or guess Hessian on step 1.
	Steps to be used in Hessian update: 1
	Taking RFO optimization step.
	Going to follow RFO solution 1.
	Using RFO vector 1.
	Norm of target step-size    0.08600
	Projected energy change by RFO approximation:        -0.0001178233

	Back-transformation to cartesian coordinates...
	Successfully converged to displaced geometry.

	--- Internal Coordinate Step in ANG or DEG, aJ/ANG or AJ/DEG ---
	 ---------------------------------------------------------------------------
	   Coordinate                Previous        Force       Change         New 
	   ----------                --------       ------       ------       ------
	    1 R(1,2)          =      1.193682     0.001747     0.000259     1.193940
	    2 R(2,3)          =      1.535652    -0.000390    -0.000002     1.535650
	    3 R(2,4)          =      1.518598     0.001141    -0.000345     1.518253
	    4 R(3,5)          =      1.538335     0.000963     0.000011     1.538347
	    5 R(3,6)          =      1.532659     0.000624     0.000194     1.532853
	    6 R(3,7)          =      1.542073    -0.001741    -0.000225     1.541848
	    7 R(4,17)         =      1.086049     0.001896     0.000279     1.086328
	    8 R(4,18)         =      1.081142    -0.000394    -0.000406     1.080736
	    9 R(4,19)         =      1.083241    -0.001701     0.000290     1.083530
	   10 R(5,8)          =      1.086295     0.000007     0.000083     1.086378
	   11 R(5,9)          =      1.085081     0.000194    -0.000083     1.084998
	   12 R(5,10)         =      1.084536     0.000222    -0.000061     1.084475
	   13 R(6,11)         =      1.084328     0.000443    -0.000168     1.084160
	   14 R(6,12)         =      1.085889     0.000060     0.000336     1.086225
	   15 R(6,13)         =      1.081922    -0.000166    -0.000361     1.081560
	   16 R(7,14)         =      1.085317    -0.000058    -0.000062     1.085255
	   17 R(7,15)         =      1.085018    -0.000695    -0.000102     1.084915
	   18 R(7,16)         =      1.085204    -0.000157    -0.000166     1.085038
	   19 B(1,2,3)        =    121.279220    -0.000026     0.040536   121.319756
	   20 B(1,2,4)        =    119.660767     0.000015     0.002305   119.663072
	   21 B(2,3,5)        =    110.736875     0.000010    -0.007741   110.729134
	   22 B(2,3,6)        =    109.357121     0.000002    -0.017979   109.339143
	   23 B(2,3,7)        =    107.998319    -0.000014    -0.005098   107.993221
	   24 B(2,4,17)       =    109.426715     0.000060    -0.008566   109.418149
	   25 B(2,4,18)       =    108.695322    -0.000014     0.028383   108.723705
	   26 B(2,4,19)       =    112.773819    -0.000031    -0.003889   112.769930
	   27 B(3,2,4)        =    118.993262     0.000016     0.023092   119.016354
	   28 B(3,5,8)        =    111.387812    -0.000003    -0.007910   111.379902
	   29 B(3,5,9)        =    109.761475     0.000015    -0.020013   109.741462
	   30 B(3,5,10)       =    112.356060    -0.000005    -0.008892   112.347168
	   31 B(3,6,11)       =    111.195214    -0.000002     0.002760   111.197973
	   32 B(3,6,12)       =    109.929619     0.000005    -0.017771   109.911848
	   33 B(3,6,13)       =    111.287349    -0.000005     0.001141   111.288490
	   34 B(3,7,14)       =    109.781551    -0.000018    -0.007184   109.774367
	   35 B(3,7,15)       =    112.269363     0.000012     0.011752   112.281116
	   36 B(3,7,16)       =    111.017481    -0.000001     0.016818   111.034299
	   37 B(5,3,6)        =    109.663095    -0.000007     0.009708   109.672804
	   38 B(5,3,7)        =    109.694325     0.000006     0.016096   109.710421
	   39 B(6,3,7)        =    109.360233     0.000001     0.004820   109.365053
	   40 B(8,5,9)        =    107.580615    -0.000004     0.006294   107.586909
	   41 B(8,5,10)       =    108.094641     0.000001     0.005606   108.100247
	   42 B(9,5,10)       =    107.467073    -0.000003     0.027099   107.494172
	   43 B(11,6,12)      =    108.213147    -0.000003    -0.010466   108.202681
	   44 B(11,6,13)      =    107.575078     0.000004     0.031179   107.606257
	   45 B(12,6,13)      =    108.533523     0.000001    -0.006487   108.527036
	   46 B(14,7,15)      =    107.524360     0.000001    -0.010222   107.514138
	   47 B(14,7,16)      =    107.915446     0.000007    -0.001640   107.913805
	   48 B(15,7,16)      =    108.172271    -0.000002    -0.010845   108.161426
	   49 B(17,4,18)      =    108.534724    -0.000012    -0.011546   108.523178
	   50 B(17,4,19)      =    107.525285    -0.000015    -0.017073   107.508212
	   51 B(18,4,19)      =    109.800957     0.000013     0.011568   109.812525
	   52 D(1,2,3,5)      =    137.087735    -0.000014    -0.571618   136.516117
	   53 D(1,2,3,6)      =     16.132740    -0.000014    -0.567051    15.565689
	   54 D(1,2,3,7)      =   -102.787087    -0.000013    -0.559721  -103.346807
	   55 D(1,2,4,17)     =   -102.396810     0.000014     1.252124  -101.144686
	   56 D(1,2,4,18)     =     15.974817     0.000016     1.249832    17.224649
	   57 D(1,2,4,19)     =    137.975202     0.000013     1.282018   139.257220
	   58 D(2,3,5,8)      =    -58.769316    -0.000000    -0.043059   -58.812376
	   59 D(2,3,5,9)      =   -177.807430    -0.000001    -0.032971  -177.840401
	   60 D(2,3,5,10)     =     62.679883    -0.000002    -0.047831    62.632053
	   61 D(2,3,6,11)     =     61.027615     0.000002    -0.001926    61.025689
	   62 D(2,3,6,12)     =   -179.158413     0.000002    -0.024861  -179.183274
	   63 D(2,3,6,13)     =    -58.884292     0.000002    -0.044027   -58.928319
	   64 D(2,3,7,14)     =    177.724533    -0.000001    -0.027612   177.696922
	   65 D(2,3,7,15)     =    -62.733065    -0.000002    -0.037739   -62.770804
	   66 D(2,3,7,16)     =     58.489832    -0.000001    -0.031514    58.458318
	   67 D(3,2,4,17)     =     80.535721    -0.000016    -1.355785    79.179936
	   68 D(3,2,4,18)     =   -161.092652    -0.000013    -1.358077  -162.450729
	   69 D(3,2,4,19)     =    -39.092267    -0.000016    -1.325891   -40.418158
	   70 D(4,2,3,5)      =    -45.893988     0.000016     2.079907   -43.814080
	   71 D(4,2,3,6)      =   -166.848983     0.000017     2.084475  -164.764508
	   72 D(4,2,3,7)      =     74.231190     0.000018     2.091805    76.322995
	   73 D(5,3,6,11)     =    -60.577682    -0.000000     0.012932   -60.564750
	   74 D(5,3,6,12)     =     59.236290    -0.000001    -0.010004    59.226286
	   75 D(5,3,6,13)     =    179.510411    -0.000000    -0.029170   179.481241
	   76 D(5,3,7,14)     =    -61.497276     0.000001    -0.030614   -61.527891
	   77 D(5,3,7,15)     =     58.045125     0.000000    -0.040742    58.004383
	   78 D(5,3,7,16)     =    179.268022     0.000001    -0.034517   179.233506
	   79 D(6,3,5,8)      =     62.004280     0.000001    -0.064097    61.940183
	   80 D(6,3,5,9)      =    -57.033834     0.000000    -0.054008   -57.087842
	   81 D(6,3,5,10)     =   -176.546521    -0.000001    -0.068868  -176.615389
	   82 D(6,3,7,14)     =     58.806686    -0.000000    -0.005779    58.800907
	   83 D(6,3,7,15)     =    178.349087    -0.000001    -0.015906   178.333181
	   84 D(6,3,7,16)     =    -60.428016     0.000000    -0.009681   -60.437696
	   85 D(7,3,5,8)      =   -177.876063     0.000001    -0.042136  -177.918198
	   86 D(7,3,5,9)      =     63.085824     0.000000    -0.032047    63.053777
	   87 D(7,3,5,10)     =    -56.426863    -0.000000    -0.046907   -56.473770
	   88 D(7,3,6,11)     =    179.099253    -0.000001    -0.015803   179.083450
	   89 D(7,3,6,12)     =    -61.086775    -0.000002    -0.038739   -61.125513
	   90 D(7,3,6,13)     =     59.187346    -0.000001    -0.057904    59.129442
	 ---------------------------------------------------------------------------

  ==> Convergence Check <==

  Measures of convergence in internal coordinates in au.
  Criteria marked as inactive (o), active & met (*), and active & unmet ( ).
  ---------------------------------------------------------------------------------------------
   Step     Total Energy     Delta E     MAX Force     RMS Force      MAX Disp      RMS Disp   
  ---------------------------------------------------------------------------------------------
    Convergence Criteria    1.00e-06 *    3.00e-04 *             o    1.20e-03 *             o
  ---------------------------------------------------------------------------------------------
      2    -309.06300608    1.19e-04      1.01e-03      3.46e-04 o    3.65e-02      9.07e-03 o  ~
  ---------------------------------------------------------------------------------------------

	Writing optimization data to binary file.
	Structure for next step:
	Cartesian Geometry (in Angstrom)
	    O     1.2014992945   1.4169808779  -0.0003157147
	    C     0.8611027928   0.2726111750  -0.0067424838
	    C    -0.6238804286  -0.1185425476  -0.0001078563
	    C     1.9114127947  -0.8236942419  -0.0141290263
	    C    -0.8909472336  -1.2592297901  -0.9971125288
	    C    -1.4720903567   1.1023996287  -0.3735744263
	    C    -0.9890324624  -0.5779550735   1.4256902930
	    H    -0.6081994690  -0.9766225455  -2.0072629476
	    H    -1.9495861152  -1.4967172048  -1.0073005306
	    H    -0.3558043409  -2.1664054325  -0.7387705663
	    H    -1.2273667392   1.4606727139  -1.3671304959
	    H    -2.5259247917   0.8395997490  -0.3576532296
	    H    -1.3109808602   1.9186853787   0.3174352334
	    H    -2.0451119613  -0.8233469308   1.4732002267
	    H    -0.4348928528  -1.4602794080   1.7281377181
	    H    -0.7959564546   0.2071937482   2.1492714363
	    H     2.0173644609  -1.2155629887  -1.0217606197
	    H     2.8576304786  -0.3996733852   0.2906148331
	    H     1.6555071633  -1.6539900843   0.6332958792
			--------------------------
			 OPTKING Finished Execution 
			--------------------------

    Structure for next step:
    Molecular point group: c1
    Full point group: C1

    Geometry (in Angstrom), charge = 0, multiplicity = 1:

    O            1.201335565256     1.416980880088    -0.005271665362
    C            0.860939089620     0.272611264575    -0.011698433948
    C           -0.624044018410    -0.118542428084    -0.005063807039
    C            1.911249011242    -0.823694068607    -0.019084975899
    C           -0.891110803061    -1.259229583550    -1.002068403356
    C           -1.472253881722     1.102399654952    -0.378530348478
    C           -0.989196024323    -0.577954918918     1.420734233444
    H           -0.608363059967    -0.976622360549    -2.012218745016
    H           -1.949749603781    -1.496716980100    -1.012256404429
    H           -0.355967951151    -2.166405156614    -0.743726460551
    H           -1.227530282960     1.460672712742    -1.372086342166
    H           -2.526088236309     0.839599795258    -0.362609153036
    H           -1.311144397514     1.918685342570     0.312479258420
    H           -2.045275442625    -0.823346757543     1.468244163443
    H           -0.435056457046    -1.460279186078     1.723181635397
    H           -0.796120031297     0.207193842825     2.144315321472
    H            2.017200669346    -1.215562785473    -1.026716492430
    H            2.857466622902    -0.399673244284     0.285658860162
    H            1.655343399396    -1.653989847616     0.628339880165

gradient() will perform analytic gradient computation.

*** tstart() called on cx1-3-15-2.cx1.hpc.ic.ac.uk
*** at Tue Jul  5 16:35:48 2016


         ---------------------------------------------------------
                                   SCF
            by Justin Turney, Rob Parrish, and Andy Simmonett
                              RHF Reference
                        1 Threads,   2000 MiB Core
         ---------------------------------------------------------

  ==> Geometry <==

    Molecular point group: c1
    Full point group: C1

    Geometry (in Angstrom), charge = 0, multiplicity = 1:

       Center              X                  Y                   Z               Mass       
    ------------   -----------------  -----------------  -----------------  -----------------
           O          1.201335565256     1.416980880088    -0.005271665362    15.994914619560
           C          0.860939089620     0.272611264575    -0.011698433948    12.000000000000
           C         -0.624044018410    -0.118542428084    -0.005063807039    12.000000000000
           C          1.911249011242    -0.823694068607    -0.019084975899    12.000000000000
           C         -0.891110803061    -1.259229583550    -1.002068403356    12.000000000000
           C         -1.472253881722     1.102399654952    -0.378530348478    12.000000000000
           C         -0.989196024323    -0.577954918918     1.420734233444    12.000000000000
           H         -0.608363059967    -0.976622360549    -2.012218745016     1.007825032070
           H         -1.949749603781    -1.496716980100    -1.012256404429     1.007825032070
           H         -0.355967951151    -2.166405156614    -0.743726460551     1.007825032070
           H         -1.227530282960     1.460672712742    -1.372086342166     1.007825032070
           H         -2.526088236309     0.839599795258    -0.362609153036     1.007825032070
           H         -1.311144397514     1.918685342570     0.312479258420     1.007825032070
           H         -2.045275442625    -0.823346757543     1.468244163443     1.007825032070
           H         -0.435056457046    -1.460279186078     1.723181635397     1.007825032070
           H         -0.796120031297     0.207193842825     2.144315321472     1.007825032070
           H          2.017200669346    -1.215562785473    -1.026716492430     1.007825032070
           H          2.857466622902    -0.399673244284     0.285658860162     1.007825032070
           H          1.655343399396    -1.653989847616     0.628339880165     1.007825032070

  Running in c1 symmetry.

  Rotational constants: A =      0.10724  B =      0.07672  C =      0.06418 [cm^-1]
  Rotational constants: A =   3215.04830  B =   2299.92155  C =   1924.04507 [MHz]
  Nuclear repulsion =  326.293628196515670

  Charge       = 0
  Multiplicity = 1
  Electrons    = 56
  Nalpha       = 28
  Nbeta        = 28

  ==> Algorithm <==

  SCF Algorithm Type is DF.
  DIIS enabled.
  MOM disabled.
  Fractional occupation disabled.
  Guess Type is READ.
  Energy threshold   = 1.00e-08
  Density threshold  = 1.00e-08
  Integral threshold = 0.00e+00

  ==> Primary Basis <==

  Basis Set: 6-31G*
    Number of shells: 66
    Number of basis function: 129
    Number of Cartesian functions: 129
    Spherical Harmonics?: false
    Max angular momentum: 2

  ==> Pre-Iterations <==

   -------------------------------------------------------
    Irrep   Nso     Nmo     Nalpha   Nbeta   Ndocc  Nsocc
   -------------------------------------------------------
     A        129     129       0       0       0       0
   -------------------------------------------------------
    Total     129     129      28      28      28       0
   -------------------------------------------------------

 OEINTS: Overlap, kinetic, potential, dipole, and quadrupole integrals
         stored in file 35.

  ==> Integral Setup <==

  ==> DFJK: Density-Fitted J/K Matrices <==

    J tasked:                  Yes
    K tasked:                  Yes
    wK tasked:                  No
    OpenMP threads:              1
    Integrals threads:           1
    Memory (MB):              1430
    Algorithm:                Core
    Integral Cache:           NONE
    Schwarz Cutoff:          1E-12
    Fitting Condition:       1E-12

   => Auxiliary Basis Set <=

  Basis Set: 
    Number of shells: 276
    Number of basis function: 867
    Number of Cartesian functions: 867
    Spherical Harmonics?: false
    Max angular momentum: 3

  Minimum eigenvalue in the overlap matrix is 3.0025158841E-03.
  Using Symmetric Orthogonalization.
  SCF Guess: Reading in previously saved MOs, projecting if necessary.

  Using orbitals from previous SCF, no projection.
  Recomputing DOCC and SOCC from number of alpha and beta electrons from previous calculation.
              A 
    DOCC [    28 ]

  ==> Iterations <==

                           Total Energy        Delta E     RMS |[F,P]|

   @DF-RHF iter   0:  -309.06225803220241   -3.09062e+02   2.46667e-04 
   @DF-RHF iter   1:  -309.06308317777507   -8.25146e-04   4.49278e-05 
   @DF-RHF iter   2:  -309.06311683793410   -3.36602e-05   1.53407e-05 DIIS
   @DF-RHF iter   3:  -309.06312215622802   -5.31829e-06   3.44022e-06 DIIS
   @DF-RHF iter   4:  -309.06312242977640   -2.73548e-07   2.00987e-06 DIIS
   @DF-RHF iter   5:  -309.06312259056756   -1.60791e-07   1.03973e-06 DIIS
   @DF-RHF iter   6:  -309.06312263880307   -4.82355e-08   4.74575e-07 DIIS
   @DF-RHF iter   7:  -309.06312264964970   -1.08466e-08   1.08568e-07 DIIS
   @DF-RHF iter   8:  -309.06312265002805   -3.78350e-10   3.76275e-08 DIIS
   @DF-RHF iter   9:  -309.06312265006875   -4.06999e-11   1.53557e-08 DIIS
   @DF-RHF iter  10:  -309.06312265007534   -6.59384e-12   4.79111e-09 DIIS

  ==> Post-Iterations <==

    Orbital Energies (a.u.)
    -----------------------

    Doubly Occupied:                                                      

       1A    -20.548254     2A    -11.322786     3A    -11.246490  
       4A    -11.226767     5A    -11.224586     6A    -11.224124  
       7A    -11.208409     8A     -1.394455     9A     -1.109748  
      10A     -1.001988    11A     -0.946843    12A     -0.934912  
      13A     -0.835157    14A     -0.703593    15A     -0.664473  
      16A     -0.631643    17A     -0.620016    18A     -0.597173  
      19A     -0.591676    20A     -0.565228    21A     -0.546314  
      22A     -0.544557    23A     -0.524235    24A     -0.512858  
[...]

	---Fragment 1 Intrafragment Coordinates---
	 - Coordinate -           - BOHR/RAD -       - ANG/DEG -
	 R(1,2)           =         2.255782	       1.193709
	 R(2,3)           =         2.901908	       1.535624
	 R(2,4)           =         2.869651	       1.518554
	 R(3,5)           =         2.907123	       1.538383
	 R(3,6)           =         2.896394	       1.532706
	 R(3,7)           =         2.913935	       1.541988
	 R(4,17)          =         2.052298	       1.086030
	 R(4,18)          =         2.043278	       1.081256
	 R(4,19)          =         2.046865	       1.083154
	 R(5,8)           =         2.052718	       1.086252
	 R(5,9)           =         2.050541	       1.085100
	 R(5,10)          =         2.049466	       1.084531
	 R(6,11)          =         2.049139	       1.084358
	 R(6,12)          =         2.051907	       1.085823
	 R(6,13)          =         2.044699	       1.082008
	 R(7,14)          =         2.051030	       1.085358
	 R(7,15)          =         2.050515	       1.085086
	 R(7,16)          =         2.050867	       1.085272
	 B(1,2,3)         =         2.116709	     121.278474
	 B(1,2,4)         =         2.089006	     119.691240
	 B(2,3,5)         =         1.932850	     110.744172
	 B(2,3,6)         =         1.908767	     109.364300
	 B(2,3,7)         =         1.884889	     107.996181
	 B(2,4,17)        =         1.910218	     109.447409
	 B(2,4,18)        =         1.897087	     108.695085
	 B(2,4,19)        =         1.968250	     112.772398
	 B(3,2,4)         =         2.077463	     119.029841
	 B(3,5,8)         =         1.944003	     111.383177
	 B(3,5,9)         =         1.915874	     109.771505
	 B(3,5,10)        =         1.960926	     112.352765
	 B(3,6,11)        =         1.940590	     111.187611
	 B(3,6,12)        =         1.918674	     109.931901
	 B(3,6,13)        =         1.942196	     111.279636
	 B(3,7,14)        =         1.916090	     109.783898
	 B(3,7,15)        =         1.959450	     112.268206
	 B(3,7,16)        =         1.937601	     111.016332
	 B(5,3,6)         =         1.913859	     109.656030
	 B(5,3,7)         =         1.914459	     109.690414
	 B(6,3,7)         =         1.908673	     109.358925
	 B(8,5,9)         =         1.877626	     107.580022
	 B(8,5,10)        =         1.886610	     108.094799
	 B(9,5,10)        =         1.875626	     107.465473
	 B(11,6,12)       =         1.888635	     108.210801
	 B(11,6,13)       =         1.877732	     107.586101
	 B(12,6,13)       =         1.894353	     108.538406
	 B(14,7,15)       =         1.876647	     107.523940
	 B(14,7,16)       =         1.883465	     107.914596
	 B(15,7,16)       =         1.887984	     108.173505
	 B(17,4,18)       =         1.894343	     108.537866
	 B(17,4,19)       =         1.876287	     107.503335
	 B(18,4,19)       =         1.916388	     109.800970
	 D(1,2,3,5)       =         2.362813	     135.379221
	 D(1,2,3,6)       =         0.251741	      14.423689
	 D(1,2,3,7)       =        -1.823823	    -104.497383
	 D(1,2,4,17)      =        -1.763633	    -101.048742
	 D(1,2,4,18)      =         0.302613	      17.338442
	 D(1,2,4,19)      =         2.431902	     139.337735
	 D(2,3,5,8)       =        -1.025261	     -58.743109
	 D(2,3,5,9)       =        -3.102917	    -177.784066
	 D(2,3,5,10)      =         1.094332	      62.700610
	 D(2,3,6,11)      =         1.057792	      60.607029
	 D(2,3,6,12)      =        -3.134355	    -179.585302
	 D(2,3,6,13)      =        -1.035129	     -59.308541
	 D(2,3,7,14)      =         3.102647	     177.768559
	 D(2,3,7,15)      =        -1.094125	     -62.688732
	 D(2,3,7,16)      =         1.021613	      58.534127
	 D(3,2,4,17)      =         1.382143	      79.190935
	 D(3,2,4,18)      =        -2.834797	    -162.421882
	 D(3,2,4,19)      =        -0.705507	     -40.422589
	 D(4,2,3,5)       =        -0.783031	     -44.864397
	 D(4,2,3,6)       =        -2.894104	    -165.819929
	 D(4,2,3,7)       =         1.313517	      75.259000
	 D(5,3,6,11)      =        -1.064780	     -61.007382
	 D(5,3,6,12)      =         1.026259	      58.800287
	 D(5,3,6,13)      =         3.125484	     179.077048
	 D(5,3,7,14)      =        -1.072470	     -61.447997
	 D(5,3,7,15)      =         1.013944	      58.094712
	 D(5,3,7,16)      =         3.129682	     179.317570
	 D(6,3,5,8)       =         1.082794	      62.039501
	 D(6,3,5,9)       =        -0.994863	     -57.001456
	 D(6,3,5,10)      =        -3.080799	    -176.516781
	 D(6,3,7,14)      =         1.027023	      58.844070
	 D(6,3,7,15)      =         3.113437	     178.386779
	 D(6,3,7,16)      =        -1.054011	     -60.390363
	 D(7,3,5,8)       =        -3.104055	    -177.849265
	 D(7,3,5,9)       =         1.101473	      63.109779
	 D(7,3,5,10)      =        -0.984463	     -56.405546
	 D(7,3,6,11)      =         3.118546	     178.679516
	 D(7,3,6,12)      =        -1.073601	     -61.512815
	 D(7,3,6,13)      =         1.025624	      58.763946

	Current energy   :      -309.0631268739

	Energy change for the previous step:
		Projected    :        -0.0000051023
		Actual       :         0.0000007944

	Performing BFGS update.
	Previous computed or guess Hessian on step 1.
	Steps to be used in Hessian update: 5 4
	Taking RFO optimization step.
	Going to follow RFO solution 1.
	Using RFO vector 1.
	Norm of target step-size    0.02994
	Projected energy change by RFO approximation:        -0.0000027914

	Back-transformation to cartesian coordinates...
	Successfully converged to displaced geometry.

	--- Internal Coordinate Step in ANG or DEG, aJ/ANG or AJ/DEG ---
	 ---------------------------------------------------------------------------
	   Coordinate                Previous        Force       Change         New 
	   ----------                --------       ------       ------       ------
	    1 R(1,2)          =      1.193709     0.000764     0.000061     1.193770
	    2 R(2,3)          =      1.535624    -0.000208    -0.000043     1.535581
	    3 R(2,4)          =      1.518554    -0.000141    -0.000134     1.518420
	    4 R(3,5)          =      1.538383     0.000104     0.000013     1.538396
	    5 R(3,6)          =      1.532706     0.000040     0.000065     1.532771
	    6 R(3,7)          =      1.541988    -0.000051    -0.000064     1.541924
	    7 R(4,17)         =      1.086030     0.000312     0.000081     1.086111
	    8 R(4,18)         =      1.081256    -0.000604    -0.000139     1.081117
	    9 R(4,19)         =      1.083154     0.000352     0.000115     1.083269
	   10 R(5,8)          =      1.086252     0.000201     0.000038     1.086289
	   11 R(5,9)          =      1.085100    -0.000194    -0.000032     1.085068
	   12 R(5,10)         =      1.084531    -0.000100    -0.000007     1.084524
	   13 R(6,11)         =      1.084358    -0.000461    -0.000055     1.084302
	   14 R(6,12)         =      1.085823     0.000436     0.000095     1.085917
	   15 R(6,13)         =      1.082008    -0.000247    -0.000119     1.081889
	   16 R(7,14)         =      1.085358    -0.000023    -0.000028     1.085330
	   17 R(7,15)         =      1.085086    -0.000283    -0.000027     1.085059
	   18 R(7,16)         =      1.085272    -0.000336    -0.000064     1.085208
	   19 B(1,2,3)        =    121.278474    -0.000002     0.015824   121.294298
	   20 B(1,2,4)        =    119.691240    -0.000001    -0.004197   119.687043
	   21 B(2,3,5)        =    110.744172     0.000000    -0.004902   110.739269
	   22 B(2,3,6)        =    109.364300    -0.000003    -0.001954   109.362347
	   23 B(2,3,7)        =    107.996181     0.000002    -0.015128   107.981052
	   24 B(2,4,17)       =    109.447409    -0.000001    -0.007267   109.440141
	   25 B(2,4,18)       =    108.695085     0.000001     0.008124   108.703209
	   26 B(2,4,19)       =    112.772398     0.000001    -0.005844   112.766554
	   27 B(3,2,4)        =    119.029841     0.000003    -0.011699   119.018141
	   28 B(3,5,8)        =    111.383177     0.000000     0.000887   111.384063
	   29 B(3,5,9)        =    109.771505    -0.000001    -0.006547   109.764958
	   30 B(3,5,10)       =    112.352765    -0.000000    -0.002477   112.350288
	   31 B(3,6,11)       =    111.187611     0.000000     0.004447   111.192058
	   32 B(3,6,12)       =    109.931901    -0.000001    -0.007429   109.924472
	   33 B(3,6,13)       =    111.279636     0.000001     0.004058   111.283694
	   34 B(3,7,14)       =    109.783898     0.000000    -0.002848   109.781051
	   35 B(3,7,15)       =    112.268206     0.000002     0.000874   112.269080
	   36 B(3,7,16)       =    111.016332     0.000000     0.005428   111.021760
	   37 B(5,3,6)        =    109.656030     0.000001     0.009304   109.665334
	   38 B(5,3,7)        =    109.690414    -0.000001     0.004509   109.694923
	   39 B(6,3,7)        =    109.358925    -0.000000     0.007977   109.366903
	   40 B(8,5,9)        =    107.580022     0.000001     0.001114   107.581136
	   41 B(8,5,10)       =    108.094799     0.000000     0.000219   108.095019
	   42 B(9,5,10)       =    107.465473     0.000001     0.007271   107.472744
	   43 B(11,6,12)      =    108.210801     0.000001    -0.000368   108.210433
	   44 B(11,6,13)      =    107.586101    -0.000001     0.003139   107.589240
	   45 B(12,6,13)      =    108.538406    -0.000001    -0.003923   108.534483
	   46 B(14,7,15)      =    107.523940    -0.000001    -0.000656   107.523284
	   47 B(14,7,16)      =    107.914596    -0.000000     0.000974   107.915571
	   48 B(15,7,16)      =    108.173505    -0.000001    -0.003947   108.169558
	   49 B(17,4,18)      =    108.537866    -0.000001    -0.001876   108.535991
	   50 B(17,4,19)      =    107.503335     0.000000     0.001630   107.504965
	   51 B(18,4,19)      =    109.800970    -0.000001     0.005119   109.806089
	   52 D(1,2,3,5)      =    135.379221     0.000000     0.188321   135.567542
	   53 D(1,2,3,6)      =     14.423689     0.000000     0.181138    14.604827
	   54 D(1,2,3,7)      =   -104.497383     0.000000     0.181448  -104.315934
	   55 D(1,2,4,17)     =   -101.048742     0.000000    -0.010419  -101.059161
	   56 D(1,2,4,18)     =     17.338442    -0.000000    -0.012119    17.326323
	   57 D(1,2,4,19)     =    139.337735     0.000000    -0.003742   139.333992
	   58 D(2,3,5,8)      =    -58.743109     0.000000    -0.071189   -58.814299
	   59 D(2,3,5,9)      =   -177.784066     0.000000    -0.068894  -177.852960
	   60 D(2,3,5,10)     =     62.700610     0.000000    -0.072026    62.628584
	   61 D(2,3,6,11)     =     60.607029     0.000000     0.557958    61.164987
	   62 D(2,3,6,12)     =   -179.585302     0.000001     0.555482  -179.029820
	   63 D(2,3,6,13)     =    -59.308541     0.000000     0.548268   -58.760273
	   64 D(2,3,7,14)     =    177.768559    -0.000000     0.014989   177.783548
	   65 D(2,3,7,15)     =    -62.688732    -0.000000     0.012807   -62.675925
	   66 D(2,3,7,16)     =     58.534127    -0.000000     0.012203    58.546329
	   67 D(3,2,4,17)     =     79.190935     0.000000     0.008343    79.199278
	   68 D(3,2,4,18)     =   -162.421882    -0.000000     0.006643  -162.415239
	   69 D(3,2,4,19)     =    -40.422589     0.000000     0.015020   -40.407569
	   70 D(4,2,3,5)      =    -44.864397     0.000000     0.169195   -44.695201
	   71 D(4,2,3,6)      =   -165.819929     0.000000     0.162013  -165.657916
	   72 D(4,2,3,7)      =     75.259000     0.000000     0.162322    75.421322
	   73 D(5,3,6,11)     =    -61.007382     0.000001     0.559374   -60.448008
	   74 D(5,3,6,12)     =     58.800287     0.000001     0.556898    59.357185
	   75 D(5,3,6,13)     =    179.077048     0.000000     0.549685   179.626732
	   76 D(5,3,7,14)     =    -61.447997    -0.000000     0.002468   -61.445530
	   77 D(5,3,7,15)     =     58.094712    -0.000000     0.000285    58.094997
	   78 D(5,3,7,16)     =    179.317570    -0.000000    -0.000319   179.317251
	   79 D(6,3,5,8)      =     62.039501    -0.000000    -0.070689    61.968812
	   80 D(6,3,5,9)      =    -57.001456    -0.000000    -0.068394   -57.069849
	   81 D(6,3,5,10)     =   -176.516781    -0.000000    -0.071525  -176.588306
	   82 D(6,3,7,14)     =     58.844070     0.000000     0.021616    58.865686
	   83 D(6,3,7,15)     =    178.386779     0.000000     0.019433   178.406212
	   84 D(6,3,7,16)     =    -60.390363     0.000000     0.018829   -60.371534
	   85 D(7,3,5,8)      =   -177.849265    -0.000000    -0.052298  -177.901564
	   86 D(7,3,5,9)      =     63.109779    -0.000000    -0.050003    63.059775
	   87 D(7,3,5,10)     =    -56.405546    -0.000000    -0.053135   -56.458681
	   88 D(7,3,6,11)     =    178.679516     0.000001     0.543165   179.222681
	   89 D(7,3,6,12)     =    -61.512815     0.000001     0.540689   -60.972125
	   90 D(7,3,6,13)     =     58.763946     0.000000     0.533476    59.297422
	 ---------------------------------------------------------------------------

  ==> Convergence Check <==

  Measures of convergence in internal coordinates in au.
  Criteria marked as inactive (o), active & met (*), and active & unmet ( ).
  ---------------------------------------------------------------------------------------------
   Step     Total Energy     Delta E     MAX Force     RMS Force      MAX Disp      RMS Disp   
  ---------------------------------------------------------------------------------------------
    Convergence Criteria    1.00e-06 *    3.00e-04 *             o    1.20e-03 *             o
  ---------------------------------------------------------------------------------------------
      6    -309.06312687    7.94e-07 *    9.27e-05 *    2.35e-05 o    9.76e-03      3.16e-03 o  ~
  ---------------------------------------------------------------------------------------------


  **** Optimization is complete! (in 6 steps) ****

  ==> Optimization Summary <==

  Measures of convergence in internal coordinates in au.
  --------------------------------------------------------------------------------------------------------------- ~
   Step         Total Energy             Delta E       MAX Force       RMS Force        MAX Disp        RMS Disp  ~
  --------------------------------------------------------------------------------------------------------------- ~
      1    -309.063125060030   -309.063125060030      0.00092124      0.00015585      0.03031267      0.00909868  ~
      2    -309.063006084302      0.000118975728      0.00101328      0.00034582      0.03650888      0.00906512  ~
      3    -309.063122650075     -0.000116565773      0.00037618      0.00011253      0.08240615      0.01963358  ~
      4    -309.063043182744      0.000079467331      0.00293213      0.00059912      0.05939872      0.01424530  ~
      5    -309.063127668302     -0.000084485558      0.00016172      0.00003113      0.01076335      0.00351204  ~
      6    -309.063126873874      0.000000794428      0.00009271      0.00002351      0.00976292      0.00315599  ~
  --------------------------------------------------------------------------------------------------------------- ~

	Writing optimization data to binary file.
	Final energy is   -309.0631268738741
	Final (previous) structure:
	Cartesian Geometry (in Angstrom)
	    O     1.2007986803   1.4168241116  -0.0271225264
	    C     0.8611334464   0.2725261148  -0.0148693076
	    C    -0.6238895332  -0.1182705692  -0.0036992772
	    C     1.9117500693  -0.8238784201  -0.0045043390
	    C    -0.8953328966  -1.2564602488  -1.0024313267
	    C    -1.4736492525   1.1033403396  -0.3707987332
	    C    -0.9839006666  -0.5814827662   1.4223279691
	    H    -0.6153019968  -0.9720635213  -2.0127005204
	    H    -1.9542613011  -1.4932126461  -1.0102067459
	    H    -0.3605398812  -2.1649461027  -0.7477603831
	    H    -1.2274762460   1.4685279099  -1.3616915587
	    H    -2.5267162290   0.8389353972  -0.3585207004
	    H    -1.3148191670   1.9158553356   0.3258603034
	    H    -2.0396793486  -0.8280004792   1.4729513468
	    H    -0.4276378871  -1.4640704161   1.7206942535
	    H    -0.7890232317   0.2024934574   2.1470484428
	    H     2.0192042185  -1.2311801782  -1.0055133700
	    H     2.8577484158  -0.3945719870   0.2953265711
	    H     1.6554542916  -1.6439205273   0.6550914946
	Saving final (previous) structure.
			--------------------------
			 OPTKING Finished Execution 
			--------------------------

    Final optimized geometry and variables:
    Molecular point group: c1
    Full point group: C1

    Geometry (in Angstrom), charge = 0, multiplicity = 1:

    O            1.200798588565     1.416824003387    -0.027122524286
    C            0.861133380644     0.272526094000    -0.014869306494
    C           -0.623889485599    -0.118270560216    -0.003699276893
    C            1.911749923288    -0.823878357173    -0.004504338666
    C           -0.895332828248    -1.256460152897    -1.002431250141
    C           -1.473649139926     1.103340255344    -0.370798704892
    C           -0.983900591428    -0.581482721808     1.422327860446
    H           -0.615301949813    -0.972063447088    -2.012700366677
    H           -1.954261151856    -1.493212532112    -1.010206668751
    H           -0.360539853620    -2.164945937391    -0.747760325982
    H           -1.227476152306     1.468527797755    -1.361691454738
    H           -2.526716036085     0.838935333107    -0.358520673069
    H           -1.314819066636     1.915855189324     0.325860278466
    H           -2.039679192861    -0.828000415945     1.472951234352
    H           -0.427637854464    -1.464070304278     1.720694122143
    H           -0.789023171448     0.202493441939     2.147048278841
    H            2.019204064272    -1.231180084178    -1.005513293259
    H            2.857748197571    -0.394571956902     0.295326548526
    H            1.655454165160    -1.643920401717     0.655091444535

	Cleaning optimization helper files.


Properties will be evaluated at   0.000000,   0.000000,   0.000000 Bohr

Properties computed using the  density matrix

  Nuclear Dipole Moment: (a.u.)
     X:    -4.4219      Y:    -5.3988      Z:     0.1129

  Electronic Dipole Moment: (a.u.)
     X:     4.0408      Y:     4.2883      Z:    -0.0907

  Dipole Moment: (a.u.)
     X:    -0.3811      Y:    -1.1105      Z:     0.0222     Total:     1.1743

  Dipole Moment: (Debye)
     X:    -0.9687      Y:    -2.8225      Z:     0.0564     Total:     2.9847

  Quadrupole Moment: (Debye Ang)
    XX:   -45.2943     YY:   -49.2560     ZZ:   -44.1128
    XY:    -3.8242     XZ:    -0.1688     YZ:     0.1994

  Traceless Quadrupole Moment: (Debye Ang)
    XX:     0.9267     YY:    -3.0350     ZZ:     2.1083
    XY:    -3.8242     XZ:    -0.1688     YZ:     0.1994

  Mulliken Charges: (a.u.)
   Center  Symbol    Alpha    Beta     Spin     Total
       1     O     4.26409  4.26409  0.00000 -0.52817
       2     C     2.72508  2.72508  0.00000  0.54984
       3     C     3.06973  3.06973  0.00000 -0.13946
       4     C     3.28914  3.28914  0.00000 -0.57827
       5     C     3.24167  3.24167  0.00000 -0.48335
       6     C     3.22641  3.22641  0.00000 -0.45281
       7     C     3.24115  3.24115  0.00000 -0.48231
       8     H     0.41508  0.41508  0.00000  0.16984
       9     H     0.41343  0.41343  0.00000  0.17314
      10     H     0.41713  0.41713  0.00000  0.16574
      11     H     0.41496  0.41496  0.00000  0.17007
      12     H     0.42365  0.42365  0.00000  0.15270
      13     H     0.40696  0.40696  0.00000  0.18608
      14     H     0.41296  0.41296  0.00000  0.17409
      15     H     0.41852  0.41852  0.00000  0.16295
      16     H     0.40976  0.40976  0.00000  0.18048
      17     H     0.40386  0.40386  0.00000  0.19229
      18     H     0.39599  0.39599  0.00000  0.20802
      19     H     0.41044  0.41044  0.00000  0.17912

   Total alpha = 28.00000, Total beta = 28.00000, Total charge = -0.00000


*** PSI4 exiting successfully. Buy a developer a beer!
