    -----------------------------------------------------------------------
          Psi4: An Open-Source Ab Initio Electronic Structure Package
                              Psi4 (no tag) Driver

                          Git: Rev {detached?}  

    J. M. Turney, A. C. Simmonett, R. M. Parrish, E. G. Hohenstein,
    F. A. Evangelista, J. T. Fermann, B. J. Mintz, L. A. Burns, J. J. Wilke,
    M. L. Abrams, N. J. Russ, M. L. Leininger, C. L. Janssen, E. T. Seidl,
    W. D. Allen, H. F. Schaefer, R. A. King, E. F. Valeev, C. D. Sherrill,
    and T. D. Crawford, WIREs Comput. Mol. Sci. 2, 556-565 (2012)
    (doi: 10.1002/wcms.93)

                         Additional Contributions by
    A. E. DePrince, M. Saitow, U. Bozkaya, A. Yu. Sokolov
    -----------------------------------------------------------------------


    Psi4 started on: Tue Jul  5 16:41:56 2016

    Process ID:  22549
    PSI4DATADIR: /export131/home/mjharvey/miniconda3/share
    Memory level set to 256.000 MB

  ==> Input File <==

--------------------------------------------------------------------------
set {
	reference rhf
	basis 6-31G*
}


set_num_threads( 1 )
memory 2 gb

molecule MOL {
0 1

H	 -2.436592	 0.114959	 0.943863
O	 -2.035884	 -0.060112	 0.102722
C	 -0.955155	 0.788182	 -0.092531
C	 0.353668	 0.040312	 -0.004810
H	 -0.985057	 1.290372	 -1.054184
H	 -0.974469	 1.533190	 0.688632
F	 0.548315	 -0.418436	 1.226545
F	 0.348852	 -0.998654	 -0.824399
F	 1.388009	 0.795454	 -0.313761

	symmetry c1
}
set optking {
	frozen_dihedral = ("
		7 4 3 5
	")
}

ee = energy('scf')
oeprop('DIPOLE', 'QUADRUPOLE', 'MULLIKEN_CHARGES')
f=open( 'psi4out.xyz', 'w' )
f.write( "9  " )
f.write( str(ee) + "\n" )
f.write( MOL.save_string_xyz() )
f.close()
--------------------------------------------------------------------------

  Memory set to   2.000 GiB by Python script.

*** tstart() called on cx1-3-2-1.cx1.hpc.ic.ac.uk
*** at Tue Jul  5 16:41:57 2016


         ---------------------------------------------------------
                                   SCF
            by Justin Turney, Rob Parrish, and Andy Simmonett
                              RHF Reference
                        1 Threads,   2000 MiB Core
         ---------------------------------------------------------

  ==> Geometry <==

    Molecular point group: c1
    Full point group: C1

    Geometry (in Angstrom), charge = 0, multiplicity = 1:

       Center              X                  Y                   Z               Mass       
    ------------   -----------------  -----------------  -----------------  -----------------
           H         -2.428618510007     0.113640526035     0.916497243669     1.007825032070
           O         -2.027910510007    -0.061430473965     0.075356243669    15.994914619560
           C         -0.947181510007     0.786863526035    -0.119896756331    12.000000000000
           C          0.361641489993     0.038993526035    -0.032175756331    12.000000000000
           H         -0.977083510007     1.289053526035    -1.081549756331     1.007825032070
           H         -0.966495510007     1.531871526035     0.661266243669     1.007825032070
           F          0.556288489993    -0.419754473965     1.199179243669    18.998403224000
           F          0.356825489993    -0.999972473965    -0.851764756331    18.998403224000
           F          1.395982489993     0.794135526035    -0.341126756331    18.998403224000

  Running in c1 symmetry.

  Rotational constants: A =      0.18398  B =      0.09506  C =      0.09498 [cm^-1]
  Rotational constants: A =   5515.51672  B =   2849.86756  C =   2847.37107 [MHz]
  Nuclear repulsion =  276.620574469978067

  Charge       = 0
  Multiplicity = 1
  Electrons    = 50
  Nalpha       = 25
  Nbeta        = 25

  ==> Algorithm <==

  SCF Algorithm Type is DF.
  DIIS enabled.
  MOM disabled.
  Fractional occupation disabled.
  Guess Type is CORE.
  Energy threshold   = 1.00e-06
  Density threshold  = 1.00e-06
  Integral threshold = 0.00e+00

  ==> Primary Basis <==

  Basis Set: 6-31G*
    Number of shells: 42
    Number of basis function: 96
    Number of Cartesian functions: 96
    Spherical Harmonics?: false
    Max angular momentum: 2

  ==> Pre-Iterations <==

   -------------------------------------------------------
    Irrep   Nso     Nmo     Nalpha   Nbeta   Ndocc  Nsocc
   -------------------------------------------------------
     A         96      96       0       0       0       0
   -------------------------------------------------------
    Total      96      96      25      25      25       0
   -------------------------------------------------------

 OEINTS: Overlap, kinetic, potential, dipole, and quadrupole integrals
         stored in file 35.

  ==> Integral Setup <==

  ==> DFJK: Density-Fitted J/K Matrices <==

    J tasked:                  Yes
    K tasked:                  Yes
    wK tasked:                  No
    OpenMP threads:              1
    Integrals threads:           1
    Memory (MB):              1430
    Algorithm:                Core
    Integral Cache:           NONE
    Schwarz Cutoff:          1E-12
    Fitting Condition:       1E-12

   => Auxiliary Basis Set <=

  Basis Set: 
    Number of shells: 171
    Number of basis function: 561
    Number of Cartesian functions: 561
    Spherical Harmonics?: false
    Max angular momentum: 3

  Minimum eigenvalue in the overlap matrix is 1.9729305423E-03.
  Using Symmetric Orthogonalization.
  SCF Guess: Core (One-Electron) Hamiltonian.

  ==> Iterations <==

                           Total Energy        Delta E     RMS |[F,P]|

   @DF-RHF iter   1:  -397.38443552201778   -3.97384e+02   8.93027e-02 
   @DF-RHF iter   2:  -266.47903874514810    1.30905e+02   9.69464e-02 DIIS
   @DF-RHF iter   3:  -397.48373764263096   -1.31005e+02   6.45539e-02 DIIS
   @DF-RHF iter   4:  -446.40041388202729   -4.89167e+01   3.01168e-02 DIIS
   @DF-RHF iter   5:  -450.16218795627873   -3.76177e+00   1.22830e-02 DIIS
   @DF-RHF iter   6:  -450.59709358035224   -4.34906e-01   3.82487e-03 DIIS
   @DF-RHF iter   7:  -450.64696570052223   -4.98721e-02   1.43292e-03 DIIS
   @DF-RHF iter   8:  -450.65673560169142   -9.76990e-03   5.59863e-04 DIIS
   @DF-RHF iter   9:  -450.65829696937948   -1.56137e-03   1.06808e-04 DIIS
   @DF-RHF iter  10:  -450.65836267586707   -6.57065e-05   4.33710e-05 DIIS
   @DF-RHF iter  11:  -450.65837324854641   -1.05727e-05   1.07865e-05 DIIS
   @DF-RHF iter  12:  -450.65837430323239   -1.05469e-06   3.60730e-06 DIIS
   @DF-RHF iter  13:  -450.65837437396402   -7.07316e-08   1.23186e-06 DIIS
   @DF-RHF iter  14:  -450.65837438142324   -7.45922e-09   1.81604e-07 DIIS

  ==> Post-Iterations <==

    Orbital Energies (a.u.)
    -----------------------

    Doubly Occupied:                                                      

       1A    -26.343264     2A    -26.333598     3A    -26.330901  
       4A    -20.589736     5A    -11.496097     6A    -11.310465  
       7A     -1.734448     8A     -1.635268     9A     -1.627607  
      10A     -1.402317    11A     -1.046797    12A     -0.918459  
      13A     -0.824866    14A     -0.823897    15A     -0.790690  
      16A     -0.737525    17A     -0.706769    18A     -0.695767  
      19A     -0.662607    20A     -0.651470    21A     -0.636105  
      22A     -0.633803    23A     -0.600600    24A     -0.528909  
      25A     -0.479208  

    Virtual:                                                              

      26A      0.195255    27A      0.271505    28A      0.295365  
      29A      0.344846    30A      0.416674    31A      0.427624  
      32A      0.482124    33A      0.488953    34A      0.698770  
      35A      0.741850    36A      0.760666    37A      0.783367  
      38A      0.818635    39A      0.881103    40A      0.941248  
      41A      1.055547    42A      1.120327    43A      1.148824  
      44A      1.197985    45A      1.241711    46A      1.324892  
      47A      1.336185    48A      1.349275    49A      1.395834  
      50A      1.448968    51A      1.469607    52A      1.532573  
      53A      1.620589    54A      1.630622    55A      1.653700  
      56A      1.675464    57A      1.679441    58A      1.686164  
      59A      1.754424    60A      1.870205    61A      1.921626  
      62A      1.948676    63A      1.980446    64A      1.989173  
      65A      2.123558    66A      2.136612    67A      2.148143  
      68A      2.162449    69A      2.268029    70A      2.275343  
      71A      2.326565    72A      2.376567    73A      2.397228  
      74A      2.409581    75A      2.420650    76A      2.442365  
      77A      2.508201    78A      2.554109    79A      2.634873  
      80A      2.718769    81A      2.833133    82A      2.854269  
      83A      2.904571    84A      3.124770    85A      3.147452  
      86A      3.179812    87A      3.267757    88A      3.420950  
      89A      3.428175    90A      3.455932    91A      4.137491  
      92A      4.608085    93A      4.750992    94A      4.895830  
      95A      5.125625    96A      5.698977  

    Final Occupation by Irrep:
              A 
    DOCC [    25 ]

  Energy converged.

  @DF-RHF Final Energy:  -450.65837438142324

   => Energetics <=

    Nuclear Repulsion Energy =            276.6205744699780666
    One-Electron Energy =               -1175.4755543385851979
    Two-Electron Energy =                 448.1966054871840015
    DFT Exchange-Correlation Energy =       0.0000000000000000
    Empirical Dispersion Energy =           0.0000000000000000
    PCM Polarization Energy =               0.0000000000000000
    EFP Energy =                            0.0000000000000000
    Total Energy =                       -450.6583743814231866

    Alert: EFP and PCM quantities not currently incorporated into SCF psivars.

Properties will be evaluated at   0.000000,   0.000000,   0.000000 Bohr
  ==> Properties <==


Properties computed using the SCF density matrix

  Nuclear Dipole Moment: (a.u.)
     X:    -6.2868      Y:     3.3409      Z:     0.4596

  Electronic Dipole Moment: (a.u.)
     X:     5.7192      Y:    -2.4399      Z:     0.0026

  Dipole Moment: (a.u.)
     X:    -0.5676      Y:     0.9010      Z:     0.4622     Total:     1.1609

  Dipole Moment: (Debye)
     X:    -1.4427      Y:     2.2901      Z:     1.1748     Total:     2.9506


  Saving occupied orbitals to File 180.

*** tstop() called on cx1-3-2-1.cx1.hpc.ic.ac.uk at Tue Jul  5 16:42:01 2016
Module time:
	user time   =       3.98 seconds =       0.07 minutes
	system time =       0.03 seconds =       0.00 minutes
	total time  =          4 seconds =       0.07 minutes
Total time:
	user time   =       3.98 seconds =       0.07 minutes
	system time =       0.03 seconds =       0.00 minutes
	total time  =          4 seconds =       0.07 minutes


Properties will be evaluated at   0.000000,   0.000000,   0.000000 Bohr

Properties computed using the  density matrix

  Nuclear Dipole Moment: (a.u.)
     X:    -6.2868      Y:     3.3409      Z:     0.4596

  Electronic Dipole Moment: (a.u.)
     X:     5.7192      Y:    -2.4399      Z:     0.0026

  Dipole Moment: (a.u.)
     X:    -0.5676      Y:     0.9010      Z:     0.4622     Total:     1.1609

  Dipole Moment: (Debye)
     X:    -1.4427      Y:     2.2901      Z:     1.1748     Total:     2.9506

  Quadrupole Moment: (Debye Ang)
    XX:   -32.4847     YY:   -31.9713     ZZ:   -31.0846
    XY:    -2.9359     XZ:    -3.9158     YZ:     0.0175

  Traceless Quadrupole Moment: (Debye Ang)
    XX:    -0.6378     YY:    -0.1244     ZZ:     0.7623
    XY:    -2.9359     XZ:    -3.9158     YZ:     0.0175

  Mulliken Charges: (a.u.)
   Center  Symbol    Alpha    Beta     Spin     Total
       1     H     0.27027  0.27027  0.00000  0.45947
       2     O     4.36089  4.36089  0.00000 -0.72179
       3     C     3.05722  3.05722  0.00000 -0.11445
       4     C     2.45570  2.45570  0.00000  1.08861
       5     H     0.40167  0.40167  0.00000  0.19666
       6     H     0.41188  0.41188  0.00000  0.17623
       7     F     4.68501  4.68501  0.00000 -0.37001
       8     F     4.67855  4.67855  0.00000 -0.35710
       9     F     4.67881  4.67881  0.00000 -0.35762

   Total alpha = 25.00000, Total beta = 25.00000, Total charge =  0.00000


*** PSI4 exiting successfully. Buy a developer a beer!
