    -----------------------------------------------------------------------
          Psi4: An Open-Source Ab Initio Electronic Structure Package
                              Psi4 (no tag) Driver

                          Git: Rev {detached?}  

    J. M. Turney, A. C. Simmonett, R. M. Parrish, E. G. Hohenstein,
    F. A. Evangelista, J. T. Fermann, B. J. Mintz, L. A. Burns, J. J. Wilke,
    M. L. Abrams, N. J. Russ, M. L. Leininger, C. L. Janssen, E. T. Seidl,
    W. D. Allen, H. F. Schaefer, R. A. King, E. F. Valeev, C. D. Sherrill,
    and T. D. Crawford, WIREs Comput. Mol. Sci. 2, 556-565 (2012)
    (doi: 10.1002/wcms.93)

                         Additional Contributions by
    A. E. DePrince, M. Saitow, U. Bozkaya, A. Yu. Sokolov
    -----------------------------------------------------------------------


    Psi4 started on: Tue Jul  5 16:39:46 2016

    Process ID:  12430
    PSI4DATADIR: /export131/home/mjharvey/miniconda3/share
    Memory level set to 256.000 MB

  ==> Input File <==

--------------------------------------------------------------------------
set {
	reference rhf
	basis 6-31G*
}


set_num_threads( 1 )
memory 2 gb

molecule MOL {
0 1

O	 0.391030	 1.298905	 0.000133
C	 0.503002	 0.111612	 0.000005
C	 -0.702327	 -0.811998	 -0.000075
C	 1.863306	 -0.554493	 0.000030
C	 -1.286503	 -1.053603	 1.386473
H	 -1.450083	 -0.385084	 -0.665940
H	 -0.403647	 -1.750737	 -0.463028
H	 -1.607570	 -0.123716	 1.839733
H	 -2.141991	 -1.718189	 1.325457
H	 -0.551858	 -1.501477	 2.044444
H	 1.974395	 -1.189404	 -0.874166
H	 2.638695	 0.198920	 -0.000196
H	 1.974487	 -1.188655	 0.874727

	symmetry c1
}
ee = energy('scf')
oeprop('DIPOLE', 'QUADRUPOLE', 'MULLIKEN_CHARGES')
f=open( 'psi4out.xyz', 'w' )
f.write( "13  " )
f.write( str(ee) + "\n" )
f.write( MOL.save_string_xyz() )
f.close()
--------------------------------------------------------------------------

  Memory set to   2.000 GiB by Python script.

*** tstart() called on cx1-3-4-4.cx1.hpc.ic.ac.uk
*** at Tue Jul  5 16:39:46 2016


         ---------------------------------------------------------
                                   SCF
            by Justin Turney, Rob Parrish, and Andy Simmonett
                              RHF Reference
                        1 Threads,   2000 MiB Core
         ---------------------------------------------------------

  ==> Geometry <==

    Molecular point group: c1
    Full point group: C1

    Geometry (in Angstrom), charge = 0, multiplicity = 1:

       Center              X                  Y                   Z               Mass       
    ------------   -----------------  -----------------  -----------------  -----------------
           O          0.235320505356     1.502134020915    -0.287863173026    15.994914619560
           C          0.347292505356     0.314841020915    -0.287991173026    12.000000000000
           C         -0.858036494644    -0.608768979085    -0.288071173026    12.000000000000
           C          1.707596505356    -0.351263979085    -0.287966173026    12.000000000000
           C         -1.442212494644    -0.850373979085     1.098476826974    12.000000000000
           H         -1.605792494644    -0.181854979085    -0.953936173026     1.007825032070
           H         -0.559356494644    -1.547507979085    -0.751024173026     1.007825032070
           H         -1.763279494644     0.079513020915     1.551736826974     1.007825032070
           H         -2.297700494644    -1.514959979085     1.037460826974     1.007825032070
           H         -0.707567494644    -1.298247979085     1.756447826974     1.007825032070
           H          1.818685505356    -0.986174979085    -1.162162173026     1.007825032070
           H          2.482985505356     0.402149020915    -0.288192173026     1.007825032070
           H          1.818777505356    -0.985425979085     0.586730826974     1.007825032070

  Running in c1 symmetry.

  Rotational constants: A =      0.26371  B =      0.12374  C =      0.09921 [cm^-1]
  Rotational constants: A =   7905.76023  B =   3709.69503  C =   2974.37850 [MHz]
  Nuclear repulsion =  176.659607434980813

  Charge       = 0
  Multiplicity = 1
  Electrons    = 40
  Nalpha       = 20
  Nbeta        = 20

  ==> Algorithm <==

  SCF Algorithm Type is DF.
  DIIS enabled.
  MOM disabled.
  Fractional occupation disabled.
  Guess Type is CORE.
  Energy threshold   = 1.00e-06
  Density threshold  = 1.00e-06
  Integral threshold = 0.00e+00

  ==> Primary Basis <==

  Basis Set: 6-31G*
    Number of shells: 46
    Number of basis function: 91
    Number of Cartesian functions: 91
    Spherical Harmonics?: false
    Max angular momentum: 2

  ==> Pre-Iterations <==

   -------------------------------------------------------
    Irrep   Nso     Nmo     Nalpha   Nbeta   Ndocc  Nsocc
   -------------------------------------------------------
     A         91      91       0       0       0       0
   -------------------------------------------------------
    Total      91      91      20      20      20       0
   -------------------------------------------------------

 OEINTS: Overlap, kinetic, potential, dipole, and quadrupole integrals
         stored in file 35.

  ==> Integral Setup <==

  ==> DFJK: Density-Fitted J/K Matrices <==

    J tasked:                  Yes
    K tasked:                  Yes
    wK tasked:                  No
    OpenMP threads:              1
    Integrals threads:           1
    Memory (MB):              1430
    Algorithm:                Core
    Integral Cache:           NONE
    Schwarz Cutoff:          1E-12
    Fitting Condition:       1E-12

   => Auxiliary Basis Set <=

  Basis Set: 
    Number of shells: 192
    Number of basis function: 605
    Number of Cartesian functions: 605
    Spherical Harmonics?: false
    Max angular momentum: 3

  Minimum eigenvalue in the overlap matrix is 4.0717300217E-03.
  Using Symmetric Orthogonalization.
  SCF Guess: Core (One-Electron) Hamiltonian.

  ==> Iterations <==

                           Total Energy        Delta E     RMS |[F,P]|

   @DF-RHF iter   1:  -180.95270548511988   -1.80953e+02   8.48453e-02 
   @DF-RHF iter   2:  -170.74446427915788    1.02082e+01   6.28051e-02 DIIS
   @DF-RHF iter   3:  -205.07793885913517   -3.43335e+01   5.69774e-02 DIIS
   @DF-RHF iter   4:  -229.51214858239845   -2.44342e+01   1.77155e-02 DIIS
   @DF-RHF iter   5:  -230.87755848227900   -1.36541e+00   4.69566e-03 DIIS
   @DF-RHF iter   6:  -230.98063695071559   -1.03078e-01   1.43600e-03 DIIS
   @DF-RHF iter   7:  -230.99213262724626   -1.14957e-02   7.26065e-04 DIIS
   @DF-RHF iter   8:  -230.99404388660386   -1.91126e-03   1.76741e-04 DIIS
   @DF-RHF iter   9:  -230.99438670281714   -3.42816e-04   1.09664e-04 DIIS
   @DF-RHF iter  10:  -230.99448190557703   -9.52028e-05   2.86518e-05 DIIS
   @DF-RHF iter  11:  -230.99449562350961   -1.37179e-05   1.10539e-05 DIIS
   @DF-RHF iter  12:  -230.99449784173473   -2.21823e-06   3.74806e-06 DIIS
   @DF-RHF iter  13:  -230.99449815786997   -3.16135e-07   1.74091e-06 DIIS
   @DF-RHF iter  14:  -230.99449823710287   -7.92329e-08   7.05696e-07 DIIS

  ==> Post-Iterations <==

    Orbital Energies (a.u.)
    -----------------------

    Doubly Occupied:                                                      

       1A    -20.549789     2A    -11.325878     3A    -11.233197  
       4A    -11.228494     5A    -11.228411     6A     -1.395068  
       7A     -1.067246     8A     -0.997862     9A     -0.884874  
      10A     -0.733516    11A     -0.653629    12A     -0.646558  
      13A     -0.608501    14A     -0.591566    15A     -0.569252  
      16A     -0.541442    17A     -0.529648    18A     -0.499622  
      19A     -0.481614    20A     -0.399619  

    Virtual:                                                              

      21A      0.164936    22A      0.222707    23A      0.266631  
      24A      0.287616    25A      0.297973    26A      0.312383  
      27A      0.318004    28A      0.333570    29A      0.354977  
      30A      0.383655    31A      0.414947    32A      0.485613  
      33A      0.502616    34A      0.706527    35A      0.728167  
      36A      0.748542    37A      0.755911    38A      0.796060  
      39A      0.824061    40A      0.885311    41A      0.908566  
      42A      0.972811    43A      0.992018    44A      0.999017  
      45A      1.059724    46A      1.087520    47A      1.107062  
      48A      1.143026    49A      1.150111    50A      1.172182  
      51A      1.196303    52A      1.198569    53A      1.233773  
      54A      1.251765    55A      1.270113    56A      1.341247  
      57A      1.365439    58A      1.435799    59A      1.498033  
      60A      1.675511    61A      1.718236    62A      1.781749  
      63A      1.906125    64A      1.966456    65A      2.002540  
      66A      2.085781    67A      2.108222    68A      2.144665  
      69A      2.188851    70A      2.238103    71A      2.283613  
      72A      2.297812    73A      2.392711    74A      2.464730  
      75A      2.503423    76A      2.601633    77A      2.629251  
      78A      2.659322    79A      2.708252    80A      2.741854  
      81A      2.842804    82A      2.954445    83A      3.033822  
      84A      3.092819    85A      3.371417    86A      3.374481  
      87A      4.437243    88A      4.525721    89A      4.643191  
      90A      4.821755    91A      4.951856  

    Final Occupation by Irrep:
              A 
    DOCC [    20 ]

  Energy converged.

  @DF-RHF Final Energy:  -230.99449823710287

   => Energetics <=

    Nuclear Repulsion Energy =            176.6596074349808134
    One-Electron Energy =                -662.9766514820007615
    Two-Electron Energy =                 255.3225458099169032
    DFT Exchange-Correlation Energy =       0.0000000000000000
    Empirical Dispersion Energy =           0.0000000000000000
    PCM Polarization Energy =               0.0000000000000000
    EFP Energy =                            0.0000000000000000
    Total Energy =                       -230.9944982371030733

    Alert: EFP and PCM quantities not currently incorporated into SCF psivars.

Properties will be evaluated at   0.000000,   0.000000,   0.000000 Bohr
  ==> Properties <==


Properties computed using the SCF density matrix

  Nuclear Dipole Moment: (a.u.)
     X:    -0.7613      Y:    -5.6481      Z:     1.6646

  Electronic Dipole Moment: (a.u.)
     X:     0.8034      Y:     4.4399      Z:    -1.6160

  Dipole Moment: (a.u.)
     X:     0.0421      Y:    -1.2081      Z:     0.0486     Total:     1.2098

  Dipole Moment: (Debye)
     X:     0.1071      Y:    -3.0708      Z:     0.1235     Total:     3.0751


  Saving occupied orbitals to File 180.

*** tstop() called on cx1-3-4-4.cx1.hpc.ic.ac.uk at Tue Jul  5 16:39:51 2016
Module time:
	user time   =       3.95 seconds =       0.07 minutes
	system time =       0.04 seconds =       0.00 minutes
	total time  =          5 seconds =       0.08 minutes
Total time:
	user time   =       3.95 seconds =       0.07 minutes
	system time =       0.04 seconds =       0.00 minutes
	total time  =          5 seconds =       0.08 minutes


Properties will be evaluated at   0.000000,   0.000000,   0.000000 Bohr

Properties computed using the  density matrix

  Nuclear Dipole Moment: (a.u.)
     X:    -0.7613      Y:    -5.6481      Z:     1.6646

  Electronic Dipole Moment: (a.u.)
     X:     0.8034      Y:     4.4399      Z:    -1.6160

  Dipole Moment: (a.u.)
     X:     0.0421      Y:    -1.2081      Z:     0.0486     Total:     1.2098

  Dipole Moment: (Debye)
     X:     0.1071      Y:    -3.0708      Z:     0.1235     Total:     3.0751

  Quadrupole Moment: (Debye Ang)
    XX:   -29.7465     YY:   -36.5897     ZZ:   -30.8423
    XY:    -0.4953     XZ:    -0.1750     YZ:     0.8896

  Traceless Quadrupole Moment: (Debye Ang)
    XX:     2.6464     YY:    -4.1969     ZZ:     1.5505
    XY:    -0.4953     XZ:    -0.1750     YZ:     0.8896

  Mulliken Charges: (a.u.)
   Center  Symbol    Alpha    Beta     Spin     Total
       1     O     4.25917  4.25917  0.00000 -0.51835
       2     C     2.73875  2.73875  0.00000  0.52249
       3     C     3.19942  3.19942  0.00000 -0.39883
       4     C     3.29012  3.29012  0.00000 -0.58023
       5     C     3.24501  3.24501  0.00000 -0.49001
       6     H     0.40080  0.40080  0.00000  0.19840
       7     H     0.41764  0.41764  0.00000  0.16472
       8     H     0.40538  0.40538  0.00000  0.18924
       9     H     0.41169  0.41169  0.00000  0.17663
      10     H     0.41829  0.41829  0.00000  0.16342
      11     H     0.40816  0.40816  0.00000  0.18368
      12     H     0.39697  0.39697  0.00000  0.20606
      13     H     0.40861  0.40861  0.00000  0.18277

   Total alpha = 20.00000, Total beta = 20.00000, Total charge =  0.00000


*** PSI4 exiting successfully. Buy a developer a beer!
