    -----------------------------------------------------------------------
          Psi4: An Open-Source Ab Initio Electronic Structure Package
                              Psi4 (no tag) Driver

                          Git: Rev {detached?}  

    J. M. Turney, A. C. Simmonett, R. M. Parrish, E. G. Hohenstein,
    F. A. Evangelista, J. T. Fermann, B. J. Mintz, L. A. Burns, J. J. Wilke,
    M. L. Abrams, N. J. Russ, M. L. Leininger, C. L. Janssen, E. T. Seidl,
    W. D. Allen, H. F. Schaefer, R. A. King, E. F. Valeev, C. D. Sherrill,
    and T. D. Crawford, WIREs Comput. Mol. Sci. 2, 556-565 (2012)
    (doi: 10.1002/wcms.93)

                         Additional Contributions by
    A. E. DePrince, M. Saitow, U. Bozkaya, A. Yu. Sokolov
    -----------------------------------------------------------------------


    Psi4 started on: Tue Jul  5 17:22:08 2016

    Process ID:  21020
    PSI4DATADIR: /export131/home/mjharvey/miniconda3/share
    Memory level set to 256.000 MB

  ==> Input File <==

--------------------------------------------------------------------------
set {
	reference rhf
	basis 6-31G*
}


set_num_threads( 1 )
memory 2 gb

molecule MOL {
0 1

H	 -2.646374	 -0.642757	 1.268656
C	 -2.083525	 -0.384536	 0.393091
O	 -0.807605	 -0.127164	 0.768327
F	 -2.118945	 -1.383102	 -0.486752
F	 -2.621877	 0.670592	 -0.209486
C	 -0.305413	 1.137617	 0.521708
C	 -1.309316	 2.133042	 1.088686
Cl	 -0.080114	 1.399699	 -1.215464
H	 0.642987	 1.302619	 1.002421
F	 -2.421779	 2.114723	 0.385672
F	 -0.795879	 3.344548	 1.010748
F	 -1.598199	 1.884452	 2.342769

	symmetry c1
}
set optking {
	frozen_dihedral = ("
		10 7 6 9,
		9 6 3 2
	")
}

ee = energy('scf')
oeprop('DIPOLE', 'QUADRUPOLE', 'MULLIKEN_CHARGES')
f=open( 'psi4out.xyz', 'w' )
f.write( "12  " )
f.write( str(ee) + "\n" )
f.write( MOL.save_string_xyz() )
f.close()
--------------------------------------------------------------------------

  Memory set to   2.000 GiB by Python script.

*** tstart() called on cx1-3-4-4.cx1.hpc.ic.ac.uk
*** at Tue Jul  5 17:22:08 2016


         ---------------------------------------------------------
                                   SCF
            by Justin Turney, Rob Parrish, and Andy Simmonett
                              RHF Reference
                        1 Threads,   2000 MiB Core
         ---------------------------------------------------------

  ==> Geometry <==

    Molecular point group: c1
    Full point group: C1

    Geometry (in Angstrom), charge = 0, multiplicity = 1:

       Center              X                  Y                   Z               Mass       
    ------------   -----------------  -----------------  -----------------  -----------------
           H         -1.321826945275    -1.774415577326     0.975524503843     1.007825032070
           C         -0.758977945275    -1.516194577326     0.099959503843    12.000000000000
           O          0.516942054725    -1.258822577326     0.475195503843    15.994914619560
           F         -0.794397945275    -2.514760577326    -0.779883496157    18.998403224000
           F         -1.297329945275    -0.461066577326    -0.502617496157    18.998403224000
           C          1.019134054725     0.005958422674     0.228576503843    12.000000000000
           C          0.015231054725     1.001383422674     0.795554503843    12.000000000000
          CL          1.244433054725     0.268040422674    -1.508595496157    34.968852682000
           H          1.967534054725     0.170960422674     0.709289503843     1.007825032070
           F         -1.097231945275     0.983064422674     0.092540503843    18.998403224000
           F          0.528668054725     2.212889422674     0.717616503843    18.998403224000
           F         -0.273651945275     0.752793422674     2.049637503843    18.998403224000

  Running in c1 symmetry.

  Rotational constants: A =      0.05553  B =      0.03696  C =      0.02874 [cm^-1]
  Rotational constants: A =   1664.62909  B =   1107.91990  C =    861.51902 [MHz]
  Nuclear repulsion =  785.281698898107038

  Charge       = 0
  Multiplicity = 1
  Electrons    = 90
  Nalpha       = 45
  Nbeta        = 45

  ==> Algorithm <==

  SCF Algorithm Type is DF.
  DIIS enabled.
  MOM disabled.
  Fractional occupation disabled.
  Guess Type is CORE.
  Energy threshold   = 1.00e-06
  Density threshold  = 1.00e-06
  Integral threshold = 0.00e+00

  ==> Primary Basis <==

  Basis Set: 6-31G*
    Number of shells: 66
    Number of basis function: 158
    Number of Cartesian functions: 158
    Spherical Harmonics?: false
    Max angular momentum: 2

  ==> Pre-Iterations <==

   -------------------------------------------------------
    Irrep   Nso     Nmo     Nalpha   Nbeta   Ndocc  Nsocc
   -------------------------------------------------------
     A        158     158       0       0       0       0
   -------------------------------------------------------
    Total     158     158      45      45      45       0
   -------------------------------------------------------

 OEINTS: Overlap, kinetic, potential, dipole, and quadrupole integrals
         stored in file 35.

  ==> Integral Setup <==

  ==> DFJK: Density-Fitted J/K Matrices <==

    J tasked:                  Yes
    K tasked:                  Yes
    wK tasked:                  No
    OpenMP threads:              1
    Integrals threads:           1
    Memory (MB):              1430
    Algorithm:                Core
    Integral Cache:           NONE
    Schwarz Cutoff:          1E-12
    Fitting Condition:       1E-12

   => Auxiliary Basis Set <=

  Basis Set: 
    Number of shells: 270
    Number of basis function: 909
    Number of Cartesian functions: 909
    Spherical Harmonics?: false
    Max angular momentum: 3

  Minimum eigenvalue in the overlap matrix is 1.5926023769E-03.
  Using Symmetric Orthogonalization.
  SCF Guess: Core (One-Electron) Hamiltonian.

  ==> Iterations <==

                           Total Energy        Delta E     RMS |[F,P]|

   @DF-RHF iter   1: -1046.71959494843850   -1.04672e+03   7.21571e-02 
   @DF-RHF iter   2:  -922.60700334972819    1.24113e+02   7.76045e-02 DIIS
   @DF-RHF iter   3: -1104.33798548286677   -1.81731e+02   3.15107e-02 DIIS
   @DF-RHF iter   4:  -943.77526985063685    1.60563e+02   8.37664e-02 DIIS
   @DF-RHF iter   5: -1133.60116830353400   -1.89826e+02   3.12596e-02 DIIS
   @DF-RHF iter   6: -1143.30519348670032   -9.70403e+00   1.55986e-02 DIIS
   @DF-RHF iter   7: -1145.50018606234244   -2.19499e+00   7.23136e-03 DIIS
   @DF-RHF iter   8: -1146.02611722438087   -5.25931e-01   3.18255e-03 DIIS
   @DF-RHF iter   9: -1146.11318033322596   -8.70631e-02   1.44417e-03 DIIS
   @DF-RHF iter  10: -1146.13606673221011   -2.28864e-02   4.08033e-04 DIIS
   @DF-RHF iter  11: -1146.13810308614484   -2.03635e-03   1.93416e-04 DIIS
   @DF-RHF iter  12: -1146.13855082988948   -4.47744e-04   3.22464e-05 DIIS
   @DF-RHF iter  13: -1146.13857071272741   -1.98828e-05   1.03847e-05 DIIS
   @DF-RHF iter  14: -1146.13857268271659   -1.96999e-06   2.78138e-06 DIIS
   @DF-RHF iter  15: -1146.13857283960579   -1.56889e-07   8.34620e-07 DIIS

  ==> Post-Iterations <==

    Orbital Energies (a.u.)
    -----------------------

    Doubly Occupied:                                                      

       1A   -104.843132     2A    -26.371349     3A    -26.355406  
       4A    -26.326675     5A    -26.319923     6A    -26.310319  
       7A    -20.644228     8A    -11.524719     9A    -11.477330  
      10A    -11.404862    11A    -10.578091    12A     -8.047443  
      13A     -8.043895    14A     -8.043758    15A     -1.778002  
      16A     -1.721154    17A     -1.665170    18A     -1.659046  
      19A     -1.602430    20A     -1.485679    21A     -1.178647  
      22A     -1.047403    23A     -1.013694    24A     -0.907414  
      25A     -0.893118    26A     -0.863150    27A     -0.857974  
      28A     -0.815577    29A     -0.791225    30A     -0.768165  
      31A     -0.747809    32A     -0.721591    33A     -0.704882  
      34A     -0.696435    35A     -0.679543    36A     -0.675678  
      37A     -0.665308    38A     -0.647319    39A     -0.640314  
      40A     -0.594811    41A     -0.568311    42A     -0.526097  
      43A     -0.506982    44A     -0.474752    45A     -0.465512  

    Virtual:                                                              

      46A      0.171413    47A      0.238235    48A      0.260155  
      49A      0.279944    50A      0.322378    51A      0.394174  
      52A      0.399756    53A      0.426505    54A      0.439599  
      55A      0.478819    56A      0.496461    57A      0.553302  
      58A      0.619250    59A      0.630673    60A      0.636478  
      61A      0.680766    62A      0.700262    63A      0.730791  
      64A      0.752415    65A      0.758753    66A      0.769870  
      67A      0.780269    68A      0.819699    69A      0.943380  
      70A      0.971597    71A      1.049428    72A      1.072507  
      73A      1.108624    74A      1.123253    75A      1.149168  
      76A      1.160675    77A      1.194186    78A      1.242846  
      79A      1.257645    80A      1.289652    81A      1.330191  
      82A      1.351828    83A      1.373872    84A      1.401353  
      85A      1.445489    86A      1.474277    87A      1.502117  
      88A      1.522005    89A      1.557181    90A      1.582883  
      91A      1.599818    92A      1.620495    93A      1.633641  
      94A      1.654977    95A      1.659776    96A      1.668149  
      97A      1.675653    98A      1.705152    99A      1.767911  
     100A      1.822473   101A      1.828148   102A      1.900503  
     103A      1.937463   104A      1.958246   105A      1.987659  
     106A      2.034748   107A      2.047084   108A      2.048803  
     109A      2.090001   110A      2.096790   111A      2.112496  
     112A      2.118254   113A      2.174384   114A      2.231615  
     115A      2.247794   116A      2.282850   117A      2.293892  
     118A      2.327268   119A      2.344429   120A      2.352947  
     121A      2.383406   122A      2.407417   123A      2.414105  
     124A      2.445833   125A      2.484187   126A      2.492965  
     127A      2.542371   128A      2.587185   129A      2.596158  
     130A      2.649747   131A      2.713419   132A      2.758115  
     133A      2.793521   134A      2.872207   135A      2.915499  
     136A      3.007165   137A      3.033605   138A      3.127663  
     139A      3.178776   140A      3.206266   141A      3.286622  
     142A      3.308182   143A      3.406361   144A      3.429636  
     145A      3.457323   146A      3.490112   147A      3.520528  
     148A      3.877928   149A      4.362039   150A      4.557146  
     151A      4.688421   152A      4.744060   153A      4.783061  
     154A      4.954574   155A      5.205072   156A      5.390824  
     157A      5.844711   158A      6.260066  

    Final Occupation by Irrep:
              A 
    DOCC [    45 ]

  Energy converged.

  @DF-RHF Final Energy: -1146.13857283960579

   => Energetics <=

    Nuclear Repulsion Energy =            785.2816988981070381
    One-Electron Energy =               -3153.5315354868162103
    Two-Electron Energy =                1222.1112637491014539
    DFT Exchange-Correlation Energy =       0.0000000000000000
    Empirical Dispersion Energy =           0.0000000000000000
    PCM Polarization Energy =               0.0000000000000000
    EFP Energy =                            0.0000000000000000
    Total Energy =                      -1146.1385728396076047

    Alert: EFP and PCM quantities not currently incorporated into SCF psivars.

Properties will be evaluated at   0.000000,   0.000000,   0.000000 Bohr
  ==> Properties <==


Properties computed using the SCF density matrix

  Nuclear Dipole Moment: (a.u.)
     X:     2.2364      Y:    -2.6724      Z:     1.4748

  Electronic Dipole Moment: (a.u.)
     X:    -1.9848      Y:     2.5740      Z:    -0.6943

  Dipole Moment: (a.u.)
     X:     0.2515      Y:    -0.0984      Z:     0.7805     Total:     0.8259

  Dipole Moment: (Debye)
     X:     0.6393      Y:    -0.2502      Z:     1.9838     Total:     2.0992


  Saving occupied orbitals to File 180.

*** tstop() called on cx1-3-4-4.cx1.hpc.ic.ac.uk at Tue Jul  5 17:22:28 2016
Module time:
	user time   =      18.65 seconds =       0.31 minutes
	system time =       0.24 seconds =       0.00 minutes
	total time  =         20 seconds =       0.33 minutes
Total time:
	user time   =      18.65 seconds =       0.31 minutes
	system time =       0.24 seconds =       0.00 minutes
	total time  =         20 seconds =       0.33 minutes


Properties will be evaluated at   0.000000,   0.000000,   0.000000 Bohr

Properties computed using the  density matrix

  Nuclear Dipole Moment: (a.u.)
     X:     2.2364      Y:    -2.6724      Z:     1.4748

  Electronic Dipole Moment: (a.u.)
     X:    -1.9848      Y:     2.5740      Z:    -0.6943

  Dipole Moment: (a.u.)
     X:     0.2515      Y:    -0.0984      Z:     0.7805     Total:     0.8259

  Dipole Moment: (Debye)
     X:     0.6393      Y:    -0.2502      Z:     1.9838     Total:     2.0992

  Quadrupole Moment: (Debye Ang)
    XX:   -56.8909     YY:   -64.1817     ZZ:   -60.6992
    XY:     2.0663     XZ:    -0.0838     YZ:    -2.7967

  Traceless Quadrupole Moment: (Debye Ang)
    XX:     3.6997     YY:    -3.5911     ZZ:    -0.1086
    XY:     2.0663     XZ:    -0.0838     YZ:    -2.7967

  Mulliken Charges: (a.u.)
   Center  Symbol    Alpha    Beta     Spin     Total
       1     H     0.40851  0.40851  0.00000  0.18299
       2     C     2.56889  2.56889  0.00000  0.86223
       3     O     4.30792  4.30792  0.00000 -0.61583
       4     F     4.68126  4.68126  0.00000 -0.36252
       5     F     4.67221  4.67221  0.00000 -0.34441
       6     C     3.03169  3.03169  0.00000 -0.06339
       7     C     2.45547  2.45547  0.00000  1.08905
       8    CL     8.49983  8.49983  0.00000  0.00034
       9     H     0.36141  0.36141  0.00000  0.27717
      10     F     4.66111  4.66111  0.00000 -0.32223
      11     F     4.67757  4.67757  0.00000 -0.35513
      12     F     4.67413  4.67413  0.00000 -0.34826

   Total alpha = 45.00000, Total beta = 45.00000, Total charge =  0.00000


*** PSI4 exiting successfully. Buy a developer a beer!
