    -----------------------------------------------------------------------
          Psi4: An Open-Source Ab Initio Electronic Structure Package
                              Psi4 (no tag) Driver

                          Git: Rev {detached?}  

    J. M. Turney, A. C. Simmonett, R. M. Parrish, E. G. Hohenstein,
    F. A. Evangelista, J. T. Fermann, B. J. Mintz, L. A. Burns, J. J. Wilke,
    M. L. Abrams, N. J. Russ, M. L. Leininger, C. L. Janssen, E. T. Seidl,
    W. D. Allen, H. F. Schaefer, R. A. King, E. F. Valeev, C. D. Sherrill,
    and T. D. Crawford, WIREs Comput. Mol. Sci. 2, 556-565 (2012)
    (doi: 10.1002/wcms.93)

                         Additional Contributions by
    A. E. DePrince, M. Saitow, U. Bozkaya, A. Yu. Sokolov
    -----------------------------------------------------------------------


    Psi4 started on: Tue Jul  5 16:29:07 2016

    Process ID:  25132
    PSI4DATADIR: /export131/home/mjharvey/miniconda3/share
    Memory level set to 256.000 MB

  ==> Input File <==

--------------------------------------------------------------------------
set {
	reference rhf
	basis 6-31G*
}


set_num_threads( 1 )
memory 2 gb

molecule MOL {
0 1

H	 2.701934	 -0.978852	 0.177891
N	 2.332695	 -0.069570	 0.000000
C	 0.936681	 -0.007078	 0.000000
H	 2.773017	 0.609074	 0.583384
C	 0.227108	 -0.002120	 -1.198267
C	 0.227108	 -0.002120	 1.198267
H	 0.761569	 -0.014657	 -2.132680
C	 -1.156334	 0.010459	 -1.192360
H	 0.761569	 -0.014657	 2.132680
C	 -1.156334	 0.010459	 1.192360
H	 -1.684791	 0.014915	 -2.129421
C	 -1.862085	 0.017996	 0.000000
H	 -1.684791	 0.014915	 2.129421
H	 -2.936703	 0.028387	 0.000000

	symmetry c1
}
ee = energy('scf')
oeprop('DIPOLE', 'QUADRUPOLE', 'MULLIKEN_CHARGES')
f=open( 'psi4out.xyz', 'w' )
f.write( "14  " )
f.write( str(ee) + "\n" )
f.write( MOL.save_string_xyz() )
f.close()
--------------------------------------------------------------------------

  Memory set to   2.000 GiB by Python script.

*** tstart() called on cx1-1-2-1.cx1.hpc.ic.ac.uk
*** at Tue Jul  5 16:29:08 2016


         ---------------------------------------------------------
                                   SCF
            by Justin Turney, Rob Parrish, and Andy Simmonett
                              RHF Reference
                        1 Threads,   2000 MiB Core
         ---------------------------------------------------------

  ==> Geometry <==

    Molecular point group: c1
    Full point group: C1

    Geometry (in Angstrom), charge = 0, multiplicity = 1:

       Center              X                  Y                   Z               Mass       
    ------------   -----------------  -----------------  -----------------  -----------------
           H          2.702408477933    -0.968250162278     0.169646322011     1.007825032070
           N          2.333169477933    -0.058968162278    -0.008244677989    14.003074004780
           C          0.937155477933     0.003523837722    -0.008244677989    12.000000000000
           H          2.773491477933     0.619675837722     0.575139322011     1.007825032070
           C          0.227582477933     0.008481837722    -1.206511677989    12.000000000000
           C          0.227582477933     0.008481837722     1.190022322011    12.000000000000
           H          0.762043477933    -0.004055162278    -2.140924677989     1.007825032070
           C         -1.155859522067     0.021060837722    -1.200604677989    12.000000000000
           H          0.762043477933    -0.004055162278     2.124435322011     1.007825032070
           C         -1.155859522067     0.021060837722     1.184115322011    12.000000000000
           H         -1.684316522067     0.025516837722    -2.137665677989     1.007825032070
           C         -1.861610522067     0.028597837722    -0.008244677989    12.000000000000
           H         -1.684316522067     0.025516837722     2.121176322011     1.007825032070
           H         -2.936228522067     0.038988837722    -0.008244677989     1.007825032070

  Running in c1 symmetry.

  Rotational constants: A =      0.19042  B =      0.08698  C =      0.06027 [cm^-1]
  Rotational constants: A =   5708.56768  B =   2607.74145  C =   1806.84883 [MHz]
  Nuclear repulsion =  272.976689366706125

  Charge       = 0
  Multiplicity = 1
  Electrons    = 50
  Nalpha       = 25
  Nbeta        = 25

  ==> Algorithm <==

  SCF Algorithm Type is DF.
  DIIS enabled.
  MOM disabled.
  Fractional occupation disabled.
  Guess Type is CORE.
  Energy threshold   = 1.00e-06
  Density threshold  = 1.00e-06
  Integral threshold = 0.00e+00

  ==> Primary Basis <==

  Basis Set: 6-31G*
    Number of shells: 56
    Number of basis function: 119
    Number of Cartesian functions: 119
    Spherical Harmonics?: false
    Max angular momentum: 2

  ==> Pre-Iterations <==

   -------------------------------------------------------
    Irrep   Nso     Nmo     Nalpha   Nbeta   Ndocc  Nsocc
   -------------------------------------------------------
     A        119     119       0       0       0       0
   -------------------------------------------------------
    Total     119     119      25      25      25       0
   -------------------------------------------------------

 OEINTS: Overlap, kinetic, potential, dipole, and quadrupole integrals
         stored in file 35.

  ==> Integral Setup <==

  ==> DFJK: Density-Fitted J/K Matrices <==

    J tasked:                  Yes
    K tasked:                  Yes
    wK tasked:                  No
    OpenMP threads:              1
    Integrals threads:           1
    Memory (MB):              1430
    Algorithm:                Core
    Integral Cache:           NONE
    Schwarz Cutoff:          1E-12
    Fitting Condition:       1E-12

   => Auxiliary Basis Set <=

  Basis Set: 
    Number of shells: 231
    Number of basis function: 742
    Number of Cartesian functions: 742
    Spherical Harmonics?: false
    Max angular momentum: 3

  Minimum eigenvalue in the overlap matrix is 4.2701342392E-04.
  Using Symmetric Orthogonalization.
  SCF Guess: Core (One-Electron) Hamiltonian.

  ==> Iterations <==

                           Total Energy        Delta E     RMS |[F,P]|

   @DF-RHF iter   1:  -224.87492543100848   -2.24875e+02   7.09526e-02 
   @DF-RHF iter   2:  -234.30044152096838   -9.42552e+00   5.30869e-02 DIIS
   @DF-RHF iter   3:  -268.11892699137383   -3.38185e+01   3.59937e-02 DIIS
   @DF-RHF iter   4:  -268.14789973869955   -2.89727e-02   3.75909e-02 DIIS
   @DF-RHF iter   5:  -285.08895115837169   -1.69411e+01   8.83547e-03 DIIS
   @DF-RHF iter   6:  -285.67702879739971   -5.88078e-01   2.47053e-03 DIIS
   @DF-RHF iter   7:  -285.71473701252074   -3.77082e-02   9.73461e-04 DIIS
   @DF-RHF iter   8:  -285.72153587340659   -6.79886e-03   3.79430e-04 DIIS
   @DF-RHF iter   9:  -285.72263824918338   -1.10238e-03   1.49941e-04 DIIS
   @DF-RHF iter  10:  -285.72283034743651   -1.92098e-04   3.08752e-05 DIIS
   @DF-RHF iter  11:  -285.72284164650017   -1.12991e-05   1.21111e-05 DIIS
   @DF-RHF iter  12:  -285.72284351338800   -1.86689e-06   5.74050e-06 DIIS
   @DF-RHF iter  13:  -285.72284408766012   -5.74272e-07   1.79009e-06 DIIS
   @DF-RHF iter  14:  -285.72284418705118   -9.93911e-08   8.35906e-07 DIIS

  ==> Post-Iterations <==

    Orbital Energies (a.u.)
    -----------------------

    Doubly Occupied:                                                      

       1A    -15.540837     2A    -11.257767     3A    -11.227311  
       4A    -11.226244     5A    -11.224004     6A    -11.221933  
       7A    -11.219708     8A     -1.210250     9A     -1.124966  
      10A     -1.009800    11A     -0.982631    12A     -0.823321  
      13A     -0.807576    14A     -0.701727    15A     -0.668883  
      16A     -0.649273    17A     -0.623494    18A     -0.592383  
      19A     -0.579670    20A     -0.506035    21A     -0.495638  
      22A     -0.489230    23A     -0.398659    24A     -0.329485  
      25A     -0.318865  

    Virtual:                                                              

      26A      0.148759    27A      0.153623    28A      0.239686  
      29A      0.245200    30A      0.295928    31A      0.309359  
      32A      0.316058    33A      0.338989    34A      0.347019  
      35A      0.390651    36A      0.453407    37A      0.485977  
      38A      0.495271    39A      0.538789    40A      0.564761  
      41A      0.679703    42A      0.746154    43A      0.758723  
      44A      0.761194    45A      0.787291    46A      0.824984  
      47A      0.832187    48A      0.836899    49A      0.844877  
      50A      0.847610    51A      0.853613    52A      0.897510  
      53A      0.914527    54A      0.929721    55A      0.998511  
      56A      1.016086    57A      1.031372    58A      1.100347  
      59A      1.118290    60A      1.121048    61A      1.133689  
      62A      1.138672    63A      1.176090    64A      1.200386  
      65A      1.215539    66A      1.233715    67A      1.238595  
      68A      1.280123    69A      1.304985    70A      1.361475  
      71A      1.379503    72A      1.459901    73A      1.463756  
      74A      1.517376    75A      1.599079    76A      1.683839  
      77A      1.719203    78A      1.733977    79A      1.748773  
      80A      1.775755    81A      1.783238    82A      1.803510  
      83A      2.095110    84A      2.102851    85A      2.146673  
      86A      2.188256    87A      2.217801    88A      2.237631  
      89A      2.298724    90A      2.330620    91A      2.407485  
      92A      2.422895    93A      2.462356    94A      2.470508  
      95A      2.515557    96A      2.541823    97A      2.610112  
      98A      2.637891    99A      2.660353   100A      2.710567  
     101A      2.824146   102A      2.910092   103A      2.922513  
     104A      2.954713   105A      3.043041   106A      3.098407  
     107A      3.105338   108A      3.117636   109A      3.206745  
     110A      3.254682   111A      3.484289   112A      3.841642  
     113A      4.282674   114A      4.531445   115A      4.552003  
     116A      4.567232   117A      4.766217   118A      4.793844  
     119A      5.139147  

    Final Occupation by Irrep:
              A 
    DOCC [    25 ]

  Energy converged.

  @DF-RHF Final Energy:  -285.72284418705118

   => Energetics <=

    Nuclear Repulsion Energy =            272.9766893667061254
    One-Electron Energy =                -926.9396981830896038
    Two-Electron Energy =                 368.2401646293326394
    DFT Exchange-Correlation Energy =       0.0000000000000000
    Empirical Dispersion Energy =           0.0000000000000000
    PCM Polarization Energy =               0.0000000000000000
    EFP Energy =                            0.0000000000000000
    Total Energy =                       -285.7228441870508959

    Alert: EFP and PCM quantities not currently incorporated into SCF psivars.

Properties will be evaluated at   0.000000,   0.000000,   0.000000 Bohr
  ==> Properties <==


Properties computed using the SCF density matrix

  Nuclear Dipole Moment: (a.u.)
     X:     0.6449      Y:    -0.2498      Z:     0.6596

  Electronic Dipole Moment: (a.u.)
     X:    -0.5815      Y:     0.1015      Z:    -0.2018

  Dipole Moment: (a.u.)
     X:     0.0634      Y:    -0.1483      Z:     0.4578     Total:     0.4854

  Dipole Moment: (Debye)
     X:     0.1612      Y:    -0.3770      Z:     1.1637     Total:     1.2338


  Saving occupied orbitals to File 180.

*** tstop() called on cx1-1-2-1.cx1.hpc.ic.ac.uk at Tue Jul  5 16:29:16 2016
Module time:
	user time   =       8.18 seconds =       0.14 minutes
	system time =       0.04 seconds =       0.00 minutes
	total time  =          8 seconds =       0.13 minutes
Total time:
	user time   =       8.18 seconds =       0.14 minutes
	system time =       0.04 seconds =       0.00 minutes
	total time  =          8 seconds =       0.13 minutes


Properties will be evaluated at   0.000000,   0.000000,   0.000000 Bohr

Properties computed using the  density matrix

  Nuclear Dipole Moment: (a.u.)
     X:     0.6449      Y:    -0.2498      Z:     0.6596

  Electronic Dipole Moment: (a.u.)
     X:    -0.5815      Y:     0.1015      Z:    -0.2018

  Dipole Moment: (a.u.)
     X:     0.0634      Y:    -0.1483      Z:     0.4578     Total:     0.4854

  Dipole Moment: (Debye)
     X:     0.1612      Y:    -0.3770      Z:     1.1637     Total:     1.2338

  Quadrupole Moment: (Debye Ang)
    XX:   -36.9276     YY:   -43.5572     ZZ:   -37.8971
    XY:    -1.1257     XZ:     3.9451     YZ:     0.4820

  Traceless Quadrupole Moment: (Debye Ang)
    XX:     2.5330     YY:    -4.0966     ZZ:     1.5636
    XY:    -1.1257     XZ:     3.9451     YZ:     0.4820

  Mulliken Charges: (a.u.)
   Center  Symbol    Alpha    Beta     Spin     Total
       1     H     0.32018  0.32018  0.00000  0.35964
       2     N     3.95365  3.95365  0.00000 -0.90729
       3     C     2.89065  2.89065  0.00000  0.21869
       4     H     0.32280  0.32280  0.00000  0.35439
       5     C     3.10015  3.10015  0.00000 -0.20031
       6     C     3.10942  3.10942  0.00000 -0.21884
       7     H     0.39461  0.39461  0.00000  0.21078
       8     C     3.10039  3.10039  0.00000 -0.20079
       9     H     0.40326  0.40326  0.00000  0.19347
      10     C     3.09986  3.09986  0.00000 -0.19971
      11     H     0.40087  0.40087  0.00000  0.19826
      12     C     3.10242  3.10242  0.00000 -0.20485
      13     H     0.40186  0.40186  0.00000  0.19628
      14     H     0.39988  0.39988  0.00000  0.20025

   Total alpha = 25.00000, Total beta = 25.00000, Total charge = -0.00000


*** PSI4 exiting successfully. Buy a developer a beer!
