    -----------------------------------------------------------------------
          Psi4: An Open-Source Ab Initio Electronic Structure Package
                              Psi4 (no tag) Driver

                          Git: Rev {detached?}  

    J. M. Turney, A. C. Simmonett, R. M. Parrish, E. G. Hohenstein,
    F. A. Evangelista, J. T. Fermann, B. J. Mintz, L. A. Burns, J. J. Wilke,
    M. L. Abrams, N. J. Russ, M. L. Leininger, C. L. Janssen, E. T. Seidl,
    W. D. Allen, H. F. Schaefer, R. A. King, E. F. Valeev, C. D. Sherrill,
    and T. D. Crawford, WIREs Comput. Mol. Sci. 2, 556-565 (2012)
    (doi: 10.1002/wcms.93)

                         Additional Contributions by
    A. E. DePrince, M. Saitow, U. Bozkaya, A. Yu. Sokolov
    -----------------------------------------------------------------------


    Psi4 started on: Tue Jul  5 16:26:42 2016

    Process ID:  26999
    PSI4DATADIR: /export131/home/mjharvey/miniconda3/share
    Memory level set to 256.000 MB

  ==> Input File <==

--------------------------------------------------------------------------
set {
	reference rhf
	basis 6-31G*
}


set_num_threads( 1 )
memory 2 gb

molecule MOL {
0 1

H	 -3.042581	 -0.665861	 0.004336
O	 -2.245037	 -1.176175	 0.000806
C	 -1.162163	 -0.365336	 0.001020
C	 -0.916262	 0.545727	 1.012369
C	 -0.286431	 -0.476468	 -1.072094
H	 -1.595553	 0.634886	 1.843384
C	 0.215882	 1.344967	 0.939052
H	 -0.509522	 -1.193137	 -1.841336
C	 0.842958	 0.320073	 -1.143626
H	 0.408937	 2.056189	 1.722590
C	 1.089756	 1.239615	 -0.124066
C	 1.808536	 0.183412	 -2.297786
H	 1.961839	 1.868011	 -0.167880
H	 2.126539	 1.155671	 -2.658863
H	 1.361698	 -0.353455	 -3.126019
H	 2.698997	 -0.359083	 -1.992622

	symmetry c1
}
ee = energy('scf')
oeprop('DIPOLE', 'QUADRUPOLE', 'MULLIKEN_CHARGES')
f=open( 'psi4out.xyz', 'w' )
f.write( "16  " )
f.write( str(ee) + "\n" )
f.write( MOL.save_string_xyz() )
f.close()
--------------------------------------------------------------------------

  Memory set to   2.000 GiB by Python script.

*** tstart() called on cx1-3-1-3.cx1.hpc.ic.ac.uk
*** at Tue Jul  5 16:26:43 2016


         ---------------------------------------------------------
                                   SCF
            by Justin Turney, Rob Parrish, and Andy Simmonett
                              RHF Reference
                        1 Threads,   2000 MiB Core
         ---------------------------------------------------------

  ==> Geometry <==

    Molecular point group: c1
    Full point group: C1

    Geometry (in Angstrom), charge = 0, multiplicity = 1:

       Center              X                  Y                   Z               Mass       
    ------------   -----------------  -----------------  -----------------  -----------------
           H         -2.918898505371    -0.831132967646     0.360384663071     1.007825032070
           O         -2.121354505371    -1.341446967646     0.356854663071    15.994914619560
           C         -1.038480505371    -0.530607967646     0.357068663071    12.000000000000
           C         -0.792579505371     0.380455032354     1.368417663071    12.000000000000
           C         -0.162748505371    -0.641739967646    -0.716045336929    12.000000000000
           H         -1.471870505371     0.469614032354     2.199432663071     1.007825032070
           C          0.339564494629     1.179695032354     1.295100663071    12.000000000000
           H         -0.385839505371    -1.358408967646    -1.485287336929     1.007825032070
           C          0.966640494629     0.154801032354    -0.787577336929    12.000000000000
           H          0.532619494629     1.890917032354     2.078638663071     1.007825032070
           C          1.213438494629     1.074343032354     0.231982663071    12.000000000000
           C          1.932218494629     0.018140032354    -1.941737336929    12.000000000000
           H          2.085521494629     1.702739032354     0.188168663071     1.007825032070
           H          2.250221494629     0.990399032354    -2.302814336929     1.007825032070
           H          1.485380494629    -0.518726967646    -2.769970336929     1.007825032070
           H          2.822679494629    -0.524354967646    -1.636573336929     1.007825032070

  Running in c1 symmetry.

  Rotational constants: A =      0.12316  B =      0.06073  C =      0.04109 [cm^-1]
  Rotational constants: A =   3692.14446  B =   1820.58932  C =   1231.88137 [MHz]
  Nuclear repulsion =  345.538710407686267

  Charge       = 0
  Multiplicity = 1
  Electrons    = 58
  Nalpha       = 29
  Nbeta        = 29

  ==> Algorithm <==

  SCF Algorithm Type is DF.
  DIIS enabled.
  MOM disabled.
  Fractional occupation disabled.
  Guess Type is CORE.
  Energy threshold   = 1.00e-06
  Density threshold  = 1.00e-06
  Integral threshold = 0.00e+00

  ==> Primary Basis <==

  Basis Set: 6-31G*
    Number of shells: 64
    Number of basis function: 136
    Number of Cartesian functions: 136
    Spherical Harmonics?: false
    Max angular momentum: 2

  ==> Pre-Iterations <==

   -------------------------------------------------------
    Irrep   Nso     Nmo     Nalpha   Nbeta   Ndocc  Nsocc
   -------------------------------------------------------
     A        136     136       0       0       0       0
   -------------------------------------------------------
    Total     136     136      29      29      29       0
   -------------------------------------------------------

 OEINTS: Overlap, kinetic, potential, dipole, and quadrupole integrals
         stored in file 35.

  ==> Integral Setup <==

  ==> DFJK: Density-Fitted J/K Matrices <==

    J tasked:                  Yes
    K tasked:                  Yes
    wK tasked:                  No
    OpenMP threads:              1
    Integrals threads:           1
    Memory (MB):              1430
    Algorithm:                Core
    Integral Cache:           NONE
    Schwarz Cutoff:          1E-12
    Fitting Condition:       1E-12

   => Auxiliary Basis Set <=

  Basis Set: 
    Number of shells: 264
    Number of basis function: 848
    Number of Cartesian functions: 848
    Spherical Harmonics?: false
    Max angular momentum: 3

  Minimum eigenvalue in the overlap matrix is 4.1274031111E-04.
  Using Symmetric Orthogonalization.
  SCF Guess: Core (One-Electron) Hamiltonian.

  ==> Iterations <==

                           Total Energy        Delta E     RMS |[F,P]|

   @DF-RHF iter   1:  -269.16095618616043   -2.69161e+02   6.61180e-02 
   @DF-RHF iter   2:  -220.88604750562376    4.82749e+01   5.50207e-02 DIIS
   @DF-RHF iter   3:  -271.97971179210208   -5.10937e+01   6.08829e-02 DIIS
   @DF-RHF iter   4:  -328.19507796786934   -5.62154e+01   2.91864e-02 DIIS
   @DF-RHF iter   5:  -336.22556853991750   -8.03049e+00   2.39191e-02 DIIS
   @DF-RHF iter   6:  -344.04881526671920   -7.82325e+00   7.02030e-03 DIIS
   @DF-RHF iter   7:  -344.54258848436916   -4.93773e-01   2.14055e-03 DIIS
   @DF-RHF iter   8:  -344.58565637997242   -4.30679e-02   5.86126e-04 DIIS
   @DF-RHF iter   9:  -344.59065804548902   -5.00167e-03   1.67793e-04 DIIS
   @DF-RHF iter  10:  -344.59105617516252   -3.98130e-04   8.88710e-05 DIIS
   @DF-RHF iter  11:  -344.59120931919813   -1.53144e-04   2.83909e-05 DIIS
   @DF-RHF iter  12:  -344.59123745743489   -2.81382e-05   1.15342e-05 DIIS
   @DF-RHF iter  13:  -344.59124422228820   -6.76485e-06   6.14276e-06 DIIS
   @DF-RHF iter  14:  -344.59124560198677   -1.37970e-06   2.41820e-06 DIIS
   @DF-RHF iter  15:  -344.59124583567586   -2.33689e-07   4.41482e-07 DIIS

  ==> Post-Iterations <==

    Orbital Energies (a.u.)
    -----------------------

    Doubly Occupied:                                                      

       1A    -20.578522     2A    -11.288569     3A    -11.240018  
       4A    -11.232896     5A    -11.222106     6A    -11.220261  
       7A    -11.219624     8A    -11.217224     9A     -1.400184  
      10A     -1.148874    11A     -1.042316    12A     -1.003010  
      13A     -0.935274    14A     -0.824429    15A     -0.814324  
      16A     -0.715370    17A     -0.676901    18A     -0.654704  
      19A     -0.618616    20A     -0.590546    21A     -0.574048  
      22A     -0.567115    23A     -0.550986    24A     -0.514718  
      25A     -0.503954    26A     -0.479411    27A     -0.462399  
      28A     -0.327976    29A     -0.313922  

    Virtual:                                                              

      30A      0.147980    31A      0.155589    32A      0.233842  
      33A      0.243596    34A      0.267638    35A      0.294903  
      36A      0.312323    37A      0.327839    38A      0.341057  
      39A      0.344589    40A      0.397236    41A      0.413165  
      42A      0.463805    43A      0.472260    44A      0.511559  
      45A      0.552992    46A      0.601722    47A      0.626086  
      48A      0.728249    49A      0.738216    50A      0.754736  
      51A      0.773385    52A      0.775000    53A      0.817510  
      54A      0.835590    55A      0.840955    56A      0.846280  
      57A      0.879075    58A      0.885287    59A      0.897215  
      60A      0.918485    61A      0.953242    62A      0.971310  
      63A      1.008868    64A      1.028308    65A      1.071203  
      66A      1.096246    67A      1.113375    68A      1.128807  
      69A      1.151759    70A      1.163245    71A      1.168923  
      72A      1.195030    73A      1.205527    74A      1.229016  
      75A      1.247012    76A      1.255586    77A      1.286203  
      78A      1.333005    79A      1.380063    80A      1.408644  
      81A      1.435541    82A      1.442785    83A      1.481938  
      84A      1.515936    85A      1.615752    86A      1.623743  
      87A      1.660505    88A      1.707692    89A      1.735844  
      90A      1.765884    91A      1.775102    92A      1.781730  
      93A      1.935314    94A      2.062377    95A      2.098050  
      96A      2.120593    97A      2.151088    98A      2.188697  
      99A      2.205021   100A      2.216937   101A      2.238769  
     102A      2.275213   103A      2.291323   104A      2.327591  
     105A      2.414678   106A      2.453880   107A      2.491304  
     108A      2.498809   109A      2.533209   110A      2.559850  
     111A      2.621120   112A      2.644988   113A      2.700876  
     114A      2.710090   115A      2.726826   116A      2.791084  
     117A      2.880038   118A      2.905383   119A      2.956688  
     120A      3.040860   121A      3.071685   122A      3.126070  
     123A      3.143648   124A      3.197692   125A      3.281081  
     126A      3.340160   127A      3.534897   128A      3.840963  
     129A      4.334147   130A      4.536065   131A      4.553043  
     132A      4.623307   133A      4.677002   134A      4.795846  
     135A      4.879482   136A      5.194295  

    Final Occupation by Irrep:
              A 
    DOCC [    29 ]

  Energy converged.

  @DF-RHF Final Energy:  -344.59124583567586

   => Energetics <=

    Nuclear Repulsion Energy =            345.5387104076862670
    One-Electron Energy =               -1152.3834607616490757
    Two-Electron Energy =                 462.2535045182870022
    DFT Exchange-Correlation Energy =       0.0000000000000000
    Empirical Dispersion Energy =           0.0000000000000000
    PCM Polarization Energy =               0.0000000000000000
    EFP Energy =                            0.0000000000000000
    Total Energy =                       -344.5912458356758066

    Alert: EFP and PCM quantities not currently incorporated into SCF psivars.

Properties will be evaluated at   0.000000,   0.000000,   0.000000 Bohr
  ==> Properties <==


Properties computed using the SCF density matrix

  Nuclear Dipole Moment: (a.u.)
     X:     4.1145      Y:     1.7007      Z:    -3.1557

  Electronic Dipole Moment: (a.u.)
     X:    -4.2573      Y:    -1.1030      Z:     3.0456

  Dipole Moment: (a.u.)
     X:    -0.1428      Y:     0.5977      Z:    -0.1101     Total:     0.6243

  Dipole Moment: (Debye)
     X:    -0.3629      Y:     1.5193      Z:    -0.2797     Total:     1.5869


  Saving occupied orbitals to File 180.

*** tstop() called on cx1-3-1-3.cx1.hpc.ic.ac.uk at Tue Jul  5 16:26:54 2016
Module time:
	user time   =      11.02 seconds =       0.18 minutes
	system time =       0.06 seconds =       0.00 minutes
	total time  =         11 seconds =       0.18 minutes
Total time:
	user time   =      11.02 seconds =       0.18 minutes
	system time =       0.06 seconds =       0.00 minutes
	total time  =         11 seconds =       0.18 minutes


Properties will be evaluated at   0.000000,   0.000000,   0.000000 Bohr

Properties computed using the  density matrix

  Nuclear Dipole Moment: (a.u.)
     X:     4.1145      Y:     1.7007      Z:    -3.1557

  Electronic Dipole Moment: (a.u.)
     X:    -4.2573      Y:    -1.1030      Z:     3.0456

  Dipole Moment: (a.u.)
     X:    -0.1428      Y:     0.5977      Z:    -0.1101     Total:     0.6243

  Dipole Moment: (Debye)
     X:    -0.3629      Y:     1.5193      Z:    -0.2797     Total:     1.5869

  Quadrupole Moment: (Debye Ang)
    XX:   -40.5254     YY:   -50.7741     ZZ:   -45.1301
    XY:    -0.7680     XZ:    -2.3212     YZ:     3.3222

  Traceless Quadrupole Moment: (Debye Ang)
    XX:     4.9511     YY:    -5.2976     ZZ:     0.3465
    XY:    -0.7680     XZ:    -2.3212     YZ:     3.3222

  Mulliken Charges: (a.u.)
   Center  Symbol    Alpha    Beta     Spin     Total
       1     H     0.27138  0.27138  0.00000  0.45724
       2     O     4.38464  4.38464  0.00000 -0.76929
       3     C     2.80711  2.80711  0.00000  0.38578
       4     C     3.13350  3.13350  0.00000 -0.26699
       5     C     3.13568  3.13568  0.00000 -0.27136
       6     H     0.39950  0.39950  0.00000  0.20101
       7     C     3.09151  3.09151  0.00000 -0.18302
       8     H     0.39537  0.39537  0.00000  0.20926
       9     C     2.97323  2.97323  0.00000  0.05355
      10     H     0.39915  0.39915  0.00000  0.20171
      11     C     3.11852  3.11852  0.00000 -0.23703
      12     C     3.25421  3.25421  0.00000 -0.50842
      13     H     0.40246  0.40246  0.00000  0.19508
      14     H     0.41262  0.41262  0.00000  0.17476
      15     H     0.41226  0.41226  0.00000  0.17548
      16     H     0.40888  0.40888  0.00000  0.18225

   Total alpha = 29.00000, Total beta = 29.00000, Total charge =  0.00000


*** PSI4 exiting successfully. Buy a developer a beer!
