    -----------------------------------------------------------------------
          Psi4: An Open-Source Ab Initio Electronic Structure Package
                              Psi4 (no tag) Driver

                          Git: Rev {detached?}  

    J. M. Turney, A. C. Simmonett, R. M. Parrish, E. G. Hohenstein,
    F. A. Evangelista, J. T. Fermann, B. J. Mintz, L. A. Burns, J. J. Wilke,
    M. L. Abrams, N. J. Russ, M. L. Leininger, C. L. Janssen, E. T. Seidl,
    W. D. Allen, H. F. Schaefer, R. A. King, E. F. Valeev, C. D. Sherrill,
    and T. D. Crawford, WIREs Comput. Mol. Sci. 2, 556-565 (2012)
    (doi: 10.1002/wcms.93)

                         Additional Contributions by
    A. E. DePrince, M. Saitow, U. Bozkaya, A. Yu. Sokolov
    -----------------------------------------------------------------------


    Psi4 started on: Tue Jul  5 16:33:57 2016

    Process ID:  22496
    PSI4DATADIR: /export131/home/mjharvey/miniconda3/share
    Memory level set to 256.000 MB

  ==> Input File <==

--------------------------------------------------------------------------
set {
	reference rhf
	basis 6-31G*
}


set_num_threads( 1 )
memory 2 gb

molecule MOL {
0 1

H	 1.760035	 -0.679838	 -0.873823
C	 1.172765	 -0.421094	 0.000803
H	 1.757279	 -0.678341	 0.877721
O	 -0.000121	 -1.191204	 -0.000402
C	 0.770450	 1.064056	 -0.001052
C	 -1.172834	 -0.420875	 -0.000355
H	 1.163077	 1.572364	 -0.873489
H	 1.165375	 1.575183	 0.868756
C	 -0.770247	 1.064199	 0.000991
H	 -1.758339	 -0.678089	 -0.876591
H	 -1.759221	 -0.679394	 0.874889
H	 -1.162775	 1.572860	 0.873239
H	 -1.165116	 1.575097	 -0.868945

	symmetry c1
}
ee = energy('scf')
oeprop('DIPOLE', 'QUADRUPOLE', 'MULLIKEN_CHARGES')
oeprop('GRID_ESP')
f=open( 'psi4out.xyz', 'w' )
f.write( "13  " )
f.write( str(ee) + "\n" )
f.write( MOL.save_string_xyz() )
f.close()
--------------------------------------------------------------------------

  Memory set to   2.000 GiB by Python script.

*** tstart() called on cx1-3-15-2.cx1.hpc.ic.ac.uk
*** at Tue Jul  5 16:33:57 2016


         ---------------------------------------------------------
                                   SCF
            by Justin Turney, Rob Parrish, and Andy Simmonett
                              RHF Reference
                        1 Threads,   2000 MiB Core
         ---------------------------------------------------------

  ==> Geometry <==

    Molecular point group: c1
    Full point group: C1

    Geometry (in Angstrom), charge = 0, multiplicity = 1:

       Center              X                  Y                   Z               Mass       
    ------------   -----------------  -----------------  -----------------  -----------------
           H          1.760035137665    -0.679700333637    -0.873822788959     1.007825032070
           C          1.172765137665    -0.420956333637     0.000803211041    12.000000000000
           H          1.757279137665    -0.678203333637     0.877721211041     1.007825032070
           O         -0.000120862335    -1.191066333637    -0.000401788959    15.994914619560
           C          0.770450137665     1.064193666363    -0.001051788959    12.000000000000
           C         -1.172833862335    -0.420737333637    -0.000354788959    12.000000000000
           H          1.163077137665     1.572501666363    -0.873488788959     1.007825032070
           H          1.165375137665     1.575320666363     0.868756211041     1.007825032070
           C         -0.770246862335     1.064336666363     0.000991211041    12.000000000000
           H         -1.758338862335    -0.677951333637    -0.876590788959     1.007825032070
           H         -1.759220862335    -0.679256333637     0.874889211041     1.007825032070
           H         -1.162774862335     1.572997666363     0.873239211041     1.007825032070
           H         -1.165115862335     1.575234666363    -0.868944788959     1.007825032070

  Running in c1 symmetry.

  Rotational constants: A =      0.23631  B =      0.23374  C =      0.12853 [cm^-1]
  Rotational constants: A =   7084.44733  B =   7007.32923  C =   3853.26537 [MHz]
  Nuclear repulsion =  190.420311155052389

  Charge       = 0
  Multiplicity = 1
  Electrons    = 40
  Nalpha       = 20
  Nbeta        = 20

  ==> Algorithm <==

  SCF Algorithm Type is DF.
  DIIS enabled.
  MOM disabled.
  Fractional occupation disabled.
  Guess Type is CORE.
  Energy threshold   = 1.00e-06
  Density threshold  = 1.00e-06
  Integral threshold = 0.00e+00

  ==> Primary Basis <==

  Basis Set: 6-31G*
    Number of shells: 46
    Number of basis function: 91
    Number of Cartesian functions: 91
    Spherical Harmonics?: false
    Max angular momentum: 2

  ==> Pre-Iterations <==

   -------------------------------------------------------
    Irrep   Nso     Nmo     Nalpha   Nbeta   Ndocc  Nsocc
   -------------------------------------------------------
     A         91      91       0       0       0       0
   -------------------------------------------------------
    Total      91      91      20      20      20       0
   -------------------------------------------------------

 OEINTS: Overlap, kinetic, potential, dipole, and quadrupole integrals
         stored in file 35.

  ==> Integral Setup <==

  ==> DFJK: Density-Fitted J/K Matrices <==

    J tasked:                  Yes
    K tasked:                  Yes
    wK tasked:                  No
    OpenMP threads:              1
    Integrals threads:           1
    Memory (MB):              1430
    Algorithm:                Core
    Integral Cache:           NONE
    Schwarz Cutoff:          1E-12
    Fitting Condition:       1E-12

   => Auxiliary Basis Set <=

  Basis Set: 
    Number of shells: 192
    Number of basis function: 605
    Number of Cartesian functions: 605
    Spherical Harmonics?: false
    Max angular momentum: 3

  Minimum eigenvalue in the overlap matrix is 3.3362294100E-03.
  Using Symmetric Orthogonalization.
  SCF Guess: Core (One-Electron) Hamiltonian.

  ==> Iterations <==

                           Total Energy        Delta E     RMS |[F,P]|

   @DF-RHF iter   1:  -191.54188882405299   -1.91542e+02   7.44733e-02 
   @DF-RHF iter   2:  -182.50910786695238    9.03278e+00   5.70062e-02 DIIS
   @DF-RHF iter   3:  -206.87876363974584   -2.43697e+01   6.07735e-02 DIIS
   @DF-RHF iter   4:  -229.46663202349839   -2.25879e+01   1.86777e-02 DIIS
   @DF-RHF iter   5:  -230.53777159609808   -1.07114e+00   9.63940e-03 DIIS
   @DF-RHF iter   6:  -230.90044739987906   -3.62676e-01   3.64091e-03 DIIS
   @DF-RHF iter   7:  -230.96756269869098   -6.71153e-02   8.67757e-04 DIIS
   @DF-RHF iter   8:  -230.97016053539477   -2.59784e-03   3.68789e-04 DIIS
   @DF-RHF iter   9:  -230.97089491685796   -7.34381e-04   8.48238e-05 DIIS
   @DF-RHF iter  10:  -230.97093158272327   -3.66659e-05   2.10527e-05 DIIS
   @DF-RHF iter  11:  -230.97093398924079   -2.40652e-06   2.11963e-06 DIIS
   @DF-RHF iter  12:  -230.97093402998217   -4.07414e-08   4.44914e-07 DIIS

  ==> Post-Iterations <==

    Orbital Energies (a.u.)
    -----------------------

    Doubly Occupied:                                                      

       1A    -20.543184     2A    -11.264647     3A    -11.264618  
       4A    -11.223484     5A    -11.222918     6A     -1.372744  
       7A     -1.052612     8A     -0.997085     9A     -0.811624  
      10A     -0.810716    11A     -0.683727    12A     -0.669150  
      13A     -0.590910    14A     -0.586811    15A     -0.581562  
      16A     -0.499777    17A     -0.487924    18A     -0.467435  
      19A     -0.462078    20A     -0.397671  

    Virtual:                                                              

      21A      0.221172    22A      0.245917    23A      0.283816  
      24A      0.303739    25A      0.315411    26A      0.320939  
      27A      0.326326    28A      0.357891    29A      0.378752  
      30A      0.400193    31A      0.417623    32A      0.484092  
      33A      0.558691    34A      0.692269    35A      0.756176  
      36A      0.780855    37A      0.793560    38A      0.835278  
      39A      0.841221    40A      0.896161    41A      0.897857  
      42A      0.917717    43A      0.952538    44A      0.983142  
      45A      1.071918    46A      1.133322    47A      1.136096  
      48A      1.136658    49A      1.136814    50A      1.149343  
      51A      1.202304    52A      1.217347    53A      1.245566  
      54A      1.263858    55A      1.318600    56A      1.329079  
      57A      1.407478    58A      1.481325    59A      1.604898  
      60A      1.661925    61A      1.771362    62A      1.948686  
      63A      2.018399    64A      2.060939    65A      2.096739  
      66A      2.127015    67A      2.129918    68A      2.195523  
      69A      2.294129    70A      2.299039    71A      2.355793  
      72A      2.375733    73A      2.499289    74A      2.508649  
      75A      2.513457    76A      2.522634    77A      2.703617  
      78A      2.778439    79A      2.829681    80A      2.830262  
      81A      2.918694    82A      2.951291    83A      2.956435  
      84A      3.029350    85A      3.170004    86A      3.380994  
      87A      4.416272    88A      4.581950    89A      4.665292  
      90A      4.868175    91A      5.007067  

    Final Occupation by Irrep:
              A 
    DOCC [    20 ]

  Energy converged.

  @DF-RHF Final Energy:  -230.97093402998217

   => Energetics <=

    Nuclear Repulsion Energy =            190.4203111550523886
    One-Electron Energy =                -690.8010535119628912
    Two-Electron Energy =                 269.4098083269278163
    DFT Exchange-Correlation Energy =       0.0000000000000000
    Empirical Dispersion Energy =           0.0000000000000000
    PCM Polarization Energy =               0.0000000000000000
    EFP Energy =                            0.0000000000000000
    Total Energy =                       -230.9709340299826863

    Alert: EFP and PCM quantities not currently incorporated into SCF psivars.

Properties will be evaluated at   0.000000,   0.000000,   0.000000 Bohr
  ==> Properties <==


Properties computed using the SCF density matrix

  Nuclear Dipole Moment: (a.u.)
     X:     0.0003      Y:     3.3513      Z:     0.0016

  Electronic Dipole Moment: (a.u.)
     X:    -0.0002      Y:    -2.5822      Z:    -0.0013

  Dipole Moment: (a.u.)
     X:     0.0001      Y:     0.7691      Z:     0.0004     Total:     0.7691

  Dipole Moment: (Debye)
     X:     0.0002      Y:     1.9548      Z:     0.0010     Total:     1.9548


  Saving occupied orbitals to File 180.

*** tstop() called on cx1-3-15-2.cx1.hpc.ic.ac.uk at Tue Jul  5 16:34:02 2016
Module time:
	user time   =       3.88 seconds =       0.06 minutes
	system time =       0.02 seconds =       0.00 minutes
	total time  =          5 seconds =       0.08 minutes
Total time:
	user time   =       3.88 seconds =       0.06 minutes
	system time =       0.02 seconds =       0.00 minutes
	total time  =          5 seconds =       0.08 minutes


Properties will be evaluated at   0.000000,   0.000000,   0.000000 Bohr

Properties computed using the  density matrix

  Nuclear Dipole Moment: (a.u.)
     X:     0.0003      Y:     3.3513      Z:     0.0016

  Electronic Dipole Moment: (a.u.)
     X:    -0.0002      Y:    -2.5822      Z:    -0.0013

  Dipole Moment: (a.u.)
     X:     0.0001      Y:     0.7691      Z:     0.0004     Total:     0.7691

  Dipole Moment: (Debye)
     X:     0.0002      Y:     1.9548      Z:     0.0010     Total:     1.9548

  Quadrupole Moment: (Debye Ang)
    XX:   -29.0209     YY:   -35.0741     ZZ:   -30.7681
    XY:    -0.0007     XZ:     0.0004     YZ:    -0.0013

  Traceless Quadrupole Moment: (Debye Ang)
    XX:     2.6002     YY:    -3.4531     ZZ:     0.8529
    XY:    -0.0007     XZ:     0.0004     YZ:    -0.0013

  Mulliken Charges: (a.u.)
   Center  Symbol    Alpha    Beta     Spin     Total
       1     H     0.42233  0.42233  0.00000  0.15534
       2     C     2.98159  2.98159  0.00000  0.03682
       3     H     0.42239  0.42239  0.00000  0.15523
       4     O     4.32086  4.32086  0.00000 -0.64172
       5     C     3.19046  3.19046  0.00000 -0.38092
       6     C     2.98159  2.98159  0.00000  0.03682
       7     H     0.41140  0.41140  0.00000  0.17720
       8     H     0.41141  0.41141  0.00000  0.17719
       9     C     3.19046  3.19046  0.00000 -0.38092
      10     H     0.42236  0.42236  0.00000  0.15528
      11     H     0.42235  0.42235  0.00000  0.15529
      12     H     0.41140  0.41140  0.00000  0.17719
      13     H     0.41140  0.41140  0.00000  0.17720

   Total alpha = 20.00000, Total beta = 20.00000, Total charge =  0.00000



Properties will be evaluated at   0.000000,   0.000000,   0.000000 Bohr

Properties computed using the  density matrix


 Electrostatic potential computed on the grid and written to grid_esp.dat

*** PSI4 exiting successfully. Buy a developer a beer!
