    -----------------------------------------------------------------------
          Psi4: An Open-Source Ab Initio Electronic Structure Package
                              Psi4 (no tag) Driver

                          Git: Rev {detached?}  

    J. M. Turney, A. C. Simmonett, R. M. Parrish, E. G. Hohenstein,
    F. A. Evangelista, J. T. Fermann, B. J. Mintz, L. A. Burns, J. J. Wilke,
    M. L. Abrams, N. J. Russ, M. L. Leininger, C. L. Janssen, E. T. Seidl,
    W. D. Allen, H. F. Schaefer, R. A. King, E. F. Valeev, C. D. Sherrill,
    and T. D. Crawford, WIREs Comput. Mol. Sci. 2, 556-565 (2012)
    (doi: 10.1002/wcms.93)

                         Additional Contributions by
    A. E. DePrince, M. Saitow, U. Bozkaya, A. Yu. Sokolov
    -----------------------------------------------------------------------


    Psi4 started on: Tue Jul  5 17:50:16 2016

    Process ID:  27933
    PSI4DATADIR: /export131/home/mjharvey/miniconda3/share
    Memory level set to 256.000 MB

  ==> Input File <==

--------------------------------------------------------------------------
set {
	reference rhf
	basis 6-31G*
}


set_num_threads( 1 )
memory 2 gb

molecule MOL {
0 1

H	 6.129575	 -0.358271	 1.399398
C	 5.970684	 -1.389626	 1.698701
C	 7.033746	 -2.308924	 1.098729
H	 5.991960	 -1.426122	 2.783854
H	 4.973535	 -1.677641	 1.376925
C	 6.834942	 -3.773376	 1.495806
H	 8.016186	 -1.977452	 1.418947
H	 7.011134	 -2.224278	 0.013365
C	 5.399091	 -4.268820	 1.322207
H	 7.497522	 -4.401856	 0.911304
H	 7.116424	 -3.900025	 2.538768
C	 4.964761	 -4.436609	 -0.126394
H	 5.287231	 -5.243780	 1.794129
H	 4.697274	 -3.613058	 1.832702
C	 3.475324	 -4.538016	 -0.405696
O	 5.760593	 -4.505380	 -1.014272
C	 3.142513	 -5.197708	 -1.752249
H	 3.077758	 -3.530724	 -0.373804
H	 3.010537	 -5.105855	 0.398180
C	 3.906992	 -6.506058	 -1.962969
H	 2.073565	 -5.394231	 -1.800676
H	 3.371148	 -4.517137	 -2.568350
C	 3.584233	 -7.172245	 -3.299729
H	 3.675183	 -7.191428	 -1.151430
H	 4.975620	 -6.311267	 -1.903941
H	 2.526789	 -7.408725	 -3.374670
H	 3.837980	 -6.523738	 -4.133494
H	 4.139105	 -8.097216	 -3.419829

	symmetry c1
}
set optking {
	frozen_dihedral = ("
		10 6 3 2,
		12 15 17 21
	")
}

ee = energy('scf')
oeprop('DIPOLE', 'QUADRUPOLE', 'MULLIKEN_CHARGES')
f=open( 'psi4out.xyz', 'w' )
f.write( "28  " )
f.write( str(ee) + "\n" )
f.write( MOL.save_string_xyz() )
f.close()
--------------------------------------------------------------------------

  Memory set to   2.000 GiB by Python script.

*** tstart() called on cx1-3-4-4.cx1.hpc.ic.ac.uk
*** at Tue Jul  5 17:50:16 2016


         ---------------------------------------------------------
                                   SCF
            by Justin Turney, Rob Parrish, and Andy Simmonett
                              RHF Reference
                        1 Threads,   2000 MiB Core
         ---------------------------------------------------------

  ==> Geometry <==

    Molecular point group: c1
    Full point group: C1

    Geometry (in Angstrom), charge = 0, multiplicity = 1:

       Center              X                  Y                   Z               Mass       
    ------------   -----------------  -----------------  -----------------  -----------------
           H          1.120419670754     4.050752812779     1.706810197305     1.007825032070
           C          0.961528670754     3.019397812779     2.006113197305    12.000000000000
           C          2.024590670754     2.100099812779     1.406141197305    12.000000000000
           H          0.982804670754     2.982901812779     3.091266197305     1.007825032070
           H         -0.035620329246     2.731382812779     1.684337197305     1.007825032070
           C          1.825786670754     0.635647812779     1.803218197305    12.000000000000
           H          3.007030670754     2.431571812779     1.726359197305     1.007825032070
           H          2.001978670754     2.184745812779     0.320777197305     1.007825032070
           C          0.389935670754     0.140203812779     1.629619197305    12.000000000000
           H          2.488366670754     0.007167812779     1.218716197305     1.007825032070
           H          2.107268670754     0.508998812779     2.846180197305     1.007825032070
           C         -0.044394329246    -0.027585187221     0.181018197305    12.000000000000
           H          0.278075670754    -0.834756187221     2.101541197305     1.007825032070
           H         -0.311881329246     0.795965812779     2.140114197305     1.007825032070
           C         -1.533831329246    -0.128992187221    -0.098283802695    12.000000000000
           O          0.751437670754    -0.096356187221    -0.706859802695    15.994914619560
           C         -1.866642329246    -0.788684187221    -1.444836802695    12.000000000000
           H         -1.931397329246     0.878299812779    -0.066391802695     1.007825032070
           H         -1.998618329246    -0.696831187221     0.705592197305     1.007825032070
           C         -1.102163329246    -2.097034187221    -1.655556802695    12.000000000000
           H         -2.935590329246    -0.985207187221    -1.493263802695     1.007825032070
           H         -1.638007329246    -0.108113187221    -2.260937802695     1.007825032070
           C         -1.424922329246    -2.763221187221    -2.992316802695    12.000000000000
           H         -1.333972329246    -2.782404187221    -0.844017802695     1.007825032070
           H         -0.033535329246    -1.902243187221    -1.596528802695     1.007825032070
           H         -2.482366329246    -2.999701187221    -3.067257802695     1.007825032070
           H         -1.171175329246    -2.114714187221    -3.826081802695     1.007825032070
           H         -0.870050329246    -3.688192187221    -3.112416802695     1.007825032070

  Running in c1 symmetry.

  Rotational constants: A =      0.10706  B =      0.01718  C =      0.01647 [cm^-1]
  Rotational constants: A =   3209.60139  B =    515.17894  C =    493.72531 [MHz]
  Nuclear repulsion =  551.718303507793621

  Charge       = 0
  Multiplicity = 1
  Electrons    = 80
  Nalpha       = 40
  Nbeta        = 40

  ==> Algorithm <==

  SCF Algorithm Type is DF.
  DIIS enabled.
  MOM disabled.
  Fractional occupation disabled.
  Guess Type is CORE.
  Energy threshold   = 1.00e-06
  Density threshold  = 1.00e-06
  Integral threshold = 0.00e+00

  ==> Primary Basis <==

  Basis Set: 6-31G*
    Number of shells: 96
    Number of basis function: 186
    Number of Cartesian functions: 186
    Spherical Harmonics?: false
    Max angular momentum: 2

  ==> Pre-Iterations <==

   -------------------------------------------------------
    Irrep   Nso     Nmo     Nalpha   Nbeta   Ndocc  Nsocc
   -------------------------------------------------------
     A        186     186       0       0       0       0
   -------------------------------------------------------
    Total     186     186      40      40      40       0
   -------------------------------------------------------

 OEINTS: Overlap, kinetic, potential, dipole, and quadrupole integrals
         stored in file 35.

  ==> Integral Setup <==

  ==> DFJK: Density-Fitted J/K Matrices <==

    J tasked:                  Yes
    K tasked:                  Yes
    wK tasked:                  No
    OpenMP threads:              1
    Integrals threads:           1
    Memory (MB):              1430
    Algorithm:                Core
    Integral Cache:           NONE
    Schwarz Cutoff:          1E-12
    Fitting Condition:       1E-12

   => Auxiliary Basis Set <=

  Basis Set: 
    Number of shells: 402
    Number of basis function: 1260
    Number of Cartesian functions: 1260
    Spherical Harmonics?: false
    Max angular momentum: 3

  Minimum eigenvalue in the overlap matrix is 3.1192760709E-03.
  Using Symmetric Orthogonalization.
  SCF Guess: Core (One-Electron) Hamiltonian.

  ==> Iterations <==

                           Total Energy        Delta E     RMS |[F,P]|

   @DF-RHF iter   1:  -236.25532228959344   -2.36255e+02   6.89611e-02 
   @DF-RHF iter   2:  -152.37186539428353    8.38835e+01   6.98618e-02 DIIS
   @DF-RHF iter   3:  -378.20044521358363   -2.25829e+02   3.15835e-02 DIIS
   @DF-RHF iter   4:  -337.30031068817084    4.09001e+01   5.11839e-02 DIIS
   @DF-RHF iter   5:  -400.65398018373185   -6.33537e+01   2.83557e-02 DIIS
   @DF-RHF iter   6:  -393.80355905744261    6.85042e+00   2.83953e-02 DIIS
   @DF-RHF iter   7:  -423.37243048790026   -2.95689e+01   8.49222e-03 DIIS
   @DF-RHF iter   8:  -425.95116541290281   -2.57873e+00   3.31968e-03 DIIS
   @DF-RHF iter   9:  -426.13993212043954   -1.88767e-01   9.40550e-04 DIIS
   @DF-RHF iter  10:  -426.15656782273300   -1.66357e-02   4.23456e-04 DIIS
   @DF-RHF iter  11:  -426.16036205503747   -3.79423e-03   1.39139e-04 DIIS
   @DF-RHF iter  12:  -426.16082327752622   -4.61222e-04   5.12231e-05 DIIS
   @DF-RHF iter  13:  -426.16095866460262   -1.35387e-04   1.92848e-05 DIIS
   @DF-RHF iter  14:  -426.16097786893476   -1.92043e-05   6.67724e-06 DIIS
   @DF-RHF iter  15:  -426.16098049308346   -2.62415e-06   2.44758e-06 DIIS
   @DF-RHF iter  16:  -426.16098091068727   -4.17604e-07   1.02806e-06 DIIS
   @DF-RHF iter  17:  -426.16098101944635   -1.08759e-07   4.87541e-07 DIIS

  ==> Post-Iterations <==

    Orbital Energies (a.u.)
    -----------------------

    Doubly Occupied:                                                      

       1A    -20.550023     2A    -11.325340     3A    -11.231620  
       4A    -11.230652     5A    -11.218100     6A    -11.217922  
       7A    -11.213872     8A    -11.211319     9A    -11.204465  
      10A    -11.202429    11A     -1.398105    12A     -1.088748  
      13A     -1.076715    14A     -1.017074    15A     -0.986039  
      16A     -0.914039    17A     -0.872423    18A     -0.805367  
      19A     -0.782866    20A     -0.719646    21A     -0.674792  
      22A     -0.651180    23A     -0.632329    24A     -0.613445  
      25A     -0.610662    26A     -0.595367    27A     -0.571851  
      28A     -0.550258    29A     -0.546944    30A     -0.538876  
      31A     -0.523539    32A     -0.510822    33A     -0.498658  
      34A     -0.473119    35A     -0.468764    36A     -0.465657  
      37A     -0.462710    38A     -0.459022    39A     -0.455168  
      40A     -0.392854  

    Virtual:                                                              

      41A      0.165871    42A      0.211833    43A      0.244551  
      44A      0.255788    45A      0.270769    46A      0.282245  
      47A      0.290988    48A      0.296292    49A      0.308438  
      50A      0.318489    51A      0.323461    52A      0.325798  
      53A      0.336650    54A      0.339929    55A      0.348693  
      56A      0.356021    57A      0.364019    58A      0.376073  
      59A      0.380372    60A      0.392310    61A      0.395354  
      62A      0.409294    63A      0.434157    64A      0.441873  
      65A      0.457172    66A      0.483520    67A      0.499778  
      68A      0.558248    69A      0.692634    70A      0.708445  
      71A      0.717750    72A      0.726441    73A      0.747215  
      74A      0.750883    75A      0.760632    76A      0.784804  
      77A      0.800498    78A      0.836467    79A      0.853244  
      80A      0.868996    81A      0.898007    82A      0.915256  
      83A      0.930836    84A      0.946356    85A      0.962144  
      86A      0.973783    87A      0.980294    88A      1.009240  
      89A      1.032557    90A      1.039780    91A      1.066996  
      92A      1.096932    93A      1.105017    94A      1.121035  
      95A      1.126997    96A      1.142296    97A      1.143504  
      98A      1.158406    99A      1.169099   100A      1.179124  
     101A      1.186709   102A      1.194276   103A      1.196761  
     104A      1.207170   105A      1.220391   106A      1.225839  
     107A      1.233690   108A      1.236708   109A      1.252323  
     110A      1.256173   111A      1.270045   112A      1.285923  
     113A      1.302335   114A      1.308488   115A      1.314989  
     116A      1.351398   117A      1.416304   118A      1.460007  
     119A      1.494800   120A      1.593026   121A      1.656545  
     122A      1.695362   123A      1.708720   124A      1.737163  
     125A      1.763448   126A      1.767143   127A      1.832200  
     128A      1.864317   129A      1.868880   130A      1.937584  
     131A      1.954369   132A      2.012726   133A      2.029768  
     134A      2.086348   135A      2.117518   136A      2.125174  
     137A      2.148092   138A      2.180138   139A      2.201374  
     140A      2.218341   141A      2.232537   142A      2.251557  
     143A      2.279739   144A      2.299259   145A      2.304107  
     146A      2.321082   147A      2.339693   148A      2.376104  
     149A      2.387209   150A      2.408428   151A      2.436919  
     152A      2.494963   153A      2.535214   154A      2.560002  
     155A      2.617270   156A      2.642773   157A      2.665343  
     158A      2.679226   159A      2.700995   160A      2.721035  
     161A      2.723718   162A      2.731729   163A      2.766545  
     164A      2.782888   165A      2.804596   166A      2.825049  
     167A      2.905470   168A      2.931657   169A      2.963151  
     170A      2.980147   171A      3.032045   172A      3.081530  
     173A      3.140348   174A      3.224137   175A      3.410622  
     176A      3.425931   177A      4.487639   178A      4.534593  
     179A      4.592762   180A      4.640111   181A      4.737366  
     182A      4.810543   183A      4.846365   184A      4.943806  
     185A      4.970091   186A      5.018719  

    Final Occupation by Irrep:
              A 
    DOCC [    40 ]

  Energy converged.

  @DF-RHF Final Energy:  -426.16098101944635

   => Energetics <=

    Nuclear Repulsion Energy =            551.7183035077936211
    One-Electron Energy =               -1671.8331378691855207
    Two-Electron Energy =                 693.9538533419454325
    DFT Exchange-Correlation Energy =       0.0000000000000000
    Empirical Dispersion Energy =           0.0000000000000000
    PCM Polarization Energy =               0.0000000000000000
    EFP Energy =                            0.0000000000000000
    Total Energy =                       -426.1609810194463535

    Alert: EFP and PCM quantities not currently incorporated into SCF psivars.

Properties will be evaluated at   0.000000,   0.000000,   0.000000 Bohr
  ==> Properties <==


Properties computed using the SCF density matrix

  Nuclear Dipole Moment: (a.u.)
     X:    -2.5803      Y:     0.4304      Z:     1.1917

  Electronic Dipole Moment: (a.u.)
     X:     1.9888      Y:    -0.3246      Z:    -0.3883

  Dipole Moment: (a.u.)
     X:    -0.5915      Y:     0.1059      Z:     0.8034     Total:     1.0033

  Dipole Moment: (Debye)
     X:    -1.5034      Y:     0.2691      Z:     2.0421     Total:     2.5500


  Saving occupied orbitals to File 180.

*** tstop() called on cx1-3-4-4.cx1.hpc.ic.ac.uk at Tue Jul  5 17:50:55 2016
Module time:
	user time   =      38.31 seconds =       0.64 minutes
	system time =       0.35 seconds =       0.01 minutes
	total time  =         39 seconds =       0.65 minutes
Total time:
	user time   =      38.31 seconds =       0.64 minutes
	system time =       0.35 seconds =       0.01 minutes
	total time  =         39 seconds =       0.65 minutes


Properties will be evaluated at   0.000000,   0.000000,   0.000000 Bohr

Properties computed using the  density matrix

  Nuclear Dipole Moment: (a.u.)
     X:    -2.5803      Y:     0.4304      Z:     1.1917

  Electronic Dipole Moment: (a.u.)
     X:     1.9888      Y:    -0.3246      Z:    -0.3883

  Dipole Moment: (a.u.)
     X:    -0.5915      Y:     0.1059      Z:     0.8034     Total:     1.0033

  Dipole Moment: (Debye)
     X:    -1.5034      Y:     0.2691      Z:     2.0421     Total:     2.5500

  Quadrupole Moment: (Debye Ang)
    XX:   -65.4117     YY:   -65.1029     ZZ:   -65.8719
    XY:     0.0686     XZ:     1.5064     YZ:    -1.0199

  Traceless Quadrupole Moment: (Debye Ang)
    XX:     0.0505     YY:     0.3593     ZZ:    -0.4097
    XY:     0.0686     XZ:     1.5064     YZ:    -1.0199

  Mulliken Charges: (a.u.)
   Center  Symbol    Alpha    Beta     Spin     Total
       1     H     0.41653  0.41653  0.00000  0.16694
       2     C     3.24343  3.24343  0.00000 -0.48685
       3     C     3.15836  3.15836  0.00000 -0.31671
       4     H     0.42237  0.42237  0.00000  0.15526
       5     H     0.42629  0.42629  0.00000  0.14741
       6     C     3.15039  3.15039  0.00000 -0.30078
       7     H     0.41903  0.41903  0.00000  0.16195
       8     H     0.40933  0.40933  0.00000  0.18134
       9     C     3.21666  3.21666  0.00000 -0.43332
      10     H     0.40482  0.40482  0.00000  0.19036
      11     H     0.42147  0.42147  0.00000  0.15705
      12     C     2.73043  2.73043  0.00000  0.53914
      13     H     0.40339  0.40339  0.00000  0.19323
      14     H     0.40782  0.40782  0.00000  0.18436
      15     C     3.20906  3.20906  0.00000 -0.41812
      16     O     4.27012  4.27012  0.00000 -0.54024
      17     C     3.14679  3.14679  0.00000 -0.29358
      18     H     0.40247  0.40247  0.00000  0.19506
      19     H     0.41203  0.41203  0.00000  0.17594
      20     C     3.16608  3.16608  0.00000 -0.33216
      21     H     0.42058  0.42058  0.00000  0.15883
      22     H     0.41390  0.41390  0.00000  0.17220
      23     C     3.23889  3.23889  0.00000 -0.47777
      24     H     0.43080  0.43080  0.00000  0.13840
      25     H     0.39321  0.39321  0.00000  0.21358
      26     H     0.42563  0.42563  0.00000  0.14874
      27     H     0.42035  0.42035  0.00000  0.15931
      28     H     0.41978  0.41978  0.00000  0.16044

   Total alpha = 40.00000, Total beta = 40.00000, Total charge =  0.00000


*** PSI4 exiting successfully. Buy a developer a beer!
