    -----------------------------------------------------------------------
          Psi4: An Open-Source Ab Initio Electronic Structure Package
                              Psi4 (no tag) Driver

                          Git: Rev {detached?}  

    J. M. Turney, A. C. Simmonett, R. M. Parrish, E. G. Hohenstein,
    F. A. Evangelista, J. T. Fermann, B. J. Mintz, L. A. Burns, J. J. Wilke,
    M. L. Abrams, N. J. Russ, M. L. Leininger, C. L. Janssen, E. T. Seidl,
    W. D. Allen, H. F. Schaefer, R. A. King, E. F. Valeev, C. D. Sherrill,
    and T. D. Crawford, WIREs Comput. Mol. Sci. 2, 556-565 (2012)
    (doi: 10.1002/wcms.93)

                         Additional Contributions by
    A. E. DePrince, M. Saitow, U. Bozkaya, A. Yu. Sokolov
    -----------------------------------------------------------------------


    Psi4 started on: Tue Jul  5 16:49:58 2016

    Process ID:   2793
    PSI4DATADIR: /export131/home/mjharvey/miniconda3/share
    Memory level set to 256.000 MB

  ==> Input File <==

--------------------------------------------------------------------------
set {
	reference rhf
	basis 6-31G*
}


set_num_threads( 1 )
memory 2 gb

molecule MOL {
0 1

H	 1.723202	 1.632482	 -1.968286
C	 0.995937	 1.433708	 -1.189505
C	 1.322923	 0.120767	 -0.479465
H	 1.011660	 2.271686	 -0.499636
H	 0.015082	 1.398287	 -1.653469
C	 0.306652	 -0.176050	 0.621399
H	 2.313063	 0.171746	 -0.038497
H	 1.322156	 -0.700098	 -1.186883
N	 -1.068537	 -0.011044	 0.085269
H	 0.372515	 -1.192590	 0.973735
H	 0.391664	 0.520566	 1.441230
O	 -1.520270	 -0.907443	 -0.557987
O	 -1.615970	 1.025271	 0.309756

	symmetry c1
}
set optking {
	frozen_dihedral = ("
		7 3 6 9
	")
}

ee = energy('scf')
oeprop('DIPOLE', 'QUADRUPOLE', 'MULLIKEN_CHARGES')
f=open( 'psi4out.xyz', 'w' )
f.write( "13  " )
f.write( str(ee) + "\n" )
f.write( MOL.save_string_xyz() )
f.close()
--------------------------------------------------------------------------

  Memory set to   2.000 GiB by Python script.

*** tstart() called on cx1-3-15-4.cx1.hpc.ic.ac.uk
*** at Tue Jul  5 16:49:58 2016


         ---------------------------------------------------------
                                   SCF
            by Justin Turney, Rob Parrish, and Andy Simmonett
                              RHF Reference
                        1 Threads,   2000 MiB Core
         ---------------------------------------------------------

  ==> Geometry <==

    Molecular point group: c1
    Full point group: C1

    Geometry (in Angstrom), charge = 0, multiplicity = 1:

       Center              X                  Y                   Z               Mass       
    ------------   -----------------  -----------------  -----------------  -----------------
           H          2.019843802888     1.380872108136    -1.762755599608     1.007825032070
           C          1.292578802888     1.182098108136    -0.983974599608    12.000000000000
           C          1.619564802888    -0.130842891864    -0.273934599608    12.000000000000
           H          1.308301802888     2.020076108136    -0.294105599608     1.007825032070
           H          0.311723802888     1.146677108136    -1.447938599608     1.007825032070
           C          0.603293802888    -0.427659891864     0.826929400392    12.000000000000
           H          2.609704802888    -0.079863891864     0.167033400392     1.007825032070
           H          1.618797802888    -0.951707891864    -0.981352599608     1.007825032070
           N         -0.771895197112    -0.262653891864     0.290799400392    14.003074004780
           H          0.669156802888    -1.444199891864     1.179265400392     1.007825032070
           H          0.688305802888     0.268956108136     1.646760400392     1.007825032070
           O         -1.223628197112    -1.159052891864    -0.352456599608    15.994914619560
           O         -1.319328197112     0.773661108136     0.515286400392    15.994914619560

  Running in c1 symmetry.

  Rotational constants: A =      0.19775  B =      0.09432  C =      0.08373 [cm^-1]
  Rotational constants: A =   5928.45714  B =   2827.55970  C =   2510.28579 [MHz]
  Nuclear repulsion =  255.733936297114752

  Charge       = 0
  Multiplicity = 1
  Electrons    = 48
  Nalpha       = 24
  Nbeta        = 24

  ==> Algorithm <==

  SCF Algorithm Type is DF.
  DIIS enabled.
  MOM disabled.
  Fractional occupation disabled.
  Guess Type is CORE.
  Energy threshold   = 1.00e-06
  Density threshold  = 1.00e-06
  Integral threshold = 0.00e+00

  ==> Primary Basis <==

  Basis Set: 6-31G*
    Number of shells: 50
    Number of basis function: 104
    Number of Cartesian functions: 104
    Spherical Harmonics?: false
    Max angular momentum: 2

  ==> Pre-Iterations <==

   -------------------------------------------------------
    Irrep   Nso     Nmo     Nalpha   Nbeta   Ndocc  Nsocc
   -------------------------------------------------------
     A        104     104       0       0       0       0
   -------------------------------------------------------
    Total     104     104      24      24      24       0
   -------------------------------------------------------

 OEINTS: Overlap, kinetic, potential, dipole, and quadrupole integrals
         stored in file 35.

  ==> Integral Setup <==

  ==> DFJK: Density-Fitted J/K Matrices <==

    J tasked:                  Yes
    K tasked:                  Yes
    wK tasked:                  No
    OpenMP threads:              1
    Integrals threads:           1
    Memory (MB):              1430
    Algorithm:                Core
    Integral Cache:           NONE
    Schwarz Cutoff:          1E-12
    Fitting Condition:       1E-12

   => Auxiliary Basis Set <=

  Basis Set: 
    Number of shells: 207
    Number of basis function: 661
    Number of Cartesian functions: 661
    Spherical Harmonics?: false
    Max angular momentum: 3

  Minimum eigenvalue in the overlap matrix is 2.9810403677E-03.
  Using Symmetric Orthogonalization.
  SCF Guess: Core (One-Electron) Hamiltonian.

  ==> Iterations <==

                           Total Energy        Delta E     RMS |[F,P]|

   @DF-RHF iter   1:  -246.99467555657154   -2.46995e+02   8.33914e-02 
   @DF-RHF iter   2:  -175.54700372232585    7.14477e+01   9.02089e-02 DIIS
   @DF-RHF iter   3:  -295.01985048563972   -1.19473e+02   4.00797e-02 DIIS
   @DF-RHF iter   4:  -253.52547996890027    4.14944e+01   8.13069e-02 DIIS
   @DF-RHF iter   5:  -285.52445918160538   -3.19990e+01   6.48868e-02 DIIS
   @DF-RHF iter   6:  -298.74023743823341   -1.32158e+01   4.85195e-02 DIIS
   @DF-RHF iter   7:  -306.60016315974713   -7.85993e+00   3.97233e-02 DIIS
   @DF-RHF iter   8:  -320.27076633870729   -1.36706e+01   1.55292e-02 DIIS
   @DF-RHF iter   9:  -321.35925507536024   -1.08849e+00   8.28289e-03 DIIS
   @DF-RHF iter  10:  -321.63674690930691   -2.77492e-01   3.91525e-03 DIIS
   @DF-RHF iter  11:  -321.71488223415110   -7.81353e-02   1.53023e-03 DIIS
   @DF-RHF iter  12:  -321.73047805958322   -1.55958e-02   6.14977e-04 DIIS
   @DF-RHF iter  13:  -321.73256523372766   -2.08717e-03   2.45991e-04 DIIS
   @DF-RHF iter  14:  -321.73304923965657   -4.84006e-04   5.68519e-05 DIIS
   @DF-RHF iter  15:  -321.73309243333335   -4.31937e-05   2.53963e-05 DIIS
   @DF-RHF iter  16:  -321.73310244538334   -1.00120e-05   1.25694e-05 DIIS
   @DF-RHF iter  17:  -321.73310463850555   -2.19312e-06   4.08652e-06 DIIS
   @DF-RHF iter  18:  -321.73310498417504   -3.45669e-07   1.13595e-06 DIIS
   @DF-RHF iter  19:  -321.73310501162905   -2.74540e-08   3.91843e-07 DIIS

  ==> Post-Iterations <==

    Orbital Energies (a.u.)
    -----------------------

    Doubly Occupied:                                                      

       1A    -20.601925     2A    -20.601787     3A    -15.847398  
       4A    -11.298663     5A    -11.256663     6A    -11.228463  
       7A     -1.631875     8A     -1.417317     9A     -1.136254  
      10A     -1.020016    11A     -0.893154    12A     -0.823193  
      13A     -0.756719    14A     -0.735799    15A     -0.727261  
      16A     -0.659583    17A     -0.613844    18A     -0.590033  
      19A     -0.534989    20A     -0.516803    21A     -0.512339  
      22A     -0.483369    23A     -0.474967    24A     -0.448649  

    Virtual:                                                              

      25A      0.118159    26A      0.223706    27A      0.261670  
      28A      0.278006    29A      0.288419    30A      0.298618  
      31A      0.314447    32A      0.331682    33A      0.332524  
      34A      0.379031    35A      0.408622    36A      0.539108  
      37A      0.606383    38A      0.689026    39A      0.703003  
      40A      0.726119    41A      0.742433    42A      0.771208  
      43A      0.853046    44A      0.868468    45A      0.909011  
      46A      0.949291    47A      0.971408    48A      1.035796  
      49A      1.063404    50A      1.075145    51A      1.103289  
      52A      1.122544    53A      1.128606    54A      1.166269  
      55A      1.169544    56A      1.185522    57A      1.194796  
      58A      1.234653    59A      1.247992    60A      1.268214  
      61A      1.285018    62A      1.325528    63A      1.371072  
      64A      1.438083    65A      1.510067    66A      1.611721  
      67A      1.657024    68A      1.766781    69A      1.768057  
      70A      1.814553    71A      1.890441    72A      1.957327  
      73A      2.066449    74A      2.080170    75A      2.111749  
      76A      2.125880    77A      2.160203    78A      2.234359  
      79A      2.283436    80A      2.291027    81A      2.297044  
      82A      2.390726    83A      2.413948    84A      2.448730  
      85A      2.547188    86A      2.570108    87A      2.661539  
      88A      2.677902    89A      2.703628    90A      2.787620  
      91A      2.831963    92A      2.950825    93A      3.026403  
      94A      3.077979    95A      3.232252    96A      3.248827  
      97A      3.278982    98A      3.487212    99A      4.088150  
     100A      4.262253   101A      4.280957   102A      4.599965  
     103A      4.738792   104A      4.919024  

    Final Occupation by Irrep:
              A 
    DOCC [    24 ]

  Energy converged.

  @DF-RHF Final Energy:  -321.73310501162905

   => Energetics <=

    Nuclear Repulsion Energy =            255.7339362971147523
    One-Electron Energy =                -945.3120138480851438
    Two-Electron Energy =                 367.8449725393409153
    DFT Exchange-Correlation Energy =       0.0000000000000000
    Empirical Dispersion Energy =           0.0000000000000000
    PCM Polarization Energy =               0.0000000000000000
    EFP Energy =                            0.0000000000000000
    Total Energy =                       -321.7331050116295046

    Alert: EFP and PCM quantities not currently incorporated into SCF psivars.

Properties will be evaluated at   0.000000,   0.000000,   0.000000 Bohr
  ==> Properties <==


Properties computed using the SCF density matrix

  Nuclear Dipole Moment: (a.u.)
     X:     8.6390      Y:     2.1933      Z:    -1.3998

  Electronic Dipole Moment: (a.u.)
     X:    -7.0827      Y:    -2.3016      Z:     1.8358

  Dipole Moment: (a.u.)
     X:     1.5562      Y:    -0.1083      Z:     0.4360     Total:     1.6198

  Dipole Moment: (Debye)
     X:     3.9555      Y:    -0.2752      Z:     1.1082     Total:     4.1170


  Saving occupied orbitals to File 180.

*** tstop() called on cx1-3-15-4.cx1.hpc.ic.ac.uk at Tue Jul  5 16:50:08 2016
Module time:
	user time   =       9.16 seconds =       0.15 minutes
	system time =       0.06 seconds =       0.00 minutes
	total time  =         10 seconds =       0.17 minutes
Total time:
	user time   =       9.16 seconds =       0.15 minutes
	system time =       0.06 seconds =       0.00 minutes
	total time  =         10 seconds =       0.17 minutes


Properties will be evaluated at   0.000000,   0.000000,   0.000000 Bohr

Properties computed using the  density matrix

  Nuclear Dipole Moment: (a.u.)
     X:     8.6390      Y:     2.1933      Z:    -1.3998

  Electronic Dipole Moment: (a.u.)
     X:    -7.0827      Y:    -2.3016      Z:     1.8358

  Dipole Moment: (a.u.)
     X:     1.5562      Y:    -0.1083      Z:     0.4360     Total:     1.6198

  Dipole Moment: (Debye)
     X:     3.9555      Y:    -0.2752      Z:     1.1082     Total:     4.1170

  Quadrupole Moment: (Debye Ang)
    XX:   -38.8100     YY:   -38.6248     ZZ:   -34.4899
    XY:    -0.2986     XZ:     0.0944     YZ:    -2.4022

  Traceless Quadrupole Moment: (Debye Ang)
    XX:    -1.5018     YY:    -1.3165     ZZ:     2.8183
    XY:    -0.2986     XZ:     0.0944     YZ:    -2.4022

  Mulliken Charges: (a.u.)
   Center  Symbol    Alpha    Beta     Spin     Total
       1     H     0.41200  0.41200  0.00000  0.17600
       2     C     3.25180  3.25180  0.00000 -0.50360
       3     C     3.17266  3.17266  0.00000 -0.34533
       4     H     0.41157  0.41157  0.00000  0.17687
       5     H     0.40204  0.40204  0.00000  0.19592
       6     C     3.08872  3.08872  0.00000 -0.17743
       7     H     0.40544  0.40544  0.00000  0.18912
       8     H     0.39988  0.39988  0.00000  0.20025
       9     N     3.22762  3.22762  0.00000  0.54475
      10     H     0.38687  0.38687  0.00000  0.22626
      11     H     0.38771  0.38771  0.00000  0.22457
      12     O     4.22884  4.22884  0.00000 -0.45767
      13     O     4.22486  4.22486  0.00000 -0.44971

   Total alpha = 24.00000, Total beta = 24.00000, Total charge =  0.00000


*** PSI4 exiting successfully. Buy a developer a beer!
