    -----------------------------------------------------------------------
          Psi4: An Open-Source Ab Initio Electronic Structure Package
                              Psi4 (no tag) Driver

                          Git: Rev {detached?}  

    J. M. Turney, A. C. Simmonett, R. M. Parrish, E. G. Hohenstein,
    F. A. Evangelista, J. T. Fermann, B. J. Mintz, L. A. Burns, J. J. Wilke,
    M. L. Abrams, N. J. Russ, M. L. Leininger, C. L. Janssen, E. T. Seidl,
    W. D. Allen, H. F. Schaefer, R. A. King, E. F. Valeev, C. D. Sherrill,
    and T. D. Crawford, WIREs Comput. Mol. Sci. 2, 556-565 (2012)
    (doi: 10.1002/wcms.93)

                         Additional Contributions by
    A. E. DePrince, M. Saitow, U. Bozkaya, A. Yu. Sokolov
    -----------------------------------------------------------------------


    Psi4 started on: Tue Jul  5 17:22:28 2016

    Process ID:  21030
    PSI4DATADIR: /export131/home/mjharvey/miniconda3/share
    Memory level set to 256.000 MB

  ==> Input File <==

--------------------------------------------------------------------------
set {
	reference rhf
	basis 6-31G*
}


set_num_threads( 1 )
memory 2 gb

molecule MOL {
0 1

H	 -2.646374	 -0.642757	 1.268656
C	 -2.083525	 -0.384536	 0.393091
O	 -0.807605	 -0.127164	 0.768327
F	 -2.118945	 -1.383102	 -0.486752
F	 -2.621877	 0.670592	 -0.209486
C	 -0.372786	 1.184756	 0.718467
C	 -1.399190	 2.022306	 1.470241
Cl	 -0.223967	 1.737191	 -0.957804
H	 0.584265	 1.317300	 1.192026
F	 -2.534896	 2.062142	 0.806369
F	 -0.944495	 3.254848	 1.577612
F	 -1.629950	 1.558561	 2.674261

	symmetry c1
}
set optking {
	frozen_dihedral = ("
		10 7 6 9,
		9 6 3 2
	")
}

ee = energy('scf')
oeprop('DIPOLE', 'QUADRUPOLE', 'MULLIKEN_CHARGES')
f=open( 'psi4out.xyz', 'w' )
f.write( "12  " )
f.write( str(ee) + "\n" )
f.write( MOL.save_string_xyz() )
f.close()
--------------------------------------------------------------------------

  Memory set to   2.000 GiB by Python script.

*** tstart() called on cx1-3-4-4.cx1.hpc.ic.ac.uk
*** at Tue Jul  5 17:22:28 2016


         ---------------------------------------------------------
                                   SCF
            by Justin Turney, Rob Parrish, and Andy Simmonett
                              RHF Reference
                        1 Threads,   2000 MiB Core
         ---------------------------------------------------------

  ==> Geometry <==

    Molecular point group: c1
    Full point group: C1

    Geometry (in Angstrom), charge = 0, multiplicity = 1:

       Center              X                  Y                   Z               Mass       
    ------------   -----------------  -----------------  -----------------  -----------------
           H         -1.253597617491    -1.786150113680     0.751572169317     1.007825032070
           C         -0.690748617491    -1.527929113680    -0.123992830683    12.000000000000
           O          0.585171382509    -1.270557113680     0.251243169317    15.994914619560
           F         -0.726168617491    -2.526495113680    -1.003835830683    18.998403224000
           F         -1.229100617491    -0.472801113680    -0.726569830683    18.998403224000
           C          1.019990382509     0.041362886320     0.201383169317    12.000000000000
           C         -0.006413617491     0.878912886320     0.953157169317    12.000000000000
          CL          1.168809382509     0.593797886320    -1.474887830683    34.968852682000
           H          1.977041382509     0.173906886320     0.674942169317     1.007825032070
           F         -1.142119617491     0.918748886320     0.289285169317    18.998403224000
           F          0.448281382509     2.111454886320     1.060528169317    18.998403224000
           F         -0.237173617491     0.415167886320     2.157177169317    18.998403224000

  Running in c1 symmetry.

  Rotational constants: A =      0.05543  B =      0.03609  C =      0.02826 [cm^-1]
  Rotational constants: A =   1661.80812  B =   1081.95170  C =    847.35265 [MHz]
  Nuclear repulsion =  780.843987273769017

  Charge       = 0
  Multiplicity = 1
  Electrons    = 90
  Nalpha       = 45
  Nbeta        = 45

  ==> Algorithm <==

  SCF Algorithm Type is DF.
  DIIS enabled.
  MOM disabled.
  Fractional occupation disabled.
  Guess Type is CORE.
  Energy threshold   = 1.00e-06
  Density threshold  = 1.00e-06
  Integral threshold = 0.00e+00

  ==> Primary Basis <==

  Basis Set: 6-31G*
    Number of shells: 66
    Number of basis function: 158
    Number of Cartesian functions: 158
    Spherical Harmonics?: false
    Max angular momentum: 2

  ==> Pre-Iterations <==

   -------------------------------------------------------
    Irrep   Nso     Nmo     Nalpha   Nbeta   Ndocc  Nsocc
   -------------------------------------------------------
     A        158     158       0       0       0       0
   -------------------------------------------------------
    Total     158     158      45      45      45       0
   -------------------------------------------------------

 OEINTS: Overlap, kinetic, potential, dipole, and quadrupole integrals
         stored in file 35.

  ==> Integral Setup <==

  ==> DFJK: Density-Fitted J/K Matrices <==

    J tasked:                  Yes
    K tasked:                  Yes
    wK tasked:                  No
    OpenMP threads:              1
    Integrals threads:           1
    Memory (MB):              1430
    Algorithm:                Core
    Integral Cache:           NONE
    Schwarz Cutoff:          1E-12
    Fitting Condition:       1E-12

   => Auxiliary Basis Set <=

  Basis Set: 
    Number of shells: 270
    Number of basis function: 909
    Number of Cartesian functions: 909
    Spherical Harmonics?: false
    Max angular momentum: 3

  Minimum eigenvalue in the overlap matrix is 1.5406836195E-03.
  Using Symmetric Orthogonalization.
  SCF Guess: Core (One-Electron) Hamiltonian.

  ==> Iterations <==

                           Total Energy        Delta E     RMS |[F,P]|

   @DF-RHF iter   1: -1046.05032233386919   -1.04605e+03   7.35751e-02 
   @DF-RHF iter   2:  -921.43223605889489    1.24618e+02   7.73220e-02 DIIS
   @DF-RHF iter   3: -1103.05177601794276   -1.81620e+02   3.40930e-02 DIIS
   @DF-RHF iter   4: -1033.68623720257892    6.93655e+01   7.59779e-02 DIIS
   @DF-RHF iter   5: -1138.70026006337548   -1.05014e+02   2.39364e-02 DIIS
   @DF-RHF iter   6: -1145.49854302344738   -6.79828e+00   8.54682e-03 DIIS
   @DF-RHF iter   7: -1146.02328630285274   -5.24743e-01   4.02710e-03 DIIS
   @DF-RHF iter   8: -1146.16594958240080   -1.42663e-01   1.93911e-03 DIIS
   @DF-RHF iter   9: -1146.20444526288998   -3.84957e-02   5.42610e-04 DIIS
   @DF-RHF iter  10: -1146.20858010324741   -4.13484e-03   1.74319e-04 DIIS
   @DF-RHF iter  11: -1146.20882866501552   -2.48562e-04   7.04465e-05 DIIS
   @DF-RHF iter  12: -1146.20890725396225   -7.85889e-05   1.25399e-05 DIIS
   @DF-RHF iter  13: -1146.20891037477531   -3.12081e-06   3.88537e-06 DIIS
   @DF-RHF iter  14: -1146.20891062249393   -2.47719e-07   1.06934e-06 DIIS
   @DF-RHF iter  15: -1146.20891064371835   -2.12244e-08   2.85976e-07 DIIS

  ==> Post-Iterations <==

    Orbital Energies (a.u.)
    -----------------------

    Doubly Occupied:                                                      

       1A   -104.841894     2A    -26.373310     3A    -26.358300  
       4A    -26.335601     5A    -26.331020     6A    -26.317196  
       7A    -20.644226     8A    -11.527619     9A    -11.480245  
      10A    -11.405232    11A    -10.576887    12A     -8.046238  
      13A     -8.042691    14A     -8.042526    15A     -1.771730  
      16A     -1.714316    17A     -1.666927    18A     -1.659847  
      19A     -1.614066    20A     -1.485789    21A     -1.178540  
      22A     -1.048150    23A     -1.001840    24A     -0.914443  
      25A     -0.880129    26A     -0.860989    27A     -0.859070  
      28A     -0.817626    29A     -0.797757    30A     -0.763011  
      31A     -0.748492    32A     -0.723939    33A     -0.707147  
      34A     -0.697953    35A     -0.680955    36A     -0.675029  
      37A     -0.665493    38A     -0.654518    39A     -0.642396  
      40A     -0.601579    41A     -0.573411    42A     -0.556245  
      43A     -0.514106    44A     -0.474205    45A     -0.463570  

    Virtual:                                                              

      46A      0.171357    47A      0.238462    48A      0.261264  
      49A      0.278332    50A      0.322526    51A      0.393359  
      52A      0.396594    53A      0.424769    54A      0.440282  
      55A      0.475904    56A      0.494725    57A      0.555598  
      58A      0.618216    59A      0.633027    60A      0.641926  
      61A      0.680695    62A      0.700362    63A      0.729844  
      64A      0.749068    65A      0.761262    66A      0.769970  
      67A      0.786233    68A      0.820850    69A      0.941662  
      70A      0.949003    71A      1.048880    72A      1.073615  
      73A      1.106650    74A      1.124626    75A      1.150840  
      76A      1.155987    77A      1.196110    78A      1.240343  
      79A      1.257923    80A      1.288203    81A      1.329081  
      82A      1.350818    83A      1.382841    84A      1.403436  
      85A      1.438429    86A      1.466359    87A      1.502376  
      88A      1.513718    89A      1.554621    90A      1.581884  
      91A      1.602667    92A      1.617660    93A      1.631627  
      94A      1.653089    95A      1.657906    96A      1.671349  
      97A      1.679498    98A      1.698900    99A      1.714673  
     100A      1.802423   101A      1.828811   102A      1.895243  
     103A      1.911930   104A      1.953526   105A      1.967545  
     106A      2.030102   107A      2.040146   108A      2.060291  
     109A      2.075225   110A      2.099894   111A      2.113381  
     112A      2.115544   113A      2.133961   114A      2.220694  
     115A      2.242042   116A      2.277366   117A      2.303055  
     118A      2.313817   119A      2.330332   120A      2.355554  
     121A      2.379846   122A      2.396608   123A      2.408853  
     124A      2.432973   125A      2.461775   126A      2.471647  
     127A      2.523908   128A      2.558440   129A      2.604487  
     130A      2.637911   131A      2.662388   132A      2.746982  
     133A      2.796340   134A      2.872953   135A      2.931084  
     136A      3.007352   137A      3.020323   138A      3.120858  
     139A      3.165646   140A      3.185092   141A      3.284801  
     142A      3.327045   143A      3.397341   144A      3.414082  
     145A      3.454996   146A      3.465527   147A      3.490693  
     148A      3.619012   149A      4.366587   150A      4.567215  
     151A      4.680690   152A      4.740436   153A      4.806573  
     154A      4.982343   155A      5.150723   156A      5.398619  
     157A      5.743317   158A      6.265401  

    Final Occupation by Irrep:
              A 
    DOCC [    45 ]

  Energy converged.

  @DF-RHF Final Energy: -1146.20891064371835

   => Energetics <=

    Nuclear Repulsion Energy =            780.8439872737690166
    One-Electron Energy =               -3144.6332175384723087
    Two-Electron Energy =                1217.5803196209831185
    DFT Exchange-Correlation Energy =       0.0000000000000000
    Empirical Dispersion Energy =           0.0000000000000000
    PCM Polarization Energy =               0.0000000000000000
    EFP Energy =                            0.0000000000000000
    Total Energy =                      -1146.2089106437201735

    Alert: EFP and PCM quantities not currently incorporated into SCF psivars.

Properties will be evaluated at   0.000000,   0.000000,   0.000000 Bohr
  ==> Properties <==


Properties computed using the SCF density matrix

  Nuclear Dipole Moment: (a.u.)
     X:     2.3338      Y:    -2.4819      Z:     1.0127

  Electronic Dipole Moment: (a.u.)
     X:    -2.0645      Y:     2.3588      Z:    -0.2531

  Dipole Moment: (a.u.)
     X:     0.2693      Y:    -0.1231      Z:     0.7597     Total:     0.8153

  Dipole Moment: (Debye)
     X:     0.6845      Y:    -0.3129      Z:     1.9309     Total:     2.0724


  Saving occupied orbitals to File 180.

*** tstop() called on cx1-3-4-4.cx1.hpc.ic.ac.uk at Tue Jul  5 17:22:47 2016
Module time:
	user time   =      18.42 seconds =       0.31 minutes
	system time =       0.21 seconds =       0.00 minutes
	total time  =         19 seconds =       0.32 minutes
Total time:
	user time   =      18.42 seconds =       0.31 minutes
	system time =       0.21 seconds =       0.00 minutes
	total time  =         19 seconds =       0.32 minutes


Properties will be evaluated at   0.000000,   0.000000,   0.000000 Bohr

Properties computed using the  density matrix

  Nuclear Dipole Moment: (a.u.)
     X:     2.3338      Y:    -2.4819      Z:     1.0127

  Electronic Dipole Moment: (a.u.)
     X:    -2.0645      Y:     2.3588      Z:    -0.2531

  Dipole Moment: (a.u.)
     X:     0.2693      Y:    -0.1231      Z:     0.7597     Total:     0.8153

  Dipole Moment: (Debye)
     X:     0.6845      Y:    -0.3129      Z:     1.9309     Total:     2.0724

  Quadrupole Moment: (Debye Ang)
    XX:   -57.0562     YY:   -63.7116     ZZ:   -61.4838
    XY:     2.0669     XZ:     0.2114     YZ:    -2.8943

  Traceless Quadrupole Moment: (Debye Ang)
    XX:     3.6943     YY:    -2.9611     ZZ:    -0.7332
    XY:     2.0669     XZ:     0.2114     YZ:    -2.8943

  Mulliken Charges: (a.u.)
   Center  Symbol    Alpha    Beta     Spin     Total
       1     H     0.40941  0.40941  0.00000  0.18118
       2     C     2.56773  2.56773  0.00000  0.86454
       3     O     4.30835  4.30835  0.00000 -0.61670
       4     F     4.67941  4.67941  0.00000 -0.35882
       5     F     4.67552  4.67552  0.00000 -0.35103
       6     C     3.02913  3.02913  0.00000 -0.05827
       7     C     2.45441  2.45441  0.00000  1.09119
       8    CL     8.49915  8.49915  0.00000  0.00169
       9     H     0.36135  0.36135  0.00000  0.27729
      10     F     4.66419  4.66419  0.00000 -0.32837
      11     F     4.67706  4.67706  0.00000 -0.35413
      12     F     4.67429  4.67429  0.00000 -0.34857

   Total alpha = 45.00000, Total beta = 45.00000, Total charge =  0.00000


*** PSI4 exiting successfully. Buy a developer a beer!
