    -----------------------------------------------------------------------
          Psi4: An Open-Source Ab Initio Electronic Structure Package
                              Psi4 (no tag) Driver

                          Git: Rev {detached?}  

    J. M. Turney, A. C. Simmonett, R. M. Parrish, E. G. Hohenstein,
    F. A. Evangelista, J. T. Fermann, B. J. Mintz, L. A. Burns, J. J. Wilke,
    M. L. Abrams, N. J. Russ, M. L. Leininger, C. L. Janssen, E. T. Seidl,
    W. D. Allen, H. F. Schaefer, R. A. King, E. F. Valeev, C. D. Sherrill,
    and T. D. Crawford, WIREs Comput. Mol. Sci. 2, 556-565 (2012)
    (doi: 10.1002/wcms.93)

                         Additional Contributions by
    A. E. DePrince, M. Saitow, U. Bozkaya, A. Yu. Sokolov
    -----------------------------------------------------------------------


    Psi4 started on: Tue Jul  5 17:14:42 2016

    Process ID:   9274
    PSI4DATADIR: /export131/home/mjharvey/miniconda3/share
    Memory level set to 256.000 MB

  ==> Input File <==

--------------------------------------------------------------------------
set {
	reference rhf
	basis 6-31G*
}


set_num_threads( 1 )
memory 2 gb

molecule MOL {
0 1

O	 2.544561	 1.850230	 -0.436504
C	 1.838777	 1.723109	 -1.389639
C	 0.569680	 0.890692	 -1.352025
C	 2.167518	 2.390316	 -2.709457
C	 0.291004	 0.242674	 0.000989
H	 -0.258633	 1.532446	 -1.649411
H	 0.643551	 0.134968	 -2.132938
C	 -0.994322	 -0.586602	 0.000262
H	 0.231019	 1.016052	 0.760210
H	 1.134073	 -0.383189	 0.276087
C	 -2.259874	 0.272531	 0.000494
H	 -1.004862	 -1.240012	 -0.870939
H	 -1.005220	 -1.241071	 0.870675
C	 -2.317122	 1.265725	 1.162519
H	 -3.133993	 -0.375165	 0.038251
H	 -2.325298	 0.816318	 -0.940257
C	 -3.584274	 2.120107	 1.156056
H	 -2.253007	 0.723222	 2.103477
H	 -1.444617	 1.914711	 1.124969
H	 -4.474465	 1.501489	 1.226924
H	 -3.596081	 2.813356	 1.991501
H	 -3.659781	 2.702308	 0.242008
H	 1.363265	 3.056339	 -3.008133
H	 3.085857	 2.952964	 -2.615040
H	 2.277291	 1.646185	 -3.492945

	symmetry c1
}
set optking {
	frozen_dihedral = ("
		9 5 8 12,
		15 11 14 18,
		1 2 3 6,
		9 5 3 6
	")
}

ee = energy('scf')
oeprop('DIPOLE', 'QUADRUPOLE', 'MULLIKEN_CHARGES')
f=open( 'psi4out.xyz', 'w' )
f.write( "25  " )
f.write( str(ee) + "\n" )
f.write( MOL.save_string_xyz() )
f.close()
--------------------------------------------------------------------------

  Memory set to   2.000 GiB by Python script.

*** tstart() called on cx1-1-2-1.cx1.hpc.ic.ac.uk
*** at Tue Jul  5 17:14:43 2016


         ---------------------------------------------------------
                                   SCF
            by Justin Turney, Rob Parrish, and Andy Simmonett
                              RHF Reference
                        1 Threads,   2000 MiB Core
         ---------------------------------------------------------

  ==> Geometry <==

    Molecular point group: c1
    Full point group: C1

    Geometry (in Angstrom), charge = 0, multiplicity = 1:

       Center              X                  Y                   Z               Mass       
    ------------   -----------------  -----------------  -----------------  -----------------
           O          2.742009035754     0.701891124840    -0.040980169739    15.994914619560
           C          2.036225035754     0.574770124840    -0.994115169739    12.000000000000
           C          0.767128035754    -0.257646875160    -0.956501169739    12.000000000000
           C          2.364966035754     1.241977124840    -2.313933169739    12.000000000000
           C          0.488452035754    -0.905664875160     0.396512830261    12.000000000000
           H         -0.061184964246     0.384107124840    -1.253887169739     1.007825032070
           H          0.840999035754    -1.013370875160    -1.737414169739     1.007825032070
           C         -0.796873964246    -1.734940875160     0.395785830261    12.000000000000
           H          0.428467035754    -0.132286875160     1.155733830261     1.007825032070
           H          1.331521035754    -1.531527875160     0.671610830261     1.007825032070
           C         -2.062425964246    -0.875807875160     0.396017830261    12.000000000000
           H         -0.807413964246    -2.388350875160    -0.475415169739     1.007825032070
           H         -0.807771964246    -2.389409875160     1.266198830261     1.007825032070
           C         -2.119673964246     0.117386124840     1.558042830261    12.000000000000
           H         -2.936544964246    -1.523503875160     0.433774830261     1.007825032070
           H         -2.127849964246    -0.332020875160    -0.544733169739     1.007825032070
           C         -3.386825964246     0.971768124840     1.551579830261    12.000000000000
           H         -2.055558964246    -0.425116875160     2.499000830261     1.007825032070
           H         -1.247168964246     0.766372124840     1.520492830261     1.007825032070
           H         -4.277016964246     0.353150124840     1.622447830261     1.007825032070
           H         -3.398632964246     1.665017124840     2.387024830261     1.007825032070
           H         -3.462332964246     1.553969124840     0.637531830261     1.007825032070
           H          1.560713035754     1.908000124840    -2.612609169739     1.007825032070
           H          3.283305035754     1.804625124840    -2.219516169739     1.007825032070
           H          2.474739035754     0.497846124840    -3.097421169739     1.007825032070

  Running in c1 symmetry.

  Rotational constants: A =      0.09109  B =      0.02130  C =      0.02003 [cm^-1]
  Rotational constants: A =   2730.71121  B =    638.50747  C =    600.38843 [MHz]
  Nuclear repulsion =  455.817705161116578

  Charge       = 0
  Multiplicity = 1
  Electrons    = 72
  Nalpha       = 36
  Nbeta        = 36

  ==> Algorithm <==

  SCF Algorithm Type is DF.
  DIIS enabled.
  MOM disabled.
  Fractional occupation disabled.
  Guess Type is CORE.
  Energy threshold   = 1.00e-06
  Density threshold  = 1.00e-06
  Integral threshold = 0.00e+00

  ==> Primary Basis <==

  Basis Set: 6-31G*
    Number of shells: 86
    Number of basis function: 167
    Number of Cartesian functions: 167
    Spherical Harmonics?: false
    Max angular momentum: 2

  ==> Pre-Iterations <==

   -------------------------------------------------------
    Irrep   Nso     Nmo     Nalpha   Nbeta   Ndocc  Nsocc
   -------------------------------------------------------
     A        167     167       0       0       0       0
   -------------------------------------------------------
    Total     167     167      36      36      36       0
   -------------------------------------------------------

 OEINTS: Overlap, kinetic, potential, dipole, and quadrupole integrals
         stored in file 35.

  ==> Integral Setup <==

  ==> DFJK: Density-Fitted J/K Matrices <==

    J tasked:                  Yes
    K tasked:                  Yes
    wK tasked:                  No
    OpenMP threads:              1
    Integrals threads:           1
    Memory (MB):              1430
    Algorithm:                Core
    Integral Cache:           NONE
    Schwarz Cutoff:          1E-12
    Fitting Condition:       1E-12

   => Auxiliary Basis Set <=

  Basis Set: 
    Number of shells: 360
    Number of basis function: 1129
    Number of Cartesian functions: 1129
    Spherical Harmonics?: false
    Max angular momentum: 3

  Minimum eigenvalue in the overlap matrix is 3.0621931222E-03.
  Using Symmetric Orthogonalization.
  SCF Guess: Core (One-Electron) Hamiltonian.

  ==> Iterations <==

                           Total Energy        Delta E     RMS |[F,P]|

   @DF-RHF iter   1:  -285.78511657697311   -2.85785e+02   6.18463e-02 
   @DF-RHF iter   2:  -170.19233911625656    1.15593e+02   7.00849e-02 DIIS
   @DF-RHF iter   3:  -349.48428679379856   -1.79292e+02   2.62389e-02 DIIS
   @DF-RHF iter   4:  -173.47731599683527    1.76007e+02   7.15821e-02 DIIS
   @DF-RHF iter   5:  -284.75763326678691   -1.11280e+02   5.52665e-02 DIIS
   @DF-RHF iter   6:  -306.89171258352826   -2.21341e+01   5.08294e-02 DIIS
   @DF-RHF iter   7:  -336.60601356346376   -2.97143e+01   4.11421e-02 DIIS
   @DF-RHF iter   8:  -354.67507550685650   -1.80691e+01   3.72146e-02 DIIS
   @DF-RHF iter   9:  -363.47410731951106   -8.79903e+00   2.96474e-02 DIIS
   @DF-RHF iter  10:  -380.07027470420439   -1.65962e+01   1.75814e-02 DIIS
   @DF-RHF iter  11:  -386.51508000340368   -6.44481e+00   5.64804e-03 DIIS
   @DF-RHF iter  12:  -387.01106318377856   -4.95983e-01   3.05876e-03 DIIS
   @DF-RHF iter  13:  -387.11155809594072   -1.00495e-01   9.22042e-04 DIIS
   @DF-RHF iter  14:  -387.12780463871763   -1.62465e-02   3.56906e-04 DIIS
   @DF-RHF iter  15:  -387.13007603192193   -2.27139e-03   1.24779e-04 DIIS
   @DF-RHF iter  16:  -387.13041836421860   -3.42332e-04   4.15413e-05 DIIS
   @DF-RHF iter  17:  -387.13045869602240   -4.03318e-05   7.80561e-06 DIIS
   @DF-RHF iter  18:  -387.13046038100208   -1.68498e-06   1.86328e-06 DIIS
   @DF-RHF iter  19:  -387.13046046493298   -8.39309e-08   5.98038e-07 DIIS

  ==> Post-Iterations <==

    Orbital Energies (a.u.)
    -----------------------

    Doubly Occupied:                                                      

       1A    -20.550543     2A    -11.326330     3A    -11.231519  
       4A    -11.228426     5A    -11.216660     6A    -11.215834  
       7A    -11.215258     8A    -11.214812     9A    -11.209742  
      10A     -1.395818    11A     -1.098342    12A     -1.053225  
      13A     -1.013307    14A     -0.968572    15A     -0.894392  
      16A     -0.832837    17A     -0.771718    18A     -0.730802  
      19A     -0.663171    20A     -0.650846    21A     -0.628820  
      22A     -0.623335    23A     -0.600012    24A     -0.584746  
      25A     -0.571537    26A     -0.561171    27A     -0.548784  
      28A     -0.529990    29A     -0.505892    30A     -0.498619  
      31A     -0.486472    32A     -0.481900    33A     -0.459469  
      34A     -0.453074    35A     -0.446394    36A     -0.400844  

    Virtual:                                                              

      37A      0.169999    38A      0.214000    39A      0.241758  
      40A      0.254680    41A      0.268752    42A      0.270519  
      43A      0.294077    44A      0.305343    45A      0.312841  
      46A      0.319319    47A      0.322365    48A      0.333386  
      49A      0.338060    50A      0.344971    51A      0.362632  
      52A      0.376664    53A      0.385980    54A      0.398329  
      55A      0.411752    56A      0.419767    57A      0.440242  
      58A      0.447101    59A      0.469782    60A      0.508852  
      61A      0.526193    62A      0.695304    63A      0.711885  
      64A      0.715574    65A      0.748239    66A      0.759806  
      67A      0.761692    68A      0.770159    69A      0.793695  
      70A      0.805973    71A      0.834878    72A      0.853646  
      73A      0.898170    74A      0.932110    75A      0.948115  
      76A      0.964202    77A      0.971899    78A      0.979235  
      79A      0.994334    80A      1.022994    81A      1.028094  
      82A      1.070975    83A      1.101327    84A      1.114618  
      85A      1.123903    86A      1.140741    87A      1.148812  
      88A      1.157198    89A      1.170746    90A      1.176023  
      91A      1.184967    92A      1.191709    93A      1.199068  
      94A      1.211558    95A      1.213053    96A      1.221531  
      97A      1.237037    98A      1.241266    99A      1.254365  
     100A      1.258544   101A      1.280072   102A      1.298110  
     103A      1.312999   104A      1.372739   105A      1.412894  
     106A      1.425838   107A      1.478373   108A      1.643948  
     109A      1.650971   110A      1.687652   111A      1.703616  
     112A      1.742381   113A      1.791856   114A      1.826947  
     115A      1.862699   116A      1.898608   117A      1.914461  
     118A      2.018523   119A      2.031265   120A      2.060298  
     121A      2.098086   122A      2.118042   123A      2.149374  
     124A      2.153825   125A      2.198403   126A      2.207759  
     127A      2.232643   128A      2.258733   129A      2.283749  
     130A      2.289156   131A      2.295933   132A      2.316031  
     133A      2.351797   134A      2.384028   135A      2.428912  
     136A      2.460635   137A      2.500329   138A      2.522940  
     139A      2.577510   140A      2.606653   141A      2.616584  
     142A      2.667934   143A      2.697567   144A      2.708934  
     145A      2.711970   146A      2.771183   147A      2.789170  
     148A      2.818950   149A      2.899539   150A      2.920513  
     151A      2.966894   152A      2.975368   153A      2.989265  
     154A      3.056132   155A      3.140648   156A      3.206619  
     157A      3.374366   158A      3.412067   159A      4.401996  
     160A      4.530909   161A      4.590212   162A      4.682158  
     163A      4.752663   164A      4.837516   165A      4.865696  
     166A      4.945699   167A      5.010904  

    Final Occupation by Irrep:
              A 
    DOCC [    36 ]

  Energy converged.

  @DF-RHF Final Energy:  -387.13046046493298

   => Energetics <=

    Nuclear Repulsion Energy =            455.8177051611165780
    One-Electron Energy =               -1428.1697295095575555
    Two-Electron Energy =                 585.2215638835077698
    DFT Exchange-Correlation Energy =       0.0000000000000000
    Empirical Dispersion Energy =           0.0000000000000000
    PCM Polarization Energy =               0.0000000000000000
    EFP Energy =                            0.0000000000000000
    Total Energy =                       -387.1304604649332077

    Alert: EFP and PCM quantities not currently incorporated into SCF psivars.

Properties will be evaluated at   0.000000,   0.000000,   0.000000 Bohr
  ==> Properties <==


Properties computed using the SCF density matrix

  Nuclear Dipole Moment: (a.u.)
     X:   -10.5444      Y:    -0.7489      Z:     0.2368

  Electronic Dipole Moment: (a.u.)
     X:     9.8377      Y:     0.5907      Z:    -1.1030

  Dipole Moment: (a.u.)
     X:    -0.7067      Y:    -0.1583      Z:    -0.8662     Total:     1.1290

  Dipole Moment: (Debye)
     X:    -1.7962      Y:    -0.4023      Z:    -2.2015     Total:     2.8696


  Saving occupied orbitals to File 180.

*** tstop() called on cx1-1-2-1.cx1.hpc.ic.ac.uk at Tue Jul  5 17:15:13 2016
Module time:
	user time   =      29.31 seconds =       0.49 minutes
	system time =       0.33 seconds =       0.01 minutes
	total time  =         30 seconds =       0.50 minutes
Total time:
	user time   =      29.31 seconds =       0.49 minutes
	system time =       0.33 seconds =       0.01 minutes
	total time  =         30 seconds =       0.50 minutes


Properties will be evaluated at   0.000000,   0.000000,   0.000000 Bohr

Properties computed using the  density matrix

  Nuclear Dipole Moment: (a.u.)
     X:   -10.5444      Y:    -0.7489      Z:     0.2368

  Electronic Dipole Moment: (a.u.)
     X:     9.8377      Y:     0.5907      Z:    -1.1030

  Dipole Moment: (a.u.)
     X:    -0.7067      Y:    -0.1583      Z:    -0.8662     Total:     1.1290

  Dipole Moment: (Debye)
     X:    -1.7962      Y:    -0.4023      Z:    -2.2015     Total:     2.8696

  Quadrupole Moment: (Debye Ang)
    XX:   -67.0223     YY:   -57.8830     ZZ:   -54.8480
    XY:    -1.5522     XZ:    -5.2563     YZ:    -1.7903

  Traceless Quadrupole Moment: (Debye Ang)
    XX:    -7.1046     YY:     2.0348     ZZ:     5.0698
    XY:    -1.5522     XZ:    -5.2563     YZ:    -1.7903

  Mulliken Charges: (a.u.)
   Center  Symbol    Alpha    Beta     Spin     Total
       1     O     4.26093  4.26093  0.00000 -0.52187
       2     C     2.73541  2.73541  0.00000  0.52918
       3     C     3.21165  3.21165  0.00000 -0.42330
       4     C     3.28667  3.28667  0.00000 -0.57334
       5     C     3.15584  3.15584  0.00000 -0.31168
       6     H     0.40932  0.40932  0.00000  0.18136
       7     H     0.40978  0.40978  0.00000  0.18045
       8     C     3.15757  3.15757  0.00000 -0.31514
       9     H     0.40786  0.40786  0.00000  0.18428
      10     H     0.40995  0.40995  0.00000  0.18010
      11     C     3.15409  3.15409  0.00000 -0.30818
      12     H     0.42309  0.42309  0.00000  0.15381
      13     H     0.41844  0.41844  0.00000  0.16311
      14     C     3.15593  3.15593  0.00000 -0.31187
      15     H     0.42017  0.42017  0.00000  0.15966
      16     H     0.42618  0.42618  0.00000  0.14763
      17     C     3.23794  3.23794  0.00000 -0.47588
      18     H     0.42157  0.42157  0.00000  0.15685
      19     H     0.41998  0.41998  0.00000  0.16005
      20     H     0.42182  0.42182  0.00000  0.15637
      21     H     0.41851  0.41851  0.00000  0.16298
      22     H     0.42327  0.42327  0.00000  0.15346
      23     H     0.40887  0.40887  0.00000  0.18227
      24     H     0.39650  0.39650  0.00000  0.20701
      25     H     0.40865  0.40865  0.00000  0.18271

   Total alpha = 36.00000, Total beta = 36.00000, Total charge =  0.00000


*** PSI4 exiting successfully. Buy a developer a beer!
