
    -----------------------------------------------------------------------
          Psi4: An Open-Source Ab Initio Electronic Structure Package
                               Psi4 1.1 release

                         Git: Rev {HEAD} add49b9 


    R. M. Parrish, L. A. Burns, D. G. A. Smith, A. C. Simmonett,
    A. E. DePrince III, E. G. Hohenstein, U. Bozkaya, A. Yu. Sokolov,
    R. Di Remigio, R. M. Richard, J. F. Gonthier, A. M. James,
    H. R. McAlexander, A. Kumar, M. Saitow, X. Wang, B. P. Pritchard,
    P. Verma, H. F. Schaefer III, K. Patkowski, R. A. King, E. F. Valeev,
    F. A. Evangelista, J. M. Turney, T. D. Crawford, and C. D. Sherrill,
    J. Chem. Theory Comput. in press (2017).
    (doi: 10.1021/acs.jctc.7b00174)

    -----------------------------------------------------------------------


    Psi4 started on: Tuesday, 12 December 2017 12:40PM

    Process ID:   5093
    PSIDATADIR: /shared/raimis/opt/miniconda/envs/htmd/share/psi4
    Memory:     500.0 MiB
    Threads:    1
    
  ==> Input File <==

--------------------------------------------------------------------------
set_num_threads(1)
set_memory(4203741184)

set { reference rks }
set { basis cc-pVDZ }

molecule MOL {
    0 1
    noreorient
    nocom
    symmetry c1
    O    1.014300  -0.002300   0.060500
    O    2.462400  -0.107500  -0.002400
    H    0.821200  -0.823600  -0.430600
    H    2.636361   0.199763   0.907635
}

set optking { frozen_dihedral = (" 3 1 2 4 ") }

energy, wfn = energy('B3LYP-D3', return_wfn=True)

import os
os.chdir(os.environ['HTMD_PSI4_WORKDIR'])

oeprop(wfn, 'DIPOLE', 'QUADRUPOLE', 'MULLIKEN_CHARGES')

with open('psi4out.xyz', 'w') as f:
    f.write('4 ' )
    f.write('%.12f\n' % energy)
    f.write(MOL.save_string_xyz())
--------------------------------------------------------------------------
  Threads set to 1 by Python driver.

  Memory set to   3.915 GiB by Python driver.

*** tstart() called on computer06
*** at Tue Dec 12 12:40:23 2017

   => Loading Basis Set <=

    Name: CC-PVDZ
    Role: ORBITAL
    Keyword: BASIS
    atoms 1-2 entry O          line   190 file /shared/raimis/opt/miniconda/envs/htmd/share/psi4/basis/cc-pvdz.gbs 
    atoms 3-4 entry H          line    20 file /shared/raimis/opt/miniconda/envs/htmd/share/psi4/basis/cc-pvdz.gbs 


         ---------------------------------------------------------
                                   SCF
            by Justin Turney, Rob Parrish, and Andy Simmonett
                              RKS Reference
                        1 Threads,   4009 MiB Core
         ---------------------------------------------------------

  ==> Geometry <==

    Molecular point group: c1
    Full point group: C1

    Geometry (in Angstrom), charge = 0, multiplicity = 1:

       Center              X                  Y                   Z               Mass       
    ------------   -----------------  -----------------  -----------------  -----------------
           O          1.014300000000    -0.002300000000     0.060500000000    15.994914619560
           O          2.462400000000    -0.107500000000    -0.002400000000    15.994914619560
           H          0.821200000000    -0.823600000000    -0.430600000000     1.007825032070
           H          2.636361000000     0.199763000000     0.907635000000     1.007825032070

  Running in c1 symmetry.

  Rotational constants: A =      9.62653  B =      0.13867  C =      0.13717 [cm^-1]
  Rotational constants: A = 288596.00823  B =   4157.08399  C =   4112.28158 [MHz]
  Nuclear repulsion =   36.790072153525109

  Charge       = 0
  Multiplicity = 1
  Electrons    = 18
  Nalpha       = 9
  Nbeta        = 9

  ==> Algorithm <==

  SCF Algorithm Type is DF.
  DIIS enabled.
  MOM disabled.
  Fractional occupation disabled.
  Guess Type is SAD.
  Energy threshold   = 1.00e-06
  Density threshold  = 1.00e-06
  Integral threshold = 0.00e+00

  ==> Primary Basis <==

  Basis Set: CC-PVDZ
    Blend: CC-PVDZ
    Number of shells: 18
    Number of basis function: 38
    Number of Cartesian functions: 40
    Spherical Harmonics?: true
    Max angular momentum: 2

  ==> DFT Potential <==

   => B3LYP Composite Functional <= 

    B3LYP Hybrid-GGA Exchange-Correlation Functional (VWN1-RPA)

    P.J. Stephens et. al., J. Phys. Chem., 98, 11623-11627, 1994

    Points   =           5000
    Deriv    =              1
    GGA      =           TRUE
    Meta     =          FALSE

    X_LRC        =          FALSE
    X_Hybrid     =           TRUE
    X_Alpha      =   2.000000E-01
    X_Omega      =   0.000000E+00
    C_LRC        =          FALSE
    C_Hybrid     =          FALSE
    C_Alpha      =   0.000000E+00
    C_Omega      =   0.000000E+00

   => Exchange Functionals <=

    0.8000    B3_X
    0.2000      HF 

   => Correlation Functionals <=

    0.1900 VWN3RPA_C
    0.8100   LYP_C

   => Molecular Quadrature <=

    Radial Scheme    =       TREUTLER
    Pruning Scheme   =           FLAT
    Nuclear Scheme   =       TREUTLER

    BS radius alpha  =              1
    Pruning alpha    =              1
    Radial Points    =             75
    Spherical Points =            302
    Total Points     =          88336
    Total Blocks     =             88
    Max Points       =           4877
    Max Functions    =             38

   => -D3ZERO: Empirical Dispersion <=

    Grimme's -D3 (zero-damping) Dispersion Correction
    Grimme S.; Antony J.; Ehrlich S.; Krieg H. (2010), J. Chem. Phys., 132: 154104

        S6 =   1.000000E+00
        S8 =   1.703000E+00
       SR6 =   1.261000E+00
    ALPHA6 =   1.400000E+01

   => Loading Basis Set <=

    Name: (CC-PVDZ AUX)
    Role: JKFIT
    Keyword: DF_BASIS_SCF
    atoms 1-2 entry O          line   220 file /shared/raimis/opt/miniconda/envs/htmd/share/psi4/basis/cc-pvdz-jkfit.gbs 
    atoms 3-4 entry H          line    50 file /shared/raimis/opt/miniconda/envs/htmd/share/psi4/basis/cc-pvdz-jkfit.gbs 

  ==> Pre-Iterations <==

   -------------------------------------------------------
    Irrep   Nso     Nmo     Nalpha   Nbeta   Ndocc  Nsocc
   -------------------------------------------------------
     A         38      38       0       0       0       0
   -------------------------------------------------------
    Total      38      38       9       9       9       0
   -------------------------------------------------------

  ==> Integral Setup <==

  ==> DFJK: Density-Fitted J/K Matrices <==

    J tasked:                  Yes
    K tasked:                  Yes
    wK tasked:                  No
    OpenMP threads:              1
    Integrals threads:           1
    Memory (MB):              3006
    Algorithm:                Core
    Integral Cache:           NONE
    Schwarz Cutoff:          1E-12
    Fitting Condition:       1E-12

   => Auxiliary Basis Set <=

  Basis Set: (CC-PVDZ AUX)
    Blend: CC-PVDZ-JKFIT
    Number of shells: 66
    Number of basis function: 186
    Number of Cartesian functions: 212
    Spherical Harmonics?: true
    Max angular momentum: 3

  Minimum eigenvalue in the overlap matrix is 2.4565740229E-02.
  Using Symmetric Orthogonalization.

  SCF Guess: Superposition of Atomic Densities via on-the-fly atomic UHF.

  ==> Iterations <==

                           Total Energy        Delta E     RMS |[F,P]|

   @DF-RKS iter   0:  -151.61194703757801   -1.51612e+02   4.64435e-02 
   @DF-RKS iter   1:  -151.51163000575195    1.00317e-01   8.18042e-03 
   @DF-RKS iter   2:  -151.51036277767074    1.26723e-03   8.65233e-03 DIIS
   @DF-RKS iter   3:  -151.54989036821857   -3.95276e-02   8.23345e-04 DIIS
   @DF-RKS iter   4:  -151.55013708781826   -2.46720e-04   4.29684e-04 DIIS
   @DF-RKS iter   5:  -151.55022292905332   -8.58412e-05   1.44691e-04 DIIS
   @DF-RKS iter   6:  -151.55023382828031   -1.08992e-05   6.53090e-06 DIIS
   @DF-RKS iter   7:  -151.55023385526860   -2.69883e-08   9.99541e-07 DIIS

  ==> Post-Iterations <==

    Orbital Energies (a.u.)
    -----------------------

    Doubly Occupied:                                                      

       1A    -19.186418     2A    -19.186377     3A     -1.110473  
       4A     -0.886371     5A     -0.501500     6A     -0.497977  
       7A     -0.403661     8A     -0.334932     9A     -0.252605  

    Virtual:                                                              

      10A      0.026006    11A      0.051548    12A      0.104526  
      13A      0.573016    14A      0.580661    15A      0.845203  
      16A      0.865930    17A      0.872082    18A      0.958898  
      19A      1.014278    20A      1.067221    21A      1.213353  
      22A      1.296533    23A      1.364985    24A      1.451665  
      25A      1.662301    26A      1.755341    27A      2.057069  
      28A      2.092378    29A      2.348286    30A      2.398902  
      31A      2.616211    32A      2.885413    33A      2.909155  
      34A      3.017219    35A      3.155532    36A      3.508239  
      37A      3.515305    38A      3.834712  

    Final Occupation by Irrep:
              A 
    DOCC [     9 ]

  Energy converged.

  @DF-RKS Final Energy:  -151.55023385526860

   => Energetics <=

    Nuclear Repulsion Energy =             36.7900721535251094
    One-Electron Energy =                -281.5751180733468004
    Two-Electron Energy =                 107.6980005458026142
    DFT Exchange-Correlation Energy =     -14.4628625912495057
    Empirical Dispersion Energy =          -0.0003258900000000
    PCM Polarization Energy =               0.0000000000000000
    EFP Energy =                            0.0000000000000000
    Total Energy =                       -151.5502338552686012



Properties will be evaluated at   0.000000,   0.000000,   0.000000 Bohr

Properties computed using the SCF density matrix

  Nuclear Dipole Moment: (a.u.)
     X:    59.0939      Y:    -2.8388      Z:     1.7798

  Electronic Dipole Moment: (a.u.)
     X:   -59.1070      Y:     2.4878      Z:    -1.4937

  Dipole Moment: (a.u.)
     X:    -0.0131      Y:    -0.3510      Z:     0.2861     Total:     0.4530

  Dipole Moment: (Debye)
     X:    -0.0332      Y:    -0.8921      Z:     0.7272     Total:     1.1514


*** tstop() called on computer06 at Tue Dec 12 12:40:27 2017
Module time:
	user time   =       4.03 seconds =       0.07 minutes
	system time =       0.05 seconds =       0.00 minutes
	total time  =          4 seconds =       0.07 minutes
Total time:
	user time   =       4.03 seconds =       0.07 minutes
	system time =       0.05 seconds =       0.00 minutes
	total time  =          4 seconds =       0.07 minutes


Properties will be evaluated at   0.000000,   0.000000,   0.000000 Bohr

Properties computed using the  density matrix

  Nuclear Dipole Moment: (a.u.)
     X:    59.0939      Y:    -2.8388      Z:     1.7798

  Electronic Dipole Moment: (a.u.)
     X:   -59.1070      Y:     2.4878      Z:    -1.4937

  Dipole Moment: (a.u.)
     X:    -0.0131      Y:    -0.3510      Z:     0.2861     Total:     0.4530

  Dipole Moment: (Debye)
     X:    -0.0332      Y:    -0.8921      Z:     0.7272     Total:     1.1514

  Quadrupole Moment: (Debye Ang)
    XX:   -10.9709     YY:   -10.6239     ZZ:    -9.9013
    XY:     0.4378     XZ:     3.7443     YZ:     1.3707

  Traceless Quadrupole Moment: (Debye Ang)
    XX:    -0.4722     YY:    -0.1252     ZZ:     0.5974
    XY:     0.4378     XZ:     3.7443     YZ:     1.3707

  Mulliken Charges: (a.u.)
   Center  Symbol    Alpha    Beta     Spin     Total
       1     O     4.09136  4.09136  0.00000 -0.18272
       2     O     4.09134  4.09134  0.00000 -0.18268
       3     H     0.40864  0.40864  0.00000  0.18272
       4     H     0.40866  0.40866  0.00000  0.18267

   Total alpha =  9.00000, Total beta =  9.00000, Total charge =  0.00000


*** Psi4 exiting successfully. Buy a developer a beer!
