    -----------------------------------------------------------------------
          Psi4: An Open-Source Ab Initio Electronic Structure Package
                              Psi4 (no tag) Driver

                          Git: Rev {detached?}  

    J. M. Turney, A. C. Simmonett, R. M. Parrish, E. G. Hohenstein,
    F. A. Evangelista, J. T. Fermann, B. J. Mintz, L. A. Burns, J. J. Wilke,
    M. L. Abrams, N. J. Russ, M. L. Leininger, C. L. Janssen, E. T. Seidl,
    W. D. Allen, H. F. Schaefer, R. A. King, E. F. Valeev, C. D. Sherrill,
    and T. D. Crawford, WIREs Comput. Mol. Sci. 2, 556-565 (2012)
    (doi: 10.1002/wcms.93)

                         Additional Contributions by
    A. E. DePrince, M. Saitow, U. Bozkaya, A. Yu. Sokolov
    -----------------------------------------------------------------------


    Psi4 started on: Tue Jul  5 16:41:22 2016

    Process ID:   3224
    PSI4DATADIR: /export131/home/mjharvey/miniconda3/share
    Memory level set to 256.000 MB

  ==> Input File <==

--------------------------------------------------------------------------
set {
	reference rhf
	basis 6-31G*
}


set_num_threads( 1 )
memory 2 gb

molecule MOL {
0 1

H	 3.083879	 -1.346558	 0.395444
O	 2.172668	 -1.603300	 0.415122
C	 1.365383	 -0.540424	 0.207814
C	 0.569364	 -0.003558	 1.211523
C	 1.349306	 0.015265	 -1.059617
H	 0.583360	 -0.437512	 2.197182
C	 -0.241436	 1.087568	 0.947480
H	 1.963678	 -0.398448	 -1.835802
C	 0.534747	 1.107522	 -1.315598
H	 -0.853046	 1.494313	 1.732254
C	 -0.263782	 1.649281	 -0.316288
C	 0.512657	 1.709411	 -2.675050
H	 -0.892816	 2.496835	 -0.523591
O	 1.274009	 1.434799	 -3.546530
H	 -0.275544	 2.450620	 -2.838138

	symmetry c1
}
set optking {
	frozen_dihedral = ("
		11 9 12 14
	")
}

ee = energy('scf')
oeprop('DIPOLE', 'QUADRUPOLE', 'MULLIKEN_CHARGES')
f=open( 'psi4out.xyz', 'w' )
f.write( "15  " )
f.write( str(ee) + "\n" )
f.write( MOL.save_string_xyz() )
f.close()
--------------------------------------------------------------------------

  Memory set to   2.000 GiB by Python script.

*** tstart() called on cx1-3-16-3.cx1.hpc.ic.ac.uk
*** at Tue Jul  5 16:41:22 2016


         ---------------------------------------------------------
                                   SCF
            by Justin Turney, Rob Parrish, and Andy Simmonett
                              RHF Reference
                        1 Threads,   2000 MiB Core
         ---------------------------------------------------------

  ==> Geometry <==

    Molecular point group: c1
    Full point group: C1

    Geometry (in Angstrom), charge = 0, multiplicity = 1:

       Center              X                  Y                   Z               Mass       
    ------------   -----------------  -----------------  -----------------  -----------------
           H          2.226089009448    -1.853767383498     1.108039952844     1.007825032070
           O          1.314878009448    -2.110509383498     1.127717952844    15.994914619560
           C          0.507593009448    -1.047633383498     0.920409952844    12.000000000000
           C         -0.288425990552    -0.510767383498     1.924118952844    12.000000000000
           C          0.491516009448    -0.491944383498    -0.347021047156    12.000000000000
           H         -0.274429990552    -0.944721383498     2.909777952844     1.007825032070
           C         -1.099225990552     0.580358616502     1.660075952844    12.000000000000
           H          1.105888009448    -0.905657383498    -1.123206047156     1.007825032070
           C         -0.323042990552     0.600312616502    -0.603002047156    12.000000000000
           H         -1.710835990552     0.987103616502     2.444849952844     1.007825032070
           C         -1.121571990552     1.142071616502     0.396307952844    12.000000000000
           C         -0.345132990552     1.202201616502    -1.962454047156    12.000000000000
           H         -1.750605990552     1.989625616502     0.189004952844     1.007825032070
           O          0.416219009448     0.927589616502    -2.833934047156    15.994914619560
           H         -1.133333990552     1.943410616502    -2.125542047156     1.007825032070

  Running in c1 symmetry.

  Rotational constants: A =      0.09795  B =      0.04394  C =      0.03043 [cm^-1]
  Rotational constants: A =   2936.38108  B =   1317.19465  C =    912.23841 [MHz]
  Nuclear repulsion =  403.265551777428641

  Charge       = 0
  Multiplicity = 1
  Electrons    = 64
  Nalpha       = 32
  Nbeta        = 32

  ==> Algorithm <==

  SCF Algorithm Type is DF.
  DIIS enabled.
  MOM disabled.
  Fractional occupation disabled.
  Guess Type is CORE.
  Energy threshold   = 1.00e-06
  Density threshold  = 1.00e-06
  Integral threshold = 0.00e+00

  ==> Primary Basis <==

  Basis Set: 6-31G*
    Number of shells: 66
    Number of basis function: 147
    Number of Cartesian functions: 147
    Spherical Harmonics?: false
    Max angular momentum: 2

  ==> Pre-Iterations <==

   -------------------------------------------------------
    Irrep   Nso     Nmo     Nalpha   Nbeta   Ndocc  Nsocc
   -------------------------------------------------------
     A        147     147       0       0       0       0
   -------------------------------------------------------
    Total     147     147      32      32      32       0
   -------------------------------------------------------

 OEINTS: Overlap, kinetic, potential, dipole, and quadrupole integrals
         stored in file 35.

  ==> Integral Setup <==

  ==> DFJK: Density-Fitted J/K Matrices <==

    J tasked:                  Yes
    K tasked:                  Yes
    wK tasked:                  No
    OpenMP threads:              1
    Integrals threads:           1
    Memory (MB):              1430
    Algorithm:                Core
    Integral Cache:           NONE
    Schwarz Cutoff:          1E-12
    Fitting Condition:       1E-12

   => Auxiliary Basis Set <=

  Basis Set: 
    Number of shells: 270
    Number of basis function: 879
    Number of Cartesian functions: 879
    Spherical Harmonics?: false
    Max angular momentum: 3

  Minimum eigenvalue in the overlap matrix is 4.1459662342E-04.
  Using Symmetric Orthogonalization.
  SCF Guess: Core (One-Electron) Hamiltonian.

  ==> Iterations <==

                           Total Energy        Delta E     RMS |[F,P]|

   @DF-RHF iter   1:  -346.28198761089925   -3.46282e+02   6.09033e-02 
   @DF-RHF iter   2:  -329.37627786441578    1.69057e+01   5.04125e-02 DIIS
   @DF-RHF iter   3:  -319.63885066816431    9.73743e+00   5.99379e-02 DIIS
   @DF-RHF iter   4:  -412.49211197282261   -9.28533e+01   2.00767e-02 DIIS
   @DF-RHF iter   5:  -413.10187118236365   -6.09759e-01   1.80852e-02 DIIS
   @DF-RHF iter   6:  -418.13865759782345   -5.03679e+00   3.40012e-03 DIIS
   @DF-RHF iter   7:  -418.24721930134524   -1.08562e-01   1.77376e-03 DIIS
   @DF-RHF iter   8:  -418.27833012355620   -3.11108e-02   4.05162e-04 DIIS
   @DF-RHF iter   9:  -418.28134875050318   -3.01863e-03   1.40148e-04 DIIS
   @DF-RHF iter  10:  -418.28169620725771   -3.47457e-04   7.28576e-05 DIIS
   @DF-RHF iter  11:  -418.28178134688471   -8.51396e-05   3.27225e-05 DIIS
   @DF-RHF iter  12:  -418.28180952042612   -2.81735e-05   9.88333e-06 DIIS
   @DF-RHF iter  13:  -418.28181326535616   -3.74493e-06   3.79732e-06 DIIS
   @DF-RHF iter  14:  -418.28181395888032   -6.93524e-07   1.83149e-06 DIIS
   @DF-RHF iter  15:  -418.28181420730391   -2.48424e-07   6.10302e-07 DIIS

  ==> Post-Iterations <==

    Orbital Energies (a.u.)
    -----------------------

    Doubly Occupied:                                                      

       1A    -20.588503     2A    -20.565588     3A    -11.333805  
       4A    -11.304437     5A    -11.252076     6A    -11.250912  
       7A    -11.250209     8A    -11.248456     9A    -11.242815  
      10A     -1.412207    11A     -1.406499    12A     -1.169506  
      13A     -1.048518    14A     -1.025190    15A     -0.897139  
      16A     -0.848823    17A     -0.799531    18A     -0.747247  
      19A     -0.699539    20A     -0.676859    21A     -0.655736  
      22A     -0.633440    23A     -0.619392    24A     -0.607122  
      25A     -0.556546    26A     -0.546397    27A     -0.531161  
      28A     -0.499532    29A     -0.486304    30A     -0.423314  
      31A     -0.352112    32A     -0.338544  

    Virtual:                                                              

      33A      0.083731    34A      0.135311    35A      0.217642  
      36A      0.228433    37A      0.237909    38A      0.269419  
      39A      0.305943    40A      0.309635    41A      0.332936  
      42A      0.374706    43A      0.407712    44A      0.449879  
      45A      0.452537    46A      0.482003    47A      0.501193  
      48A      0.580081    49A      0.600080    50A      0.674174  
      51A      0.718874    52A      0.725587    53A      0.729764  
      54A      0.758757    55A      0.766982    56A      0.802327  
      57A      0.815209    58A      0.820414    59A      0.848439  
      60A      0.855009    61A      0.861967    62A      0.891400  
      63A      0.898770    64A      0.942141    65A      0.994665  
      66A      1.004547    67A      1.024906    68A      1.056807  
      69A      1.078970    70A      1.086365    71A      1.090397  
      72A      1.121522    73A      1.129763    74A      1.152933  
      75A      1.184674    76A      1.187923    77A      1.204250  
      78A      1.232519    79A      1.272548    80A      1.295572  
      81A      1.301870    82A      1.345120    83A      1.376442  
      84A      1.404456    85A      1.416870    86A      1.432487  
      87A      1.485226    88A      1.510874    89A      1.531473  
      90A      1.603061    91A      1.637291    92A      1.710325  
      93A      1.718759    94A      1.733679    95A      1.747193  
      96A      1.768936    97A      1.821080    98A      1.835653  
      99A      1.897727   100A      2.034849   101A      2.037572  
     102A      2.048777   103A      2.076250   104A      2.092192  
     105A      2.139207   106A      2.188719   107A      2.233112  
     108A      2.248539   109A      2.273948   110A      2.295806  
     111A      2.304998   112A      2.355626   113A      2.387955  
     114A      2.429720   115A      2.459666   116A      2.485404  
     117A      2.588122   118A      2.606658   119A      2.626619  
     120A      2.635009   121A      2.670224   122A      2.734774  
     123A      2.760887   124A      2.873936   125A      2.886861  
     126A      2.905410   127A      2.961725   128A      3.004132  
     129A      3.033651   130A      3.058064   131A      3.113063  
     132A      3.159022   133A      3.219476   134A      3.321601  
     135A      3.342974   136A      3.424206   137A      3.555912  
     138A      3.833937   139A      4.320862   140A      4.326599  
     141A      4.512158   142A      4.532161   143A      4.608442  
     144A      4.639112   145A      4.778150   146A      4.875107  
     147A      5.185223  

    Final Occupation by Irrep:
              A 
    DOCC [    32 ]

  Energy converged.

  @DF-RHF Final Energy:  -418.28181420730391

   => Energetics <=

    Nuclear Repulsion Energy =            403.2655517774286409
    One-Electron Energy =               -1369.0597748569284704
    Two-Electron Energy =                 547.5124088721939870
    DFT Exchange-Correlation Energy =       0.0000000000000000
    Empirical Dispersion Energy =           0.0000000000000000
    PCM Polarization Energy =               0.0000000000000000
    EFP Energy =                            0.0000000000000000
    Total Energy =                       -418.2818142073058425

    Alert: EFP and PCM quantities not currently incorporated into SCF psivars.

Properties will be evaluated at   0.000000,   0.000000,   0.000000 Bohr
  ==> Properties <==


Properties computed using the SCF density matrix

  Nuclear Dipole Moment: (a.u.)
     X:    -1.4328      Y:     1.1343      Z:     3.1819

  Electronic Dipole Moment: (a.u.)
     X:     1.2227      Y:    -0.6203      Z:    -2.0418

  Dipole Moment: (a.u.)
     X:    -0.2100      Y:     0.5140      Z:     1.1401     Total:     1.2682

  Dipole Moment: (Debye)
     X:    -0.5339      Y:     1.3065      Z:     2.8979     Total:     3.2233


  Saving occupied orbitals to File 180.

*** tstop() called on cx1-3-16-3.cx1.hpc.ic.ac.uk at Tue Jul  5 16:41:35 2016
Module time:
	user time   =      12.99 seconds =       0.22 minutes
	system time =       0.07 seconds =       0.00 minutes
	total time  =         13 seconds =       0.22 minutes
Total time:
	user time   =      12.99 seconds =       0.22 minutes
	system time =       0.07 seconds =       0.00 minutes
	total time  =         13 seconds =       0.22 minutes


Properties will be evaluated at   0.000000,   0.000000,   0.000000 Bohr

Properties computed using the  density matrix

  Nuclear Dipole Moment: (a.u.)
     X:    -1.4328      Y:     1.1343      Z:     3.1819

  Electronic Dipole Moment: (a.u.)
     X:     1.2227      Y:    -0.6203      Z:    -2.0418

  Dipole Moment: (a.u.)
     X:    -0.2100      Y:     0.5140      Z:     1.1401     Total:     1.2682

  Dipole Moment: (Debye)
     X:    -0.5339      Y:     1.3065      Z:     2.8979     Total:     3.2233

  Quadrupole Moment: (Debye Ang)
    XX:   -44.9762     YY:   -53.4958     ZZ:   -57.4369
    XY:    -5.7672     XZ:     3.1717     YZ:     2.2677

  Traceless Quadrupole Moment: (Debye Ang)
    XX:     6.9934     YY:    -1.5262     ZZ:    -5.4672
    XY:    -5.7672     XZ:     3.1717     YZ:     2.2677

  Mulliken Charges: (a.u.)
   Center  Symbol    Alpha    Beta     Spin     Total
       1     H     0.26793  0.26793  0.00000  0.46415
       2     O     4.38477  4.38477  0.00000 -0.76954
       3     C     2.81294  2.81294  0.00000  0.37412
       4     C     3.11019  3.11019  0.00000 -0.22038
       5     C     3.11576  3.11576  0.00000 -0.23151
       6     H     0.38790  0.38790  0.00000  0.22420
       7     C     3.10083  3.10083  0.00000 -0.20165
       8     H     0.37538  0.37538  0.00000  0.24924
       9     C     3.04970  3.04970  0.00000 -0.09940
      10     H     0.39278  0.39278  0.00000  0.21444
      11     C     3.10845  3.10845  0.00000 -0.21690
      12     C     2.83298  2.83298  0.00000  0.33404
      13     H     0.39198  0.39198  0.00000  0.21603
      14     O     4.24630  4.24630  0.00000 -0.49260
      15     H     0.42211  0.42211  0.00000  0.15577

   Total alpha = 32.00000, Total beta = 32.00000, Total charge =  0.00000


*** PSI4 exiting successfully. Buy a developer a beer!
