    -----------------------------------------------------------------------
          Psi4: An Open-Source Ab Initio Electronic Structure Package
                              Psi4 (no tag) Driver

                          Git: Rev {detached?}  

    J. M. Turney, A. C. Simmonett, R. M. Parrish, E. G. Hohenstein,
    F. A. Evangelista, J. T. Fermann, B. J. Mintz, L. A. Burns, J. J. Wilke,
    M. L. Abrams, N. J. Russ, M. L. Leininger, C. L. Janssen, E. T. Seidl,
    W. D. Allen, H. F. Schaefer, R. A. King, E. F. Valeev, C. D. Sherrill,
    and T. D. Crawford, WIREs Comput. Mol. Sci. 2, 556-565 (2012)
    (doi: 10.1002/wcms.93)

                         Additional Contributions by
    A. E. DePrince, M. Saitow, U. Bozkaya, A. Yu. Sokolov
    -----------------------------------------------------------------------


    Psi4 started on: Tue Jul  5 16:44:03 2016

    Process ID:   7301
    PSI4DATADIR: /export131/home/mjharvey/miniconda3/share
    Memory level set to 256.000 MB

  ==> Input File <==

--------------------------------------------------------------------------
set {
	reference rhf
	basis 6-31G*
}


set_num_threads( 1 )
memory 2 gb

molecule MOL {
0 1

H	 -3.161837	 0.500524	 -0.000234
C	 -2.367097	 -0.232926	 -0.000000
O	 -1.158440	 0.455814	 -0.000122
H	 -2.468853	 -0.861886	 -0.882833
H	 -2.468942	 -0.861421	 0.883154
C	 -1.058687	 1.440634	 0.983775
C	 -1.660774	 0.908666	 2.272636
H	 -1.581961	 2.343373	 0.665738
H	 -0.013638	 1.712622	 1.138063
C	 -3.186022	 0.834332	 2.218097
H	 -1.244196	 -0.074891	 2.466904
H	 -1.345359	 1.549569	 3.090227
H	 -3.522665	 0.177609	 1.420721
H	 -3.588632	 0.452177	 3.150143
H	 -3.624620	 1.813625	 2.047742

	symmetry c1
}
set optking {
	frozen_dihedral = ("
		6 3 2 4,
		11 7 6 8
	")
}

ee = energy('scf')
oeprop('DIPOLE', 'QUADRUPOLE', 'MULLIKEN_CHARGES')
f=open( 'psi4out.xyz', 'w' )
f.write( "15  " )
f.write( str(ee) + "\n" )
f.write( MOL.save_string_xyz() )
f.close()
--------------------------------------------------------------------------

  Memory set to   2.000 GiB by Python script.

*** tstart() called on cx1-3-16-3.cx1.hpc.ic.ac.uk
*** at Tue Jul  5 16:44:03 2016


         ---------------------------------------------------------
                                   SCF
            by Justin Turney, Rob Parrish, and Andy Simmonett
                              RHF Reference
                        1 Threads,   2000 MiB Core
         ---------------------------------------------------------

  ==> Geometry <==

    Molecular point group: c1
    Full point group: C1

    Geometry (in Angstrom), charge = 0, multiplicity = 1:

       Center              X                  Y                   Z               Mass       
    ------------   -----------------  -----------------  -----------------  -----------------
           H         -1.258300817297    -0.167778862436    -1.077292887638     1.007825032070
           C         -0.463560817297    -0.901228862436    -1.077058887638    12.000000000000
           O          0.745096182703    -0.212488862436    -1.077180887638    15.994914619560
           H         -0.565316817297    -1.530188862436    -1.959891887638     1.007825032070
           H         -0.565405817297    -1.529723862436    -0.193904887638     1.007825032070
           C          0.844849182703     0.772331137564    -0.093283887638    12.000000000000
           C          0.242762182703     0.240363137564     1.195577112362    12.000000000000
           H          0.321575182703     1.675070137564    -0.411320887638     1.007825032070
           H          1.889898182703     1.044319137564     0.061004112362     1.007825032070
           C         -1.282485817297     0.166029137564     1.141038112362    12.000000000000
           H          0.659340182703    -0.743193862436     1.389845112362     1.007825032070
           H          0.558177182703     0.881266137564     2.013168112362     1.007825032070
           H         -1.619128817297    -0.490693862436     0.343662112362     1.007825032070
           H         -1.685095817297    -0.216125862436     2.073084112362     1.007825032070
           H         -1.721083817297     1.145322137564     0.970683112362     1.007825032070

  Running in c1 symmetry.

  Rotational constants: A =      0.24476  B =      0.15290  C =      0.10749 [cm^-1]
  Rotational constants: A =   7337.80203  B =   4583.93002  C =   3222.58316 [MHz]
  Nuclear repulsion =  202.978440874153932

  Charge       = 0
  Multiplicity = 1
  Electrons    = 42
  Nalpha       = 21
  Nbeta        = 21

  ==> Algorithm <==

  SCF Algorithm Type is DF.
  DIIS enabled.
  MOM disabled.
  Fractional occupation disabled.
  Guess Type is CORE.
  Energy threshold   = 1.00e-06
  Density threshold  = 1.00e-06
  Integral threshold = 0.00e+00

  ==> Primary Basis <==

  Basis Set: 6-31G*
    Number of shells: 50
    Number of basis function: 95
    Number of Cartesian functions: 95
    Spherical Harmonics?: false
    Max angular momentum: 2

  ==> Pre-Iterations <==

   -------------------------------------------------------
    Irrep   Nso     Nmo     Nalpha   Nbeta   Ndocc  Nsocc
   -------------------------------------------------------
     A         95      95       0       0       0       0
   -------------------------------------------------------
    Total      95      95      21      21      21       0
   -------------------------------------------------------

 OEINTS: Overlap, kinetic, potential, dipole, and quadrupole integrals
         stored in file 35.

  ==> Integral Setup <==

  ==> DFJK: Density-Fitted J/K Matrices <==

    J tasked:                  Yes
    K tasked:                  Yes
    wK tasked:                  No
    OpenMP threads:              1
    Integrals threads:           1
    Memory (MB):              1430
    Algorithm:                Core
    Integral Cache:           NONE
    Schwarz Cutoff:          1E-12
    Fitting Condition:       1E-12

   => Auxiliary Basis Set <=

  Basis Set: 
    Number of shells: 210
    Number of basis function: 655
    Number of Cartesian functions: 655
    Spherical Harmonics?: false
    Max angular momentum: 3

  Minimum eigenvalue in the overlap matrix is 4.8366990697E-03.
  Using Symmetric Orthogonalization.
  SCF Guess: Core (One-Electron) Hamiltonian.

  ==> Iterations <==

                           Total Energy        Delta E     RMS |[F,P]|

   @DF-RHF iter   1:  -183.72590831507944   -1.83726e+02   8.02002e-02 
   @DF-RHF iter   2:  -154.64555988142200    2.90803e+01   7.03941e-02 DIIS
   @DF-RHF iter   3:  -205.13514343945667   -5.04896e+01   5.14164e-02 DIIS
   @DF-RHF iter   4:  -229.86660550885199   -2.47315e+01   2.30009e-02 DIIS
   @DF-RHF iter   5:  -232.01242826021257   -2.14582e+00   3.99931e-03 DIIS
   @DF-RHF iter   6:  -232.07214190219634   -5.97136e-02   1.55480e-03 DIIS
   @DF-RHF iter   7:  -232.08125026734950   -9.10837e-03   3.73924e-04 DIIS
   @DF-RHF iter   8:  -232.08205825239969   -8.07985e-04   8.68326e-05 DIIS
   @DF-RHF iter   9:  -232.08210946116139   -5.12088e-05   2.70074e-05 DIIS
   @DF-RHF iter  10:  -232.08211524028627   -5.77912e-06   7.21931e-06 DIIS
   @DF-RHF iter  11:  -232.08211572551335   -4.85227e-07   1.96134e-06 DIIS
   @DF-RHF iter  12:  -232.08211575909650   -3.35831e-08   5.32871e-07 DIIS

  ==> Post-Iterations <==

    Orbital Energies (a.u.)
    -----------------------

    Doubly Occupied:                                                      

       1A    -20.550884     2A    -11.268275     3A    -11.260886  
       4A    -11.218710     5A    -11.202873     6A     -1.380665  
       7A     -1.055855     8A     -0.985158     9A     -0.872389  
      10A     -0.813298    11A     -0.694869    12A     -0.668934  
      13A     -0.625833    14A     -0.574588    15A     -0.573294  
      16A     -0.551189    17A     -0.543393    18A     -0.491351  
      19A     -0.480195    20A     -0.427850    21A     -0.406672  

    Virtual:                                                              

      22A      0.235243    23A      0.264544    24A      0.285487  
      25A      0.293283    26A      0.301154    27A      0.311512  
      28A      0.316556    29A      0.339000    30A      0.354878  
      31A      0.364718    32A      0.395654    33A      0.404219  
      34A      0.457811    35A      0.488023    36A      0.715545  
      37A      0.746715    38A      0.767416    39A      0.795270  
      40A      0.808267    41A      0.820593    42A      0.863202  
      43A      0.900472    44A      0.925330    45A      0.965986  
      46A      1.051922    47A      1.069700    48A      1.113128  
      49A      1.127585    50A      1.141887    51A      1.158084  
      52A      1.182294    53A      1.204807    54A      1.209946  
      55A      1.227741    56A      1.237051    57A      1.248249  
      58A      1.275475    59A      1.354666    60A      1.414497  
      61A      1.502032    62A      1.582370    63A      1.657989  
      64A      1.686777    65A      1.734689    66A      1.847152  
      67A      1.939625    68A      1.951906    69A      2.007979  
      70A      2.058522    71A      2.194797    72A      2.238584  
      73A      2.289955    74A      2.327079    75A      2.368247  
      76A      2.457227    77A      2.481719    78A      2.517243  
      79A      2.564779    80A      2.592872    81A      2.691141  
      82A      2.718656    83A      2.720231    84A      2.750527  
      85A      2.856877    86A      2.916384    87A      2.986314  
      88A      3.045655    89A      3.157459    90A      3.318022  
      91A      4.425031    92A      4.627935    93A      4.694456  
      94A      4.816371    95A      4.925917  

    Final Occupation by Irrep:
              A 
    DOCC [    21 ]

  Energy converged.

  @DF-RHF Final Energy:  -232.08211575909650

   => Energetics <=

    Nuclear Repulsion Energy =            202.9784408741539323
    One-Electron Energy =                -716.8269229157051541
    Two-Electron Energy =                 281.7663662824556354
    DFT Exchange-Correlation Energy =       0.0000000000000000
    Empirical Dispersion Energy =           0.0000000000000000
    PCM Polarization Energy =               0.0000000000000000
    EFP Energy =                            0.0000000000000000
    Total Energy =                       -232.0821157590956432

    Alert: EFP and PCM quantities not currently incorporated into SCF psivars.

Properties will be evaluated at   0.000000,   0.000000,   0.000000 Bohr
  ==> Properties <==


Properties computed using the SCF density matrix

  Nuclear Dipole Moment: (a.u.)
     X:    -3.7326      Y:     0.0630      Z:     3.0032

  Electronic Dipole Moment: (a.u.)
     X:     3.3204      Y:     0.0081      Z:    -2.5999

  Dipole Moment: (a.u.)
     X:    -0.4122      Y:     0.0711      Z:     0.4033     Total:     0.5810

  Dipole Moment: (Debye)
     X:    -1.0477      Y:     0.1807      Z:     1.0250     Total:     1.4768


  Saving occupied orbitals to File 180.

*** tstop() called on cx1-3-16-3.cx1.hpc.ic.ac.uk at Tue Jul  5 16:44:09 2016
Module time:
	user time   =       4.71 seconds =       0.08 minutes
	system time =       0.04 seconds =       0.00 minutes
	total time  =          6 seconds =       0.10 minutes
Total time:
	user time   =       4.71 seconds =       0.08 minutes
	system time =       0.04 seconds =       0.00 minutes
	total time  =          6 seconds =       0.10 minutes


Properties will be evaluated at   0.000000,   0.000000,   0.000000 Bohr

Properties computed using the  density matrix

  Nuclear Dipole Moment: (a.u.)
     X:    -3.7326      Y:     0.0630      Z:     3.0032

  Electronic Dipole Moment: (a.u.)
     X:     3.3204      Y:     0.0081      Z:    -2.5999

  Dipole Moment: (a.u.)
     X:    -0.4122      Y:     0.0711      Z:     0.4033     Total:     0.5810

  Dipole Moment: (Debye)
     X:    -1.0477      Y:     0.1807      Z:     1.0250     Total:     1.4768

  Quadrupole Moment: (Debye Ang)
    XX:   -34.0674     YY:   -31.8280     ZZ:   -35.3119
    XY:     1.7982     XZ:     3.0574     YZ:     0.4167

  Traceless Quadrupole Moment: (Debye Ang)
    XX:    -0.3316     YY:     1.9078     ZZ:    -1.5762
    XY:     1.7982     XZ:     3.0574     YZ:     0.4167

  Mulliken Charges: (a.u.)
   Center  Symbol    Alpha    Beta     Spin     Total
       1     H     0.41882  0.41882  0.00000  0.16236
       2     C     3.09633  3.09633  0.00000 -0.19266
       3     O     4.30440  4.30440  0.00000 -0.60880
       4     H     0.41340  0.41340  0.00000  0.17321
       5     H     0.42005  0.42005  0.00000  0.15990
       6     C     2.98759  2.98759  0.00000  0.02482
       7     C     3.18372  3.18372  0.00000 -0.36744
       8     H     0.43017  0.43017  0.00000  0.13965
       9     H     0.41446  0.41446  0.00000  0.17108
      10     C     3.25110  3.25110  0.00000 -0.50219
      11     H     0.41137  0.41137  0.00000  0.17726
      12     H     0.41540  0.41540  0.00000  0.16919
      13     H     0.41254  0.41254  0.00000  0.17492
      14     H     0.41963  0.41963  0.00000  0.16075
      15     H     0.42102  0.42102  0.00000  0.15795

   Total alpha = 21.00000, Total beta = 21.00000, Total charge = -0.00000


*** PSI4 exiting successfully. Buy a developer a beer!
