    -----------------------------------------------------------------------
          Psi4: An Open-Source Ab Initio Electronic Structure Package
                              Psi4 (no tag) Driver

                          Git: Rev {detached?}  

    J. M. Turney, A. C. Simmonett, R. M. Parrish, E. G. Hohenstein,
    F. A. Evangelista, J. T. Fermann, B. J. Mintz, L. A. Burns, J. J. Wilke,
    M. L. Abrams, N. J. Russ, M. L. Leininger, C. L. Janssen, E. T. Seidl,
    W. D. Allen, H. F. Schaefer, R. A. King, E. F. Valeev, C. D. Sherrill,
    and T. D. Crawford, WIREs Comput. Mol. Sci. 2, 556-565 (2012)
    (doi: 10.1002/wcms.93)

                         Additional Contributions by
    A. E. DePrince, M. Saitow, U. Bozkaya, A. Yu. Sokolov
    -----------------------------------------------------------------------


    Psi4 started on: Tue Jul  5 18:46:11 2016

    Process ID:  10856
    PSI4DATADIR: /export131/home/mjharvey/miniconda3/share
    Memory level set to 256.000 MB

  ==> Input File <==

--------------------------------------------------------------------------
set {
	reference rhf
	basis 6-31G*
}


set_num_threads( 1 )
memory 2 gb

molecule MOL {
0 1

O	 1.040435	 0.619377	 2.656613
C	 1.445075	 -0.139943	 1.836395
C	 1.245376	 -0.013843	 0.345420
O	 2.144414	 -1.227412	 2.136340
C	 0.455112	 1.231400	 -0.050772
H	 2.229834	 -0.032969	 -0.110285
H	 0.744890	 -0.918258	 0.008900
C	 -0.998893	 1.219485	 0.433193
H	 0.482531	 1.345121	 -1.130325
H	 0.957290	 2.103070	 0.354729
C	 -1.883438	 0.145884	 -0.207175
H	 -1.431207	 2.195402	 0.224832
H	 -1.019646	 1.105716	 1.516076
C	 -1.236535	 -1.240640	 -0.198954
H	 -2.833649	 0.102377	 0.322943
H	 -2.118527	 0.417480	 -1.233792
C	 -0.020065	 -1.347398	 -1.120331
H	 -1.975420	 -1.984108	 -0.493128
H	 -0.939381	 -1.493338	 0.817680
C	 0.966107	 -0.193248	 -0.943964
H	 0.490757	 -2.289749	 -0.934115
H	 -0.353923	 -1.381133	 -2.155309
H	 1.816977	 -0.297053	 -1.610185
H	 1.345510	 -0.153780	 0.073234
H	 0.494066	 0.761820	 -1.156791
C	 2.402828	 -1.467185	 3.507696
H	 2.970993	 -0.653652	 3.935314
H	 2.973586	 -2.381983	 3.544950
H	 1.477895	 -1.580385	 4.054707

	symmetry c1
}
set optking {
	frozen_dihedral = ("
		21 17 14 11,
		17 14 11 15,
		15 11 8 5,
		11 8 5 9,
		2 4 26 27,
		1 2 4 26,
		6 3 2 1
	")
}

ee = energy('scf')
oeprop('DIPOLE', 'QUADRUPOLE', 'MULLIKEN_CHARGES')
f=open( 'psi4out.xyz', 'w' )
f.write( "29  " )
f.write( str(ee) + "\n" )
f.write( MOL.save_string_xyz() )
f.close()
--------------------------------------------------------------------------

  Memory set to   2.000 GiB by Python script.

*** tstart() called on cx1-3-14-1.cx1.hpc.ic.ac.uk
*** at Tue Jul  5 18:46:12 2016


         ---------------------------------------------------------
                                   SCF
            by Justin Turney, Rob Parrish, and Andy Simmonett
                              RHF Reference
                        1 Threads,   2000 MiB Core
         ---------------------------------------------------------

  ==> Geometry <==

    Molecular point group: c1
    Full point group: C1

    Geometry (in Angstrom), charge = 0, multiplicity = 1:

       Center              X                  Y                   Z               Mass       
    ------------   -----------------  -----------------  -----------------  -----------------
           O          0.504154886570     0.850622010741     1.860071900708    15.994914619560
           C          0.908794886570     0.091302010741     1.039853900708    12.000000000000
           C          0.709095886570     0.217402010741    -0.451121099292    12.000000000000
           O          1.608133886570    -0.996166989259     1.339798900708    15.994914619560
           C         -0.081168113430     1.462645010741    -0.847313099292    12.000000000000
           H          1.693553886570     0.198276010741    -0.906826099292     1.007825032070
           H          0.208609886570    -0.687012989259    -0.787641099292     1.007825032070
           C         -1.535173113430     1.450730010741    -0.363348099292    12.000000000000
           H         -0.053749113430     1.576366010741    -1.926866099292     1.007825032070
           H          0.421009886570     2.334315010741    -0.441812099292     1.007825032070
           C         -2.419718113430     0.377129010741    -1.003716099292    12.000000000000
           H         -1.967487113430     2.426647010741    -0.571709099292     1.007825032070
           H         -1.555926113430     1.336961010741     0.719534900708     1.007825032070
           C         -1.772815113430    -1.009394989259    -0.995495099292    12.000000000000
           H         -3.369929113430     0.333622010741    -0.473598099292     1.007825032070
           H         -2.654807113430     0.648725010741    -2.030333099292     1.007825032070
           C         -0.556345113430    -1.116152989259    -1.916872099292    12.000000000000
           H         -2.511700113430    -1.752862989259    -1.289669099292     1.007825032070
           H         -1.475661113430    -1.262092989259     0.021138900708     1.007825032070
           C          0.429826886570     0.037997010741    -1.740505099292    12.000000000000
           H         -0.045523113430    -2.058503989259    -1.730656099292     1.007825032070
           H         -0.890203113430    -1.149887989259    -2.951850099292     1.007825032070
           H          1.280696886570    -0.065807989259    -2.406726099292     1.007825032070
           H          0.809229886570     0.077465010741    -0.723307099292     1.007825032070
           H         -0.042214113430     0.993065010741    -1.953332099292     1.007825032070
           C          1.866547886570    -1.235939989259     2.711154900708    12.000000000000
           H          2.434712886570    -0.422406989259     3.138772900708     1.007825032070
           H          2.437305886570    -2.150737989259     2.748408900708     1.007825032070
           H          0.941614886570    -1.349139989259     3.258165900708     1.007825032070

  Running in c1 symmetry.

  Rotational constants: A =      0.06161  B =      0.02556  C =      0.02359 [cm^-1]
  Rotational constants: A =   1847.07448  B =    766.36360  C =    707.14141 [MHz]
  Nuclear repulsion =  742.562157827306919

  Charge       = 0
  Multiplicity = 1
  Electrons    = 88
  Nalpha       = 44
  Nbeta        = 44

  ==> Algorithm <==

  SCF Algorithm Type is DF.
  DIIS enabled.
  MOM disabled.
  Fractional occupation disabled.
  Guess Type is CORE.
  Energy threshold   = 1.00e-06
  Density threshold  = 1.00e-06
  Integral threshold = 0.00e+00

  ==> Primary Basis <==

  Basis Set: 6-31G*
    Number of shells: 102
    Number of basis function: 201
    Number of Cartesian functions: 201
    Spherical Harmonics?: false
    Max angular momentum: 2

  ==> Pre-Iterations <==

   -------------------------------------------------------
    Irrep   Nso     Nmo     Nalpha   Nbeta   Ndocc  Nsocc
   -------------------------------------------------------
     A        201     201       0       0       0       0
   -------------------------------------------------------
    Total     201     201      44      44      44       0
   -------------------------------------------------------

 OEINTS: Overlap, kinetic, potential, dipole, and quadrupole integrals
         stored in file 35.

  ==> Integral Setup <==

  ==> DFJK: Density-Fitted J/K Matrices <==

    J tasked:                  Yes
    K tasked:                  Yes
    wK tasked:                  No
    OpenMP threads:              1
    Integrals threads:           1
    Memory (MB):              1430
    Algorithm:                Core
    Integral Cache:           NONE
    Schwarz Cutoff:          1E-12
    Fitting Condition:       1E-12

   => Auxiliary Basis Set <=

  Basis Set: 
    Number of shells: 426
    Number of basis function: 1341
    Number of Cartesian functions: 1341
    Spherical Harmonics?: false
    Max angular momentum: 3

  Minimum eigenvalue in the overlap matrix is 3.5180851321E-05.
  Using Symmetric Orthogonalization.
  SCF Guess: Core (One-Electron) Hamiltonian.

  ==> Iterations <==

                           Total Energy        Delta E     RMS |[F,P]|

   @DF-RHF iter   1:  -325.23251337085685   -3.25233e+02   6.70029e-02 
   @DF-RHF iter   2:  -220.18058653431979    1.05052e+02   5.67175e-02 DIIS
   @DF-RHF iter   3:  -399.90848852662134   -1.79728e+02   4.70123e-02 DIIS
   @DF-RHF iter   4:  -458.57359704750957   -5.86651e+01   3.63767e-02 DIIS
   @DF-RHF iter   5:  -449.24133645898860    9.33226e+00   3.60570e-02 DIIS
   @DF-RHF iter   6:  -495.77592857276159   -4.65346e+01   6.77609e-03 DIIS
   @DF-RHF iter   7:  -496.59830390409752   -8.22375e-01   3.12372e-03 DIIS
   @DF-RHF iter   8:  -496.76773680064912   -1.69433e-01   1.00797e-03 DIIS
   @DF-RHF iter   9:  -496.78665326809050   -1.89165e-02   4.62476e-04 DIIS
   @DF-RHF iter  10:  -496.79213300058291   -5.47973e-03   1.99596e-04 DIIS
   @DF-RHF iter  11:  -496.79342271569521   -1.28972e-03   6.00982e-05 DIIS
   @DF-RHF iter  12:  -496.79359951496235   -1.76799e-04   2.57994e-05 DIIS
   @DF-RHF iter  13:  -496.79364652351092   -4.70085e-05   1.18314e-05 DIIS
   @DF-RHF iter  14:  -496.79366322700184   -1.67035e-05   7.62930e-06 DIIS
   @DF-RHF iter  15:  -496.79367278234827   -9.55535e-06   3.33539e-06 DIIS
   @DF-RHF iter  16:  -496.79367529447381   -2.51213e-06   1.31898e-06 DIIS
   @DF-RHF iter  17:  -496.79367563311826   -3.38644e-07   4.92475e-07 DIIS

  ==> Post-Iterations <==

    Orbital Energies (a.u.)
    -----------------------

    Doubly Occupied:                                                      

       1A    -20.583632     2A    -20.525032     3A    -11.713346  
       4A    -11.324107     5A    -11.291788     6A    -11.267722  
       7A    -11.243427     8A    -11.240601     9A    -11.235534  
      10A    -11.234010    11A    -11.230239    12A     -1.519137  
      13A     -1.445513    14A     -1.342631    15A     -1.195358  
      16A     -1.103098    17A     -1.035371    18A     -0.979774  
      19A     -0.927846    20A     -0.900699    21A     -0.824313  
      22A     -0.812379    23A     -0.763258    24A     -0.728762  
      25A     -0.713141    26A     -0.695070    27A     -0.654231  
      28A     -0.649017    29A     -0.643610    30A     -0.613092  
      31A     -0.592029    32A     -0.588219    33A     -0.574040  
      34A     -0.538520    35A     -0.528774    36A     -0.512537  
      37A     -0.486033    38A     -0.481723    39A     -0.478187  
      40A     -0.455268    41A     -0.447426    42A     -0.438614  
      43A     -0.296848    44A     -0.125591  

    Virtual:                                                              

      45A      0.200758    46A      0.207224    47A      0.217996  
      48A      0.238283    49A      0.242682    50A      0.265701  
      51A      0.274542    52A      0.287487    53A      0.296715  
      54A      0.301892    55A      0.311486    56A      0.319607  
      57A      0.326855    58A      0.330267    59A      0.340432  
      60A      0.342207    61A      0.347511    62A      0.364269  
      63A      0.378025    64A      0.388569    65A      0.415224  
      66A      0.421200    67A      0.464208    68A      0.476278  
      69A      0.497305    70A      0.514300    71A      0.554767  
      72A      0.576705    73A      0.618694    74A      0.669428  
      75A      0.693089    76A      0.720387    77A      0.748698  
      78A      0.753365    79A      0.758140    80A      0.758812  
      81A      0.790554    82A      0.818896    83A      0.852988  
      84A      0.867174    85A      0.875363    86A      0.892344  
      87A      0.904572    88A      0.916028    89A      0.924355  
      90A      0.949678    91A      0.957932    92A      0.985639  
      93A      1.001658    94A      1.018237    95A      1.023221  
      96A      1.045405    97A      1.065521    98A      1.079557  
      99A      1.094930   100A      1.109091   101A      1.123571  
     102A      1.126869   103A      1.132166   104A      1.144113  
     105A      1.147783   106A      1.158293   107A      1.179086  
     108A      1.189417   109A      1.199845   110A      1.218980  
     111A      1.224824   112A      1.243079   113A      1.250127  
     114A      1.269597   115A      1.286639   116A      1.314140  
     117A      1.334238   118A      1.366975   119A      1.391569  
     120A      1.426175   121A      1.445559   122A      1.462910  
     123A      1.510833   124A      1.522677   125A      1.542999  
     126A      1.578592   127A      1.660600   128A      1.680272  
     129A      1.701827   130A      1.725632   131A      1.772405  
     132A      1.814406   133A      1.829671   134A      1.841715  
     135A      1.863283   136A      1.911112   137A      1.952359  
     138A      1.989984   139A      1.998056   140A      2.026546  
     141A      2.071370   142A      2.084236   143A      2.124031  
     144A      2.165784   145A      2.172886   146A      2.189317  
     147A      2.215435   148A      2.238275   149A      2.241747  
     150A      2.272926   151A      2.273544   152A      2.313306  
     153A      2.343020   154A      2.381552   155A      2.399973  
     156A      2.419024   157A      2.436285   158A      2.448829  
     159A      2.455231   160A      2.466131   161A      2.526379  
     162A      2.531168   163A      2.584454   164A      2.607946  
     165A      2.630906   166A      2.642947   167A      2.671954  
     168A      2.689071   169A      2.702313   170A      2.716311  
     171A      2.739591   172A      2.757916   173A      2.807326  
     174A      2.838204   175A      2.861366   176A      2.889567  
     177A      2.922655   178A      2.967974   179A      2.990690  
     180A      3.006284   181A      3.062332   182A      3.092171  
     183A      3.115276   184A      3.151072   185A      3.190920  
     186A      3.288431   187A      3.397032   188A      3.492707  
     189A      3.680612   190A      4.462341   191A      4.534987  
     192A      4.654268   193A      4.698822   194A      4.744124  
     195A      4.773953   196A      4.905283   197A      4.986323  
     198A      5.027576   199A      5.077364   200A      5.177279  
     201A     13.677168  

    Final Occupation by Irrep:
              A 
    DOCC [    44 ]

  Energy converged.

  @DF-RHF Final Energy:  -496.79367563311826

   => Energetics <=

    Nuclear Repulsion Energy =            742.5621578273069190
    One-Electron Energy =               -2144.7523414343595505
    Two-Electron Energy =                 905.3965079739306248
    DFT Exchange-Correlation Energy =       0.0000000000000000
    Empirical Dispersion Energy =           0.0000000000000000
    PCM Polarization Energy =               0.0000000000000000
    EFP Energy =                            0.0000000000000000
    Total Energy =                       -496.7936756331220067

    Alert: EFP and PCM quantities not currently incorporated into SCF psivars.

Properties will be evaluated at   0.000000,   0.000000,   0.000000 Bohr
  ==> Properties <==


Properties computed using the SCF density matrix

  Nuclear Dipole Moment: (a.u.)
     X:    -4.0589      Y:    -0.9129      Z:    -7.7734

  Electronic Dipole Moment: (a.u.)
     X:     3.0970      Y:     0.8498      Z:     6.9030

  Dipole Moment: (a.u.)
     X:    -0.9619      Y:    -0.0630      Z:    -0.8704     Total:     1.2988

  Dipole Moment: (Debye)
     X:    -2.4449      Y:    -0.1602      Z:    -2.2123     Total:     3.3012


  Saving occupied orbitals to File 180.

*** tstop() called on cx1-3-14-1.cx1.hpc.ic.ac.uk at Tue Jul  5 18:47:10 2016
Module time:
	user time   =      51.85 seconds =       0.86 minutes
	system time =       4.92 seconds =       0.08 minutes
	total time  =         58 seconds =       0.97 minutes
Total time:
	user time   =      51.85 seconds =       0.86 minutes
	system time =       4.92 seconds =       0.08 minutes
	total time  =         58 seconds =       0.97 minutes


Properties will be evaluated at   0.000000,   0.000000,   0.000000 Bohr

Properties computed using the  density matrix

  Nuclear Dipole Moment: (a.u.)
     X:    -4.0589      Y:    -0.9129      Z:    -7.7734

  Electronic Dipole Moment: (a.u.)
     X:     3.0970      Y:     0.8498      Z:     6.9030

  Dipole Moment: (a.u.)
     X:    -0.9619      Y:    -0.0630      Z:    -0.8704     Total:     1.2988

  Dipole Moment: (Debye)
     X:    -2.4449      Y:    -0.1602      Z:    -2.2123     Total:     3.3012

  Quadrupole Moment: (Debye Ang)
    XX:   -72.5689     YY:   -69.9509     ZZ:   -66.7940
    XY:    -0.9840     XZ:     4.5131     YZ:    -7.6795

  Traceless Quadrupole Moment: (Debye Ang)
    XX:    -2.7976     YY:    -0.1796     ZZ:     2.9773
    XY:    -0.9840     XZ:     4.5131     YZ:    -7.6795

  Mulliken Charges: (a.u.)
   Center  Symbol    Alpha    Beta     Spin     Total
       1     O     4.30242  4.30242  0.00000 -0.60483
       2     C     2.60051  2.60051  0.00000  0.79898
       3     C     2.10263  2.10263  0.00000  1.79473
       4     O     4.31326  4.31326  0.00000 -0.62652
       5     C     3.18990  3.18990  0.00000 -0.37980
       6     H     0.62873  0.62873  0.00000 -0.25746
       7     H     0.48250  0.48250  0.00000  0.03500
       8     C     3.16088  3.16088  0.00000 -0.32177
       9     H     0.39868  0.39868  0.00000  0.20264
      10     H     0.38845  0.38845  0.00000  0.22310
      11     C     3.16367  3.16367  0.00000 -0.32735
      12     H     0.41055  0.41055  0.00000  0.17890
      13     H     0.38087  0.38087  0.00000  0.23826
      14     C     3.17702  3.17702  0.00000 -0.35404
      15     H     0.40883  0.40883  0.00000  0.18233
      16     H     0.42215  0.42215  0.00000  0.15571
      17     C     3.19024  3.19024  0.00000 -0.38048
      18     H     0.41165  0.41165  0.00000  0.17669
      19     H     0.40484  0.40484  0.00000  0.19032
      20     C     3.10321  3.10321  0.00000 -0.20641
      21     H     0.39654  0.39654  0.00000  0.20692
      22     H     0.41416  0.41416  0.00000  0.17168
      23     H     0.41086  0.41086  0.00000  0.17828
      24     H     1.44267  1.44267  0.00000 -1.88533
      25     H     0.37018  0.37018  0.00000  0.25964
      26     C     3.08854  3.08854  0.00000 -0.17709
      27     H     0.41118  0.41118  0.00000  0.17763
      28     H     0.41036  0.41036  0.00000  0.17927
      29     H     0.41449  0.41449  0.00000  0.17102

   Total alpha = 44.00000, Total beta = 44.00000, Total charge =  0.00000


*** PSI4 exiting successfully. Buy a developer a beer!
