    -----------------------------------------------------------------------
          Psi4: An Open-Source Ab Initio Electronic Structure Package
                              Psi4 (no tag) Driver

                          Git: Rev {detached?}  

    J. M. Turney, A. C. Simmonett, R. M. Parrish, E. G. Hohenstein,
    F. A. Evangelista, J. T. Fermann, B. J. Mintz, L. A. Burns, J. J. Wilke,
    M. L. Abrams, N. J. Russ, M. L. Leininger, C. L. Janssen, E. T. Seidl,
    W. D. Allen, H. F. Schaefer, R. A. King, E. F. Valeev, C. D. Sherrill,
    and T. D. Crawford, WIREs Comput. Mol. Sci. 2, 556-565 (2012)
    (doi: 10.1002/wcms.93)

                         Additional Contributions by
    A. E. DePrince, M. Saitow, U. Bozkaya, A. Yu. Sokolov
    -----------------------------------------------------------------------


    Psi4 started on: Tue Jul  5 16:50:18 2016

    Process ID:   5756
    PSI4DATADIR: /export131/home/mjharvey/miniconda3/share
    Memory level set to 256.000 MB

  ==> Input File <==

--------------------------------------------------------------------------
set {
	reference rhf
	basis 6-31G*
}


set_num_threads( 1 )
memory 2 gb

molecule MOL {
0 1

H	 -3.892951	 0.981613	 -0.358725
C	 -3.196921	 0.361773	 0.172313
C	 -2.076860	 -0.007332	 -0.404944
H	 -3.439953	 0.057760	 1.173024
O	 -1.180634	 -0.819263	 0.215062
H	 -1.811520	 0.292194	 -1.403480
C	 0.051604	 -1.018856	 -0.387932
C	 1.043764	 0.054862	 -0.001873
H	 -0.017620	 -1.041351	 -1.469781
H	 0.437898	 -1.966374	 -0.042284
F	 0.843170	 0.407416	 1.259584
F	 2.292125	 -0.369995	 -0.106384
F	 0.922325	 1.132671	 -0.748847

	symmetry c1
}
set optking {
	frozen_dihedral = ("
		3 5 7 9,
		6 3 2 1,
		6 3 5 7
	")
}

ee = energy('scf')
oeprop('DIPOLE', 'QUADRUPOLE', 'MULLIKEN_CHARGES')
f=open( 'psi4out.xyz', 'w' )
f.write( "13  " )
f.write( str(ee) + "\n" )
f.write( MOL.save_string_xyz() )
f.close()
--------------------------------------------------------------------------

  Memory set to   2.000 GiB by Python script.

*** tstart() called on cx1-3-14-4.cx1.hpc.ic.ac.uk
*** at Tue Jul  5 16:50:19 2016


         ---------------------------------------------------------
                                   SCF
            by Justin Turney, Rob Parrish, and Andy Simmonett
                              RHF Reference
                        1 Threads,   2000 MiB Core
         ---------------------------------------------------------

  ==> Geometry <==

    Molecular point group: c1
    Full point group: C1

    Geometry (in Angstrom), charge = 0, multiplicity = 1:

       Center              X                  Y                   Z               Mass       
    ------------   -----------------  -----------------  -----------------  -----------------
           H         -3.887164979195     0.980645542845    -0.370905024527     1.007825032070
           C         -3.191134979195     0.360805542845     0.160132975473    12.000000000000
           C         -2.071073979195    -0.008299457155    -0.417124024527    12.000000000000
           H         -3.434166979195     0.056792542845     1.160843975473     1.007825032070
           O         -1.174847979195    -0.820230457155     0.202881975473    15.994914619560
           H         -1.805733979195     0.291226542845    -1.415660024527     1.007825032070
           C          0.057390020805    -1.019823457155    -0.400112024527    12.000000000000
           C          1.049550020805     0.053894542845    -0.014053024527    12.000000000000
           H         -0.011833979195    -1.042318457155    -1.481961024527     1.007825032070
           H          0.443684020805    -1.967341457155    -0.054464024527     1.007825032070
           F          0.848956020805     0.406448542845     1.247403975473    18.998403224000
           F          2.297911020805    -0.370962457155    -0.118564024527    18.998403224000
           F          0.928111020805     1.131703542845    -0.761027024527    18.998403224000

  Running in c1 symmetry.

  Rotational constants: A =      0.15002  B =      0.04002  C =      0.03908 [cm^-1]
  Rotational constants: A =   4497.43687  B =   1199.71102  C =   1171.52218 [MHz]
  Nuclear repulsion =  413.856127895830696

  Charge       = 0
  Multiplicity = 1
  Electrons    = 64
  Nalpha       = 32
  Nbeta        = 32

  ==> Algorithm <==

  SCF Algorithm Type is DF.
  DIIS enabled.
  MOM disabled.
  Fractional occupation disabled.
  Guess Type is CORE.
  Energy threshold   = 1.00e-06
  Density threshold  = 1.00e-06
  Integral threshold = 0.00e+00

  ==> Primary Basis <==

  Basis Set: 6-31G*
    Number of shells: 58
    Number of basis function: 130
    Number of Cartesian functions: 130
    Spherical Harmonics?: false
    Max angular momentum: 2

  ==> Pre-Iterations <==

   -------------------------------------------------------
    Irrep   Nso     Nmo     Nalpha   Nbeta   Ndocc  Nsocc
   -------------------------------------------------------
     A        130     130       0       0       0       0
   -------------------------------------------------------
    Total     130     130      32      32      32       0
   -------------------------------------------------------

 OEINTS: Overlap, kinetic, potential, dipole, and quadrupole integrals
         stored in file 35.

  ==> Integral Setup <==

  ==> DFJK: Density-Fitted J/K Matrices <==

    J tasked:                  Yes
    K tasked:                  Yes
    wK tasked:                  No
    OpenMP threads:              1
    Integrals threads:           1
    Memory (MB):              1430
    Algorithm:                Core
    Integral Cache:           NONE
    Schwarz Cutoff:          1E-12
    Fitting Condition:       1E-12

   => Auxiliary Basis Set <=

  Basis Set: 
    Number of shells: 237
    Number of basis function: 773
    Number of Cartesian functions: 773
    Spherical Harmonics?: false
    Max angular momentum: 3

  Minimum eigenvalue in the overlap matrix is 1.8275847870E-03.
  Using Symmetric Orthogonalization.
  SCF Guess: Core (One-Electron) Hamiltonian.

  ==> Iterations <==

                           Total Energy        Delta E     RMS |[F,P]|

   @DF-RHF iter   1:  -439.64346335816322   -4.39643e+02   7.42078e-02 
   @DF-RHF iter   2:  -175.61275451144274    2.64031e+02   9.74102e-02 DIIS
   @DF-RHF iter   3:  -490.61060212328061   -3.14998e+02   3.98034e-02 DIIS
   @DF-RHF iter   4:  -399.42777209302835    9.11828e+01   8.05325e-02 DIIS
   @DF-RHF iter   5:  -518.83172242297110   -1.19404e+02   2.22411e-02 DIIS
   @DF-RHF iter   6:  -526.84722200832573   -8.01550e+00   9.84367e-03 DIIS
   @DF-RHF iter   7:  -527.48490304916368   -6.37681e-01   2.33640e-03 DIIS
   @DF-RHF iter   8:  -527.52026534548997   -3.53623e-02   1.08812e-03 DIIS
   @DF-RHF iter   9:  -527.52997996107342   -9.71462e-03   5.14739e-04 DIIS
   @DF-RHF iter  10:  -527.53223948115271   -2.25952e-03   2.47892e-04 DIIS
   @DF-RHF iter  11:  -527.53292674592399   -6.87265e-04   5.06893e-05 DIIS
   @DF-RHF iter  12:  -527.53295663622816   -2.98903e-05   1.76580e-05 DIIS
   @DF-RHF iter  13:  -527.53296255104397   -5.91482e-06   7.86086e-06 DIIS
   @DF-RHF iter  14:  -527.53296350277674   -9.51733e-07   1.99178e-06 DIIS
   @DF-RHF iter  15:  -527.53296360684487   -1.04068e-07   6.60763e-07 DIIS

  ==> Post-Iterations <==

    Orbital Energies (a.u.)
    -----------------------

    Doubly Occupied:                                                      

       1A    -26.345893     2A    -26.345495     3A    -26.333755  
       4A    -20.607683     5A    -11.502368     6A    -11.317986  
       7A    -11.299504     8A    -11.216493     9A     -1.741165  
      10A     -1.642285    11A     -1.633403    12A     -1.437588  
      13A     -1.083912    14A     -1.016710    15A     -0.924421  
      16A     -0.835119    17A     -0.830104    18A     -0.820549  
      19A     -0.793580    20A     -0.719790    21A     -0.713079  
      22A     -0.696069    23A     -0.675833    24A     -0.659795  
      25A     -0.654809    26A     -0.641723    27A     -0.627999  
      28A     -0.583785    29A     -0.563387    30A     -0.523932  
      31A     -0.513464    32A     -0.351940  

    Virtual:                                                              

      33A      0.189351    34A      0.233731    35A      0.273041  
      36A      0.276366    37A      0.294076    38A      0.314280  
      39A      0.343472    40A      0.408362    41A      0.418939  
      42A      0.455539    43A      0.477214    44A      0.506921  
      45A      0.523096    46A      0.688346    47A      0.699394  
      48A      0.708076    49A      0.741326    50A      0.755767  
      51A      0.773437    52A      0.807633    53A      0.833392  
      54A      0.882430    55A      0.903973    56A      0.927147  
      57A      0.987286    58A      1.081994    59A      1.100451  
      60A      1.133048    61A      1.153266    62A      1.161878  
      63A      1.203412    64A      1.236085    65A      1.250726  
      66A      1.327096    67A      1.349932    68A      1.366740  
      69A      1.402608    70A      1.431996    71A      1.453079  
      72A      1.476715    73A      1.592635    74A      1.612616  
      75A      1.626297    76A      1.635996    77A      1.662499  
      78A      1.673686    79A      1.682305    80A      1.716998  
      81A      1.745893    82A      1.775896    83A      1.882678  
      84A      1.901855    85A      1.940671    86A      1.992865  
      87A      2.013133    88A      2.035953    89A      2.112271  
      90A      2.129517    91A      2.142647    92A      2.150657  
      93A      2.227771    94A      2.243941    95A      2.286787  
      96A      2.293009    97A      2.314484    98A      2.323318  
      99A      2.373726   100A      2.394857   101A      2.407413  
     102A      2.416188   103A      2.484076   104A      2.512495  
     105A      2.560174   106A      2.591676   107A      2.623126  
     108A      2.677652   109A      2.761173   110A      2.826514  
     111A      2.879452   112A      2.887153   113A      2.986480  
     114A      3.094169   115A      3.154553   116A      3.176651  
     117A      3.217267   118A      3.291770   119A      3.415154  
     120A      3.423549   121A      3.460305   122A      3.464633  
     123A      4.345995   124A      4.546146   125A      4.625238  
     126A      4.702198   127A      4.897421   128A      4.953763  
     129A      5.105125   130A      5.760398  

    Final Occupation by Irrep:
              A 
    DOCC [    32 ]

  Energy converged.

  @DF-RHF Final Energy:  -527.53296360684487

   => Energetics <=

    Nuclear Repulsion Energy =            413.8561278958306957
    One-Electron Energy =               -1551.4708007959216047
    Two-Electron Energy =                 610.0817092932454671
    DFT Exchange-Correlation Energy =       0.0000000000000000
    Empirical Dispersion Energy =           0.0000000000000000
    PCM Polarization Energy =               0.0000000000000000
    EFP Energy =                            0.0000000000000000
    Total Energy =                       -527.5329636068454420

    Alert: EFP and PCM quantities not currently incorporated into SCF psivars.

Properties will be evaluated at   0.000000,   0.000000,   0.000000 Bohr
  ==> Properties <==


Properties computed using the SCF density matrix

  Nuclear Dipole Moment: (a.u.)
     X:   -12.0013      Y:    -2.6809      Z:    -2.3729

  Electronic Dipole Moment: (a.u.)
     X:    11.7605      Y:     2.2926      Z:     1.6328

  Dipole Moment: (a.u.)
     X:    -0.2408      Y:    -0.3883      Z:    -0.7402     Total:     0.8698

  Dipole Moment: (Debye)
     X:    -0.6120      Y:    -0.9870      Z:    -1.8813     Total:     2.2109


  Saving occupied orbitals to File 180.

*** tstop() called on cx1-3-14-4.cx1.hpc.ic.ac.uk at Tue Jul  5 16:50:28 2016
Module time:
	user time   =       9.35 seconds =       0.16 minutes
	system time =       0.06 seconds =       0.00 minutes
	total time  =          9 seconds =       0.15 minutes
Total time:
	user time   =       9.35 seconds =       0.16 minutes
	system time =       0.06 seconds =       0.00 minutes
	total time  =          9 seconds =       0.15 minutes


Properties will be evaluated at   0.000000,   0.000000,   0.000000 Bohr

Properties computed using the  density matrix

  Nuclear Dipole Moment: (a.u.)
     X:   -12.0013      Y:    -2.6809      Z:    -2.3729

  Electronic Dipole Moment: (a.u.)
     X:    11.7605      Y:     2.2926      Z:     1.6328

  Dipole Moment: (a.u.)
     X:    -0.2408      Y:    -0.3883      Z:    -0.7402     Total:     0.8698

  Dipole Moment: (Debye)
     X:    -0.6120      Y:    -0.9870      Z:    -1.8813     Total:     2.2109

  Quadrupole Moment: (Debye Ang)
    XX:   -45.6892     YY:   -44.3619     ZZ:   -43.3490
    XY:    -3.1910     XZ:     0.8263     YZ:     0.5512

  Traceless Quadrupole Moment: (Debye Ang)
    XX:    -1.2225     YY:     0.1048     ZZ:     1.1177
    XY:    -3.1910     XZ:     0.8263     YZ:     0.5512

  Mulliken Charges: (a.u.)
   Center  Symbol    Alpha    Beta     Spin     Total
       1     H     0.40699  0.40699  0.00000  0.18602
       2     C     3.23399  3.23399  0.00000 -0.46799
       3     C     2.89913  2.89913  0.00000  0.20173
       4     H     0.40127  0.40127  0.00000  0.19747
       5     O     4.29834  4.29834  0.00000 -0.59668
       6     H     0.40606  0.40606  0.00000  0.18789
       7     C     3.06850  3.06850  0.00000 -0.13699
       8     C     2.45398  2.45398  0.00000  1.09203
       9     H     0.40536  0.40536  0.00000  0.18928
      10     H     0.38917  0.38917  0.00000  0.22166
      11     F     4.67836  4.67836  0.00000 -0.35671
      12     F     4.68109  4.68109  0.00000 -0.36218
      13     F     4.67776  4.67776  0.00000 -0.35552

   Total alpha = 32.00000, Total beta = 32.00000, Total charge = -0.00000


*** PSI4 exiting successfully. Buy a developer a beer!
