    -----------------------------------------------------------------------
          Psi4: An Open-Source Ab Initio Electronic Structure Package
                              Psi4 (no tag) Driver

                          Git: Rev {detached?}  

    J. M. Turney, A. C. Simmonett, R. M. Parrish, E. G. Hohenstein,
    F. A. Evangelista, J. T. Fermann, B. J. Mintz, L. A. Burns, J. J. Wilke,
    M. L. Abrams, N. J. Russ, M. L. Leininger, C. L. Janssen, E. T. Seidl,
    W. D. Allen, H. F. Schaefer, R. A. King, E. F. Valeev, C. D. Sherrill,
    and T. D. Crawford, WIREs Comput. Mol. Sci. 2, 556-565 (2012)
    (doi: 10.1002/wcms.93)

                         Additional Contributions by
    A. E. DePrince, M. Saitow, U. Bozkaya, A. Yu. Sokolov
    -----------------------------------------------------------------------


    Psi4 started on: Tue Jul  5 16:26:48 2016

    Process ID:  27125
    PSI4DATADIR: /export131/home/mjharvey/miniconda3/share
    Memory level set to 256.000 MB

  ==> Input File <==

--------------------------------------------------------------------------
set {
	reference rhf
	basis 6-31G*
}


set_num_threads( 1 )
memory 2 gb

molecule MOL {
0 1

H	 1.243278	 0.065872	 -0.950973
C	 0.850167	 0.441173	 0.000644
C	 -0.623425	 0.760064	 0.000248
O	 1.570924	 0.567463	 0.936756
C	 -1.518387	 -0.473136	 -0.000101
H	 -0.818289	 1.390622	 -0.866171
H	 -0.818694	 1.390413	 0.866696
H	 -1.333417	 -1.085530	 -0.874338
H	 -2.563510	 -0.183466	 -0.000351
H	 -1.333864	 -1.085676	 0.874123

	symmetry c1
}
ee = energy('scf')
oeprop('DIPOLE', 'QUADRUPOLE', 'MULLIKEN_CHARGES')
f=open( 'psi4out.xyz', 'w' )
f.write( "10  " )
f.write( str(ee) + "\n" )
f.write( MOL.save_string_xyz() )
f.close()
--------------------------------------------------------------------------

  Memory set to   2.000 GiB by Python script.

*** tstart() called on cx1-3-5-2.cx1.hpc.ic.ac.uk
*** at Tue Jul  5 16:26:48 2016


         ---------------------------------------------------------
                                   SCF
            by Justin Turney, Rob Parrish, and Andy Simmonett
                              RHF Reference
                        1 Threads,   2000 MiB Core
         ---------------------------------------------------------

  ==> Geometry <==

    Molecular point group: c1
    Full point group: C1

    Geometry (in Angstrom), charge = 0, multiplicity = 1:

       Center              X                  Y                   Z               Mass       
    ------------   -----------------  -----------------  -----------------  -----------------
           H          1.175076411284    -0.249586868331    -1.192770340071     1.007825032070
           C          0.781965411284     0.125714131669    -0.241153340071    12.000000000000
           C         -0.691626588716     0.444605131669    -0.241549340071    12.000000000000
           O          1.502722411284     0.252004131669     0.694958659929    15.994914619560
           C         -1.586588588716    -0.788594868331    -0.241898340071    12.000000000000
           H         -0.886490588716     1.075163131669    -1.107968340071     1.007825032070
           H         -0.886895588716     1.074954131669     0.624898659929     1.007825032070
           H         -1.401618588716    -1.400988868331    -1.116135340071     1.007825032070
           H         -2.631711588716    -0.498924868331    -0.242148340071     1.007825032070
           H         -1.402065588716    -1.401134868331     0.632325659929     1.007825032070

  Running in c1 symmetry.

  Rotational constants: A =      0.79337  B =      0.14927  C =      0.14413 [cm^-1]
  Rotational constants: A =  23784.54503  B =   4475.10916  C =   4320.99024 [MHz]
  Nuclear repulsion =  117.475669506764248

  Charge       = 0
  Multiplicity = 1
  Electrons    = 32
  Nalpha       = 16
  Nbeta        = 16

  ==> Algorithm <==

  SCF Algorithm Type is DF.
  DIIS enabled.
  MOM disabled.
  Fractional occupation disabled.
  Guess Type is CORE.
  Energy threshold   = 1.00e-06
  Density threshold  = 1.00e-06
  Integral threshold = 0.00e+00

  ==> Primary Basis <==

  Basis Set: 6-31G*
    Number of shells: 36
    Number of basis function: 72
    Number of Cartesian functions: 72
    Spherical Harmonics?: false
    Max angular momentum: 2

  ==> Pre-Iterations <==

   -------------------------------------------------------
    Irrep   Nso     Nmo     Nalpha   Nbeta   Ndocc  Nsocc
   -------------------------------------------------------
     A         72      72       0       0       0       0
   -------------------------------------------------------
    Total      72      72      16      16      16       0
   -------------------------------------------------------

 OEINTS: Overlap, kinetic, potential, dipole, and quadrupole integrals
         stored in file 35.

  ==> Integral Setup <==

  ==> DFJK: Density-Fitted J/K Matrices <==

    J tasked:                  Yes
    K tasked:                  Yes
    wK tasked:                  No
    OpenMP threads:              1
    Integrals threads:           1
    Memory (MB):              1430
    Algorithm:                Core
    Integral Cache:           NONE
    Schwarz Cutoff:          1E-12
    Fitting Condition:       1E-12

   => Auxiliary Basis Set <=

  Basis Set: 
    Number of shells: 150
    Number of basis function: 474
    Number of Cartesian functions: 474
    Spherical Harmonics?: false
    Max angular momentum: 3

  Minimum eigenvalue in the overlap matrix is 5.0115601528E-03.
  Using Symmetric Orthogonalization.
  SCF Guess: Core (One-Electron) Hamiltonian.

  ==> Iterations <==

                           Total Energy        Delta E     RMS |[F,P]|

   @DF-RHF iter   1:  -151.60889130524151   -1.51609e+02   9.25947e-02 
   @DF-RHF iter   2:  -115.96981430429231    3.56391e+01   8.31922e-02 DIIS
   @DF-RHF iter   3:  -171.97651056025904   -5.60067e+01   5.66741e-02 DIIS
   @DF-RHF iter   4:  -190.86645518603586   -1.88899e+01   2.01177e-02 DIIS
   @DF-RHF iter   5:  -191.88909725800579   -1.02264e+00   4.81435e-03 DIIS
   @DF-RHF iter   6:  -191.93877568362336   -4.96784e-02   2.08502e-03 DIIS
   @DF-RHF iter   7:  -191.94785848319270   -9.08280e-03   6.54356e-04 DIIS
   @DF-RHF iter   8:  -191.94911507684913   -1.25659e-03   1.37217e-04 DIIS
   @DF-RHF iter   9:  -191.94919530544462   -8.02286e-05   3.64369e-05 DIIS
   @DF-RHF iter  10:  -191.94920297969782   -7.67425e-06   1.21433e-05 DIIS
   @DF-RHF iter  11:  -191.94920403424248   -1.05454e-06   4.68910e-06 DIIS
   @DF-RHF iter  12:  -191.94920427414718   -2.39905e-07   2.04794e-06 DIIS
   @DF-RHF iter  13:  -191.94920433501142   -6.08642e-08   9.24805e-07 DIIS

  ==> Post-Iterations <==

    Orbital Energies (a.u.)
    -----------------------

    Doubly Occupied:                                                      

       1A    -20.564833     2A    -11.328052     3A    -11.238465  
       4A    -11.233970     5A     -1.404302     6A     -1.066811  
       7A     -0.907299     8A     -0.790961     9A     -0.676794  
      10A     -0.640600    11A     -0.607778    12A     -0.575622  
      13A     -0.544991    14A     -0.506418    15A     -0.499224  
      16A     -0.412444  

    Virtual:                                                              

      17A      0.156644    18A      0.244270    19A      0.274989  
      20A      0.287632    21A      0.309954    22A      0.316882  
      23A      0.318423    24A      0.382824    25A      0.443229  
      26A      0.478500    27A      0.702849    28A      0.734514  
      29A      0.742898    30A      0.784567    31A      0.844298  
      32A      0.889041    33A      0.944552    34A      0.970342  
      35A      1.012422    36A      1.074962    37A      1.110423  
      38A      1.117794    39A      1.149068    40A      1.161417  
      41A      1.196493    42A      1.233783    43A      1.254823  
      44A      1.300286    45A      1.353394    46A      1.449131  
      47A      1.620496    48A      1.684446    49A      1.804916  
      50A      1.849221    51A      1.895902    52A      1.984211  
      53A      2.107131    54A      2.132826    55A      2.197364  
      56A      2.253376    57A      2.258676    58A      2.417203  
      59A      2.467036    60A      2.570926    61A      2.643090  
      62A      2.658041    63A      2.748632    64A      2.915879  
      65A      2.955915    66A      3.008058    67A      3.245235  
      68A      3.356630    69A      4.281044    70A      4.518351  
      71A      4.659796    72A      4.883406  

    Final Occupation by Irrep:
              A 
    DOCC [    16 ]

  Energy converged.

  @DF-RHF Final Energy:  -191.94920433501142

   => Energetics <=

    Nuclear Repulsion Energy =            117.4756695067642482
    One-Electron Energy =                -492.8525521762153971
    Two-Electron Energy =                 183.4276783344396051
    DFT Exchange-Correlation Energy =       0.0000000000000000
    Empirical Dispersion Energy =           0.0000000000000000
    PCM Polarization Energy =               0.0000000000000000
    EFP Energy =                            0.0000000000000000
    Total Energy =                       -191.9492043350115580

    Alert: EFP and PCM quantities not currently incorporated into SCF psivars.

Properties will be evaluated at   0.000000,   0.000000,   0.000000 Bohr
  ==> Properties <==


Properties computed using the SCF density matrix

  Nuclear Dipole Moment: (a.u.)
     X:    -5.6492      Y:    -1.3117      Z:    -2.2483

  Electronic Dipole Moment: (a.u.)
     X:     4.7669      Y:     1.2016      Z:     1.4520

  Dipole Moment: (a.u.)
     X:    -0.8823      Y:    -0.1101      Z:    -0.7963     Total:     1.1935

  Dipole Moment: (Debye)
     X:    -2.2425      Y:    -0.2799      Z:    -2.0239     Total:     3.0337


  Saving occupied orbitals to File 180.

*** tstop() called on cx1-3-5-2.cx1.hpc.ic.ac.uk at Tue Jul  5 16:26:51 2016
Module time:
	user time   =       2.26 seconds =       0.04 minutes
	system time =       0.04 seconds =       0.00 minutes
	total time  =          3 seconds =       0.05 minutes
Total time:
	user time   =       2.26 seconds =       0.04 minutes
	system time =       0.04 seconds =       0.00 minutes
	total time  =          3 seconds =       0.05 minutes


Properties will be evaluated at   0.000000,   0.000000,   0.000000 Bohr

Properties computed using the  density matrix

  Nuclear Dipole Moment: (a.u.)
     X:    -5.6492      Y:    -1.3117      Z:    -2.2483

  Electronic Dipole Moment: (a.u.)
     X:     4.7669      Y:     1.2016      Z:     1.4520

  Dipole Moment: (a.u.)
     X:    -0.8823      Y:    -0.1101      Z:    -0.7963     Total:     1.1935

  Dipole Moment: (Debye)
     X:    -2.2425      Y:    -0.2799      Z:    -2.0239     Total:     3.0337

  Quadrupole Moment: (Debye Ang)
    XX:   -28.3278     YY:   -24.5521     ZZ:   -25.5945
    XY:    -0.7101     XZ:    -2.9365     YZ:    -0.5599

  Traceless Quadrupole Moment: (Debye Ang)
    XX:    -2.1697     YY:     1.6061     ZZ:     0.5637
    XY:    -0.7101     XZ:    -2.9365     YZ:    -0.5599

  Mulliken Charges: (a.u.)
   Center  Symbol    Alpha    Beta     Spin     Total
       1     H     0.43217  0.43217  0.00000  0.13567
       2     C     2.83352  2.83352  0.00000  0.33297
       3     C     3.20539  3.20539  0.00000 -0.41077
       4     O     4.23447  4.23447  0.00000 -0.46894
       5     C     3.24792  3.24792  0.00000 -0.49585
       6     H     0.41273  0.41273  0.00000  0.17454
       7     H     0.40043  0.40043  0.00000  0.19915
       8     H     0.41634  0.41634  0.00000  0.16732
       9     H     0.40900  0.40900  0.00000  0.18200
      10     H     0.40804  0.40804  0.00000  0.18392

   Total alpha = 16.00000, Total beta = 16.00000, Total charge = -0.00000


*** PSI4 exiting successfully. Buy a developer a beer!
