    -----------------------------------------------------------------------
          Psi4: An Open-Source Ab Initio Electronic Structure Package
                              Psi4 (no tag) Driver

                          Git: Rev {detached?}  

    J. M. Turney, A. C. Simmonett, R. M. Parrish, E. G. Hohenstein,
    F. A. Evangelista, J. T. Fermann, B. J. Mintz, L. A. Burns, J. J. Wilke,
    M. L. Abrams, N. J. Russ, M. L. Leininger, C. L. Janssen, E. T. Seidl,
    W. D. Allen, H. F. Schaefer, R. A. King, E. F. Valeev, C. D. Sherrill,
    and T. D. Crawford, WIREs Comput. Mol. Sci. 2, 556-565 (2012)
    (doi: 10.1002/wcms.93)

                         Additional Contributions by
    A. E. DePrince, M. Saitow, U. Bozkaya, A. Yu. Sokolov
    -----------------------------------------------------------------------


    Psi4 started on: Tue Jul  5 16:28:42 2016

    Process ID:  24928
    PSI4DATADIR: /export131/home/mjharvey/miniconda3/share
    Memory level set to 256.000 MB

  ==> Input File <==

--------------------------------------------------------------------------
set {
	reference rhf
	basis 6-31G*
}


set_num_threads( 1 )
memory 2 gb

molecule MOL {
0 1

H	 2.711255	 -0.770628	 0.599989
N	 2.332695	 -0.069570	 0.000000
C	 0.936681	 -0.007078	 0.000000
H	 2.781881	 0.807099	 0.156398
C	 0.227108	 -0.002120	 -1.198267
C	 0.227108	 -0.002120	 1.198267
H	 0.761569	 -0.014657	 -2.132680
C	 -1.156334	 0.010459	 -1.192360
H	 0.761569	 -0.014657	 2.132680
C	 -1.156334	 0.010459	 1.192360
H	 -1.684791	 0.014915	 -2.129421
C	 -1.862085	 0.017996	 0.000000
H	 -1.684791	 0.014915	 2.129421
H	 -2.936703	 0.028387	 0.000000

	symmetry c1
}
ee = energy('scf')
oeprop('DIPOLE', 'QUADRUPOLE', 'MULLIKEN_CHARGES')
f=open( 'psi4out.xyz', 'w' )
f.write( "14  " )
f.write( str(ee) + "\n" )
f.write( MOL.save_string_xyz() )
f.close()
--------------------------------------------------------------------------

  Memory set to   2.000 GiB by Python script.

*** tstart() called on cx1-1-2-1.cx1.hpc.ic.ac.uk
*** at Tue Jul  5 16:28:42 2016


         ---------------------------------------------------------
                                   SCF
            by Justin Turney, Rob Parrish, and Andy Simmonett
                              RHF Reference
                        1 Threads,   2000 MiB Core
         ---------------------------------------------------------

  ==> Geometry <==

    Molecular point group: c1
    Full point group: C1

    Geometry (in Angstrom), charge = 0, multiplicity = 1:

       Center              X                  Y                   Z               Mass       
    ------------   -----------------  -----------------  -----------------  -----------------
           H          2.711532532717    -0.764425876164     0.591797259498     1.007825032070
           N          2.332972532717    -0.063367876164    -0.008191740502    14.003074004780
           C          0.936958532717    -0.000875876164    -0.008191740502    12.000000000000
           H          2.782158532717     0.813301123836     0.148206259498     1.007825032070
           C          0.227385532717     0.004082123836    -1.206458740502    12.000000000000
           C          0.227385532717     0.004082123836     1.190075259498    12.000000000000
           H          0.761846532717    -0.008454876164    -2.140871740502     1.007825032070
           C         -1.156056467283     0.016661123836    -1.200551740502    12.000000000000
           H          0.761846532717    -0.008454876164     2.124488259498     1.007825032070
           C         -1.156056467283     0.016661123836     1.184168259498    12.000000000000
           H         -1.684513467283     0.021117123836    -2.137612740502     1.007825032070
           C         -1.861807467283     0.024198123836    -0.008191740502    12.000000000000
           H         -1.684513467283     0.021117123836     2.121229259498     1.007825032070
           H         -2.936425467283     0.034589123836    -0.008191740502     1.007825032070

  Running in c1 symmetry.

  Rotational constants: A =      0.19046  B =      0.08698  C =      0.06025 [cm^-1]
  Rotational constants: A =   5709.94838  B =   2607.45402  C =   1806.38988 [MHz]
  Nuclear repulsion =  272.971361608773464

  Charge       = 0
  Multiplicity = 1
  Electrons    = 50
  Nalpha       = 25
  Nbeta        = 25

  ==> Algorithm <==

  SCF Algorithm Type is DF.
  DIIS enabled.
  MOM disabled.
  Fractional occupation disabled.
  Guess Type is CORE.
  Energy threshold   = 1.00e-06
  Density threshold  = 1.00e-06
  Integral threshold = 0.00e+00

  ==> Primary Basis <==

  Basis Set: 6-31G*
    Number of shells: 56
    Number of basis function: 119
    Number of Cartesian functions: 119
    Spherical Harmonics?: false
    Max angular momentum: 2

  ==> Pre-Iterations <==

   -------------------------------------------------------
    Irrep   Nso     Nmo     Nalpha   Nbeta   Ndocc  Nsocc
   -------------------------------------------------------
     A        119     119       0       0       0       0
   -------------------------------------------------------
    Total     119     119      25      25      25       0
   -------------------------------------------------------

 OEINTS: Overlap, kinetic, potential, dipole, and quadrupole integrals
         stored in file 35.

  ==> Integral Setup <==

  ==> DFJK: Density-Fitted J/K Matrices <==

    J tasked:                  Yes
    K tasked:                  Yes
    wK tasked:                  No
    OpenMP threads:              1
    Integrals threads:           1
    Memory (MB):              1430
    Algorithm:                Core
    Integral Cache:           NONE
    Schwarz Cutoff:          1E-12
    Fitting Condition:       1E-12

   => Auxiliary Basis Set <=

  Basis Set: 
    Number of shells: 231
    Number of basis function: 742
    Number of Cartesian functions: 742
    Spherical Harmonics?: false
    Max angular momentum: 3

  Minimum eigenvalue in the overlap matrix is 4.2746455517E-04.
  Using Symmetric Orthogonalization.
  SCF Guess: Core (One-Electron) Hamiltonian.

  ==> Iterations <==

                           Total Energy        Delta E     RMS |[F,P]|

   @DF-RHF iter   1:  -224.87265972596589   -2.24873e+02   7.09513e-02 
   @DF-RHF iter   2:  -234.33512203729265   -9.46246e+00   5.30446e-02 DIIS
   @DF-RHF iter   3:  -268.10089093142619   -3.37658e+01   3.60278e-02 DIIS
   @DF-RHF iter   4:  -268.19061274978344   -8.97218e-02   3.75673e-02 DIIS
   @DF-RHF iter   5:  -285.08025781208926   -1.68896e+01   8.87491e-03 DIIS
   @DF-RHF iter   6:  -285.67653455883112   -5.96277e-01   2.47528e-03 DIIS
   @DF-RHF iter   7:  -285.71475210764515   -3.82175e-02   9.75764e-04 DIIS
   @DF-RHF iter   8:  -285.72163817063529   -6.88606e-03   3.83768e-04 DIIS
   @DF-RHF iter   9:  -285.72277723098728   -1.13906e-03   1.50443e-04 DIIS
   @DF-RHF iter  10:  -285.72297069375941   -1.93463e-04   3.05020e-05 DIIS
   @DF-RHF iter  11:  -285.72298178915389   -1.10954e-05   1.20963e-05 DIIS
   @DF-RHF iter  12:  -285.72298362103152   -1.83188e-06   5.69791e-06 DIIS
   @DF-RHF iter  13:  -285.72298417739239   -5.56361e-07   1.76085e-06 DIIS
   @DF-RHF iter  14:  -285.72298427203214   -9.46397e-08   8.25720e-07 DIIS

  ==> Post-Iterations <==

    Orbital Energies (a.u.)
    -----------------------

    Doubly Occupied:                                                      

       1A    -15.541263     2A    -11.257896     3A    -11.227236  
       4A    -11.226176     5A    -11.223775     6A    -11.221804  
       7A    -11.219614     8A     -1.210445     9A     -1.124940  
      10A     -1.009712    11A     -0.982629    12A     -0.823332  
      13A     -0.807555    14A     -0.701647    15A     -0.669316  
      16A     -0.649194    17A     -0.623070    18A     -0.592340  
      19A     -0.579593    20A     -0.506308    21A     -0.495368  
      22A     -0.489114    23A     -0.399719    24A     -0.329453  
      25A     -0.318126  

    Virtual:                                                              

      26A      0.149105    27A      0.153852    28A      0.239559  
      29A      0.245189    30A      0.295682    31A      0.309506  
      32A      0.315988    33A      0.339168    34A      0.346909  
      35A      0.390451    36A      0.453619    37A      0.486074  
      38A      0.495171    39A      0.539045    40A      0.564646  
      41A      0.679968    42A      0.746212    43A      0.758340  
      44A      0.761466    45A      0.787306    46A      0.825723  
      47A      0.831685    48A      0.837705    49A      0.844842  
      50A      0.847791    51A      0.853674    52A      0.896067  
      53A      0.916405    54A      0.930051    55A      0.999197  
      56A      1.016649    57A      1.038291    58A      1.098448  
      59A      1.118310    60A      1.121100    61A      1.133752  
      62A      1.138941    63A      1.174632    64A      1.200575  
      65A      1.215902    66A      1.235341    67A      1.239025  
      68A      1.277944    69A      1.303009    70A      1.358863  
      71A      1.377090    72A      1.456917    73A      1.463217  
      74A      1.517353    75A      1.600001    76A      1.681644  
      77A      1.719149    78A      1.730861    79A      1.753602  
      80A      1.776375    81A      1.788615    82A      1.803908  
      83A      2.094342    84A      2.102864    85A      2.145794  
      86A      2.191004    87A      2.217009    88A      2.232350  
      89A      2.299660    90A      2.330738    91A      2.406789  
      92A      2.421594    93A      2.458510    94A      2.471989  
      95A      2.511526    96A      2.543787    97A      2.622700  
      98A      2.643708    99A      2.659235   100A      2.704898  
     101A      2.819905   102A      2.914440   103A      2.923056  
     104A      2.954080   105A      3.040897   106A      3.099753  
     107A      3.106695   108A      3.118014   109A      3.206935  
     110A      3.254556   111A      3.484503   112A      3.841848  
     113A      4.283361   114A      4.531566   115A      4.552103  
     116A      4.567492   117A      4.766364   118A      4.793997  
     119A      5.139095  

    Final Occupation by Irrep:
              A 
    DOCC [    25 ]

  Energy converged.

  @DF-RHF Final Energy:  -285.72298427203214

   => Energetics <=

    Nuclear Repulsion Energy =            272.9713616087734636
    One-Electron Energy =                -926.9294540289323550
    Two-Electron Energy =                 368.2351081481273809
    DFT Exchange-Correlation Energy =       0.0000000000000000
    Empirical Dispersion Energy =           0.0000000000000000
    PCM Polarization Energy =               0.0000000000000000
    EFP Energy =                            0.0000000000000000
    Total Energy =                       -285.7229842720315105

    Alert: EFP and PCM quantities not currently incorporated into SCF psivars.

Properties will be evaluated at   0.000000,   0.000000,   0.000000 Bohr
  ==> Properties <==


Properties computed using the SCF density matrix

  Nuclear Dipole Moment: (a.u.)
     X:     0.6606      Y:     0.1022      Z:     0.6554

  Electronic Dipole Moment: (a.u.)
     X:    -0.5790      Y:     0.0345      Z:    -0.2021

  Dipole Moment: (a.u.)
     X:     0.0816      Y:     0.1367      Z:     0.4532     Total:     0.4804

  Dipole Moment: (Debye)
     X:     0.2075      Y:     0.3473      Z:     1.1520     Total:     1.2209


  Saving occupied orbitals to File 180.

*** tstop() called on cx1-1-2-1.cx1.hpc.ic.ac.uk at Tue Jul  5 16:28:50 2016
Module time:
	user time   =       7.66 seconds =       0.13 minutes
	system time =       0.04 seconds =       0.00 minutes
	total time  =          8 seconds =       0.13 minutes
Total time:
	user time   =       7.66 seconds =       0.13 minutes
	system time =       0.04 seconds =       0.00 minutes
	total time  =          8 seconds =       0.13 minutes


Properties will be evaluated at   0.000000,   0.000000,   0.000000 Bohr

Properties computed using the  density matrix

  Nuclear Dipole Moment: (a.u.)
     X:     0.6606      Y:     0.1022      Z:     0.6554

  Electronic Dipole Moment: (a.u.)
     X:    -0.5790      Y:     0.0345      Z:    -0.2021

  Dipole Moment: (a.u.)
     X:     0.0816      Y:     0.1367      Z:     0.4532     Total:     0.4804

  Dipole Moment: (Debye)
     X:     0.2075      Y:     0.3473      Z:     1.1520     Total:     1.2209

  Quadrupole Moment: (Debye Ang)
    XX:   -36.7047     YY:   -43.7240     ZZ:   -37.8743
    XY:     1.0529     XZ:     3.8607     YZ:    -0.7759

  Traceless Quadrupole Moment: (Debye Ang)
    XX:     2.7296     YY:    -4.2897     ZZ:     1.5600
    XY:     1.0529     XZ:     3.8607     YZ:    -0.7759

  Mulliken Charges: (a.u.)
   Center  Symbol    Alpha    Beta     Spin     Total
       1     H     0.32204  0.32204  0.00000  0.35592
       2     N     3.95341  3.95341  0.00000 -0.90681
       3     C     2.88998  2.88998  0.00000  0.22003
       4     H     0.32095  0.32095  0.00000  0.35810
       5     C     3.09989  3.09989  0.00000 -0.19977
       6     C     3.11036  3.11036  0.00000 -0.22072
       7     H     0.39483  0.39483  0.00000  0.21033
       8     C     3.10030  3.10030  0.00000 -0.20059
       9     H     0.40325  0.40325  0.00000  0.19350
      10     C     3.09968  3.09968  0.00000 -0.19937
      11     H     0.40089  0.40089  0.00000  0.19822
      12     C     3.10261  3.10261  0.00000 -0.20522
      13     H     0.40186  0.40186  0.00000  0.19627
      14     H     0.39994  0.39994  0.00000  0.20012

   Total alpha = 25.00000, Total beta = 25.00000, Total charge =  0.00000


*** PSI4 exiting successfully. Buy a developer a beer!
