    -----------------------------------------------------------------------
          Psi4: An Open-Source Ab Initio Electronic Structure Package
                              Psi4 (no tag) Driver

                          Git: Rev {detached?}  

    J. M. Turney, A. C. Simmonett, R. M. Parrish, E. G. Hohenstein,
    F. A. Evangelista, J. T. Fermann, B. J. Mintz, L. A. Burns, J. J. Wilke,
    M. L. Abrams, N. J. Russ, M. L. Leininger, C. L. Janssen, E. T. Seidl,
    W. D. Allen, H. F. Schaefer, R. A. King, E. F. Valeev, C. D. Sherrill,
    and T. D. Crawford, WIREs Comput. Mol. Sci. 2, 556-565 (2012)
    (doi: 10.1002/wcms.93)

                         Additional Contributions by
    A. E. DePrince, M. Saitow, U. Bozkaya, A. Yu. Sokolov
    -----------------------------------------------------------------------


    Psi4 started on: Tue Jul  5 16:44:17 2016

    Process ID:  23936
    PSI4DATADIR: /export131/home/mjharvey/miniconda3/share
    Memory level set to 256.000 MB

  ==> Input File <==

--------------------------------------------------------------------------
set {
	reference rhf
	basis 6-31G*
}


set_num_threads( 1 )
memory 2 gb

molecule MOL {
0 1

H	 -1.731265	 -0.912134	 0.385567
O	 -2.035884	 -0.060112	 0.102722
C	 -0.955155	 0.788182	 -0.092531
C	 0.353668	 0.040312	 -0.004810
H	 -0.985057	 1.290372	 -1.054184
H	 -0.974469	 1.533190	 0.688632
F	 0.548315	 -0.418436	 1.226545
F	 0.348852	 -0.998654	 -0.824399
F	 1.388009	 0.795454	 -0.313761

	symmetry c1
}
set optking {
	frozen_dihedral = ("
		7 4 3 5
	")
}

ee = energy('scf')
oeprop('DIPOLE', 'QUADRUPOLE', 'MULLIKEN_CHARGES')
f=open( 'psi4out.xyz', 'w' )
f.write( "9  " )
f.write( str(ee) + "\n" )
f.write( MOL.save_string_xyz() )
f.close()
--------------------------------------------------------------------------

  Memory set to   2.000 GiB by Python script.

*** tstart() called on cx1-3-2-1.cx1.hpc.ic.ac.uk
*** at Tue Jul  5 16:44:18 2016


         ---------------------------------------------------------
                                   SCF
            by Justin Turney, Rob Parrish, and Andy Simmonett
                              RHF Reference
                        1 Threads,   2000 MiB Core
         ---------------------------------------------------------

  ==> Geometry <==

    Molecular point group: c1
    Full point group: C1

    Geometry (in Angstrom), charge = 0, multiplicity = 1:

       Center              X                  Y                   Z               Mass       
    ------------   -----------------  -----------------  -----------------  -----------------
           H         -1.730399005495    -0.903102581130     0.363827125425     1.007825032070
           O         -2.035018005495    -0.051080581130     0.080982125425    15.994914619560
           C         -0.954289005495     0.797213418870    -0.114270874575    12.000000000000
           C          0.354533994505     0.049343418870    -0.026549874575    12.000000000000
           H         -0.984191005495     1.299403418870    -1.075923874575     1.007825032070
           H         -0.973603005495     1.542221418870     0.666892125425     1.007825032070
           F          0.549180994505    -0.409404581130     1.204805125425    18.998403224000
           F          0.349717994505    -0.989622581130    -0.846138874575    18.998403224000
           F          1.388874994505     0.804485418870    -0.335500874575    18.998403224000

  Running in c1 symmetry.

  Rotational constants: A =      0.18355  B =      0.09710  C =      0.09618 [cm^-1]
  Rotational constants: A =   5502.66166  B =   2910.97396  C =   2883.28416 [MHz]
  Nuclear repulsion =  277.971413302145834

  Charge       = 0
  Multiplicity = 1
  Electrons    = 50
  Nalpha       = 25
  Nbeta        = 25

  ==> Algorithm <==

  SCF Algorithm Type is DF.
  DIIS enabled.
  MOM disabled.
  Fractional occupation disabled.
  Guess Type is CORE.
  Energy threshold   = 1.00e-06
  Density threshold  = 1.00e-06
  Integral threshold = 0.00e+00

  ==> Primary Basis <==

  Basis Set: 6-31G*
    Number of shells: 42
    Number of basis function: 96
    Number of Cartesian functions: 96
    Spherical Harmonics?: false
    Max angular momentum: 2

  ==> Pre-Iterations <==

   -------------------------------------------------------
    Irrep   Nso     Nmo     Nalpha   Nbeta   Ndocc  Nsocc
   -------------------------------------------------------
     A         96      96       0       0       0       0
   -------------------------------------------------------
    Total      96      96      25      25      25       0
   -------------------------------------------------------

 OEINTS: Overlap, kinetic, potential, dipole, and quadrupole integrals
         stored in file 35.

  ==> Integral Setup <==

  ==> DFJK: Density-Fitted J/K Matrices <==

    J tasked:                  Yes
    K tasked:                  Yes
    wK tasked:                  No
    OpenMP threads:              1
    Integrals threads:           1
    Memory (MB):              1430
    Algorithm:                Core
    Integral Cache:           NONE
    Schwarz Cutoff:          1E-12
    Fitting Condition:       1E-12

   => Auxiliary Basis Set <=

  Basis Set: 
    Number of shells: 171
    Number of basis function: 561
    Number of Cartesian functions: 561
    Spherical Harmonics?: false
    Max angular momentum: 3

  Minimum eigenvalue in the overlap matrix is 1.9449810293E-03.
  Using Symmetric Orthogonalization.
  SCF Guess: Core (One-Electron) Hamiltonian.

  ==> Iterations <==

                           Total Energy        Delta E     RMS |[F,P]|

   @DF-RHF iter   1:  -401.56303945861293   -4.01563e+02   8.79912e-02 
   @DF-RHF iter   2:  -285.41425186439335    1.16149e+02   9.20802e-02 DIIS
   @DF-RHF iter   3:  -395.93490539229219   -1.10521e+02   6.61625e-02 DIIS
   @DF-RHF iter   4:  -449.66515292609995   -5.37302e+01   1.67031e-02 DIIS
   @DF-RHF iter   5:  -450.46285263174730   -7.97700e-01   8.15539e-03 DIIS
   @DF-RHF iter   6:  -450.62981297300519   -1.66960e-01   2.46912e-03 DIIS
   @DF-RHF iter   7:  -450.65133843666979   -2.15255e-02   1.02980e-03 DIIS
   @DF-RHF iter   8:  -450.65663750397698   -5.29907e-03   2.23699e-04 DIIS
   @DF-RHF iter   9:  -450.65694437704099   -3.06873e-04   8.54879e-05 DIIS
   @DF-RHF iter  10:  -450.65697421594643   -2.98389e-05   2.74296e-05 DIIS
   @DF-RHF iter  11:  -450.65697987673377   -5.66079e-06   5.81030e-06 DIIS
   @DF-RHF iter  12:  -450.65698021465437   -3.37921e-07   2.01507e-06 DIIS
   @DF-RHF iter  13:  -450.65698023732864   -2.26743e-08   3.71358e-07 DIIS

  ==> Post-Iterations <==

    Orbital Energies (a.u.)
    -----------------------

    Doubly Occupied:                                                      

       1A    -26.352252     2A    -26.350597     3A    -26.349178  
       4A    -20.586773     5A    -11.509536     6A    -11.308999  
       7A     -1.749169     8A     -1.648134     9A     -1.645100  
      10A     -1.401298    11A     -1.050793    12A     -0.929667  
      13A     -0.838979    14A     -0.838117    15A     -0.816109  
      16A     -0.723215    17A     -0.719902    18A     -0.680381  
      19A     -0.674627    20A     -0.671870    21A     -0.651593  
      22A     -0.644067    23A     -0.621872    24A     -0.525888  
      25A     -0.475657  

    Virtual:                                                              

      26A      0.230240    27A      0.259204    28A      0.291730  
      29A      0.339868    30A      0.408534    31A      0.417181  
      32A      0.464555    33A      0.476549    34A      0.691990  
      35A      0.734373    36A      0.757392    37A      0.779355  
      38A      0.818693    39A      0.892331    40A      0.970731  
      41A      1.070384    42A      1.101714    43A      1.150379  
      44A      1.201920    45A      1.237241    46A      1.301816  
      47A      1.334052    48A      1.350911    49A      1.370419  
      50A      1.451471    51A      1.466983    52A      1.497678  
      53A      1.600465    54A      1.613515    55A      1.628692  
      56A      1.661960    57A      1.672676    58A      1.677382  
      59A      1.760244    60A      1.895312    61A      1.916956  
      62A      1.943483    63A      1.964395    64A      2.011492  
      65A      2.107529    66A      2.118383    67A      2.133474  
      68A      2.147176    69A      2.259952    70A      2.280566  
      71A      2.298735    72A      2.359963    73A      2.382646  
      74A      2.403314    75A      2.414427    76A      2.444771  
      77A      2.494510    78A      2.576821    79A      2.663278  
      80A      2.697666    81A      2.771057    82A      2.837423  
      83A      2.910186    84A      3.104968    85A      3.126287  
      86A      3.185024    87A      3.266101    88A      3.408025  
      89A      3.412438    90A      3.449659    91A      4.172806  
      92A      4.602623    93A      4.724171    94A      4.896531  
      95A      5.118123    96A      5.689996  

    Final Occupation by Irrep:
              A 
    DOCC [    25 ]

  Energy converged.

  @DF-RHF Final Energy:  -450.65698023732864

   => Energetics <=

    Nuclear Repulsion Energy =            277.9714133021458338
    One-Electron Energy =               -1177.7291917236921108
    Two-Electron Energy =                 449.1007981842179788
    DFT Exchange-Correlation Energy =       0.0000000000000000
    Empirical Dispersion Energy =           0.0000000000000000
    PCM Polarization Energy =               0.0000000000000000
    EFP Energy =                            0.0000000000000000
    Total Energy =                       -450.6569802373282982

    Alert: EFP and PCM quantities not currently incorporated into SCF psivars.

Properties will be evaluated at   0.000000,   0.000000,   0.000000 Bohr
  ==> Properties <==


Properties computed using the SCF density matrix

  Nuclear Dipole Moment: (a.u.)
     X:    -5.6255      Y:     2.3779      Z:    -0.0638

  Electronic Dipole Moment: (a.u.)
     X:     5.6289      Y:    -2.1914      Z:     0.1077

  Dipole Moment: (a.u.)
     X:     0.0034      Y:     0.1865      Z:     0.0438     Total:     0.1916

  Dipole Moment: (Debye)
     X:     0.0085      Y:     0.4740      Z:     0.1114     Total:     0.4870


  Saving occupied orbitals to File 180.

*** tstop() called on cx1-3-2-1.cx1.hpc.ic.ac.uk at Tue Jul  5 16:44:22 2016
Module time:
	user time   =       3.79 seconds =       0.06 minutes
	system time =       0.04 seconds =       0.00 minutes
	total time  =          4 seconds =       0.07 minutes
Total time:
	user time   =       3.79 seconds =       0.06 minutes
	system time =       0.04 seconds =       0.00 minutes
	total time  =          4 seconds =       0.07 minutes


Properties will be evaluated at   0.000000,   0.000000,   0.000000 Bohr

Properties computed using the  density matrix

  Nuclear Dipole Moment: (a.u.)
     X:    -5.6255      Y:     2.3779      Z:    -0.0638

  Electronic Dipole Moment: (a.u.)
     X:     5.6289      Y:    -2.1914      Z:     0.1077

  Dipole Moment: (a.u.)
     X:     0.0034      Y:     0.1865      Z:     0.0438     Total:     0.1916

  Dipole Moment: (Debye)
     X:     0.0085      Y:     0.4740      Z:     0.1114     Total:     0.4870

  Quadrupole Moment: (Debye Ang)
    XX:   -38.2464     YY:   -29.6978     ZZ:   -32.8416
    XY:     0.5145     XZ:    -0.4321     YZ:    -1.0382

  Traceless Quadrupole Moment: (Debye Ang)
    XX:    -4.6511     YY:     3.8975     ZZ:     0.7537
    XY:     0.5145     XZ:    -0.4321     YZ:    -1.0382

  Mulliken Charges: (a.u.)
   Center  Symbol    Alpha    Beta     Spin     Total
       1     H     0.27013  0.27013  0.00000  0.45974
       2     O     4.36930  4.36930  0.00000 -0.73859
       3     C     3.02305  3.02305  0.00000 -0.04609
       4     C     2.48933  2.48933  0.00000  1.02133
       5     H     0.40392  0.40392  0.00000  0.19216
       6     H     0.40588  0.40588  0.00000  0.18824
       7     F     4.68249  4.68249  0.00000 -0.36499
       8     F     4.67953  4.67953  0.00000 -0.35906
       9     F     4.67637  4.67637  0.00000 -0.35274

   Total alpha = 25.00000, Total beta = 25.00000, Total charge = -0.00000


*** PSI4 exiting successfully. Buy a developer a beer!
