    -----------------------------------------------------------------------
          Psi4: An Open-Source Ab Initio Electronic Structure Package
                              Psi4 (no tag) Driver

                          Git: Rev {detached?}  

    J. M. Turney, A. C. Simmonett, R. M. Parrish, E. G. Hohenstein,
    F. A. Evangelista, J. T. Fermann, B. J. Mintz, L. A. Burns, J. J. Wilke,
    M. L. Abrams, N. J. Russ, M. L. Leininger, C. L. Janssen, E. T. Seidl,
    W. D. Allen, H. F. Schaefer, R. A. King, E. F. Valeev, C. D. Sherrill,
    and T. D. Crawford, WIREs Comput. Mol. Sci. 2, 556-565 (2012)
    (doi: 10.1002/wcms.93)

                         Additional Contributions by
    A. E. DePrince, M. Saitow, U. Bozkaya, A. Yu. Sokolov
    -----------------------------------------------------------------------


    Psi4 started on: Tue Jul  5 16:33:24 2016

    Process ID:  21862
    PSI4DATADIR: /export131/home/mjharvey/miniconda3/share
    Memory level set to 256.000 MB

  ==> Input File <==

--------------------------------------------------------------------------
set {
	reference rhf
	basis 6-31G*
}


set_num_threads( 1 )
memory 2 gb

molecule MOL {
0 1

H	 -2.698806	 -0.000305	 0.034376
C	 -1.693930	 0.000034	 0.434358
O	 -0.829049	 -0.000968	 -0.659295
H	 -1.574297	 0.882896	 1.055687
H	 -1.574244	 -0.881698	 1.057296
C	 0.559352	 -0.000018	 -0.420873
C	 1.030917	 1.269237	 0.285905
C	 1.032808	 -1.268335	 0.286354
H	 0.980660	 0.000117	 -1.419137
H	 0.635137	 2.147035	 -0.213472
H	 2.114741	 1.324967	 0.264570
H	 0.723406	 1.298651	 1.326451
H	 0.637763	 -2.146858	 -0.212238
H	 2.116783	 -1.322882	 0.264269
H	 0.726139	 -1.297501	 1.327000

	symmetry c1
}
ee = energy('scf')
oeprop('DIPOLE', 'QUADRUPOLE', 'MULLIKEN_CHARGES')
oeprop('GRID_ESP')
f=open( 'psi4out.xyz', 'w' )
f.write( "15  " )
f.write( str(ee) + "\n" )
f.write( MOL.save_string_xyz() )
f.close()
--------------------------------------------------------------------------

  Memory set to   2.000 GiB by Python script.

*** tstart() called on cx1-3-4-2.cx1.hpc.ic.ac.uk
*** at Tue Jul  5 16:33:24 2016


         ---------------------------------------------------------
                                   SCF
            by Justin Turney, Rob Parrish, and Andy Simmonett
                              RHF Reference
                        1 Threads,   2000 MiB Core
         ---------------------------------------------------------

  ==> Geometry <==

    Molecular point group: c1
    Full point group: C1

    Geometry (in Angstrom), charge = 0, multiplicity = 1:

       Center              X                  Y                   Z               Mass       
    ------------   -----------------  -----------------  -----------------  -----------------
           H         -2.698708948364    -0.000304858585     0.034434976104     1.007825032070
           C         -1.693832948364     0.000034141415     0.434416976104    12.000000000000
           O         -0.828951948364    -0.000967858585    -0.659236023896    15.994914619560
           H         -1.574199948364     0.882896141415     1.055745976104     1.007825032070
           H         -1.574146948364    -0.881697858585     1.057354976104     1.007825032070
           C          0.559449051636    -0.000017858585    -0.420814023896    12.000000000000
           C          1.031014051636     1.269237141415     0.285963976104    12.000000000000
           C          1.032905051636    -1.268334858585     0.286412976104    12.000000000000
           H          0.980757051636     0.000117141415    -1.419078023896     1.007825032070
           H          0.635234051636     2.147035141415    -0.213413023896     1.007825032070
           H          2.114838051636     1.324967141415     0.264628976104     1.007825032070
           H          0.723503051636     1.298651141415     1.326509976104     1.007825032070
           H          0.637860051636    -2.146857858585    -0.212179023896     1.007825032070
           H          2.116880051636    -1.322881858585     0.264327976104     1.007825032070
           H          0.726236051636    -1.297500858585     1.327058976104     1.007825032070

  Running in c1 symmetry.

  Rotational constants: A =      0.21686  B =      0.14012  C =      0.10846 [cm^-1]
  Rotational constants: A =   6501.29864  B =   4200.77572  C =   3251.67791 [MHz]
  Nuclear repulsion =  198.770224499292567

  Charge       = 0
  Multiplicity = 1
  Electrons    = 42
  Nalpha       = 21
  Nbeta        = 21

  ==> Algorithm <==

  SCF Algorithm Type is DF.
  DIIS enabled.
  MOM disabled.
  Fractional occupation disabled.
  Guess Type is CORE.
  Energy threshold   = 1.00e-06
  Density threshold  = 1.00e-06
  Integral threshold = 0.00e+00

  ==> Primary Basis <==

  Basis Set: 6-31G*
    Number of shells: 50
    Number of basis function: 95
    Number of Cartesian functions: 95
    Spherical Harmonics?: false
    Max angular momentum: 2

  ==> Pre-Iterations <==

   -------------------------------------------------------
    Irrep   Nso     Nmo     Nalpha   Nbeta   Ndocc  Nsocc
   -------------------------------------------------------
     A         95      95       0       0       0       0
   -------------------------------------------------------
    Total      95      95      21      21      21       0
   -------------------------------------------------------

 OEINTS: Overlap, kinetic, potential, dipole, and quadrupole integrals
         stored in file 35.

  ==> Integral Setup <==

  ==> DFJK: Density-Fitted J/K Matrices <==

    J tasked:                  Yes
    K tasked:                  Yes
    wK tasked:                  No
    OpenMP threads:              1
    Integrals threads:           1
    Memory (MB):              1430
    Algorithm:                Core
    Integral Cache:           NONE
    Schwarz Cutoff:          1E-12
    Fitting Condition:       1E-12

   => Auxiliary Basis Set <=

  Basis Set: 
    Number of shells: 210
    Number of basis function: 655
    Number of Cartesian functions: 655
    Spherical Harmonics?: false
    Max angular momentum: 3

  Minimum eigenvalue in the overlap matrix is 4.2137159398E-03.
  Using Symmetric Orthogonalization.
  SCF Guess: Core (One-Electron) Hamiltonian.

  ==> Iterations <==

                           Total Energy        Delta E     RMS |[F,P]|

   @DF-RHF iter   1:  -181.11008326729723   -1.81110e+02   8.58629e-02 
   @DF-RHF iter   2:  -186.17427456809503   -5.06419e+00   4.85081e-02 DIIS
   @DF-RHF iter   3:  -190.85735210998490   -4.68308e+00   7.53548e-02 DIIS
   @DF-RHF iter   4:  -219.30350156262176   -2.84461e+01   4.64141e-02 DIIS
   @DF-RHF iter   5:  -227.34332013259348   -8.03982e+00   3.17044e-02 DIIS
   @DF-RHF iter   6:  -230.19585034988631   -2.85253e+00   2.00201e-02 DIIS
   @DF-RHF iter   7:  -231.61474336359856   -1.41889e+00   1.01803e-02 DIIS
   @DF-RHF iter   8:  -232.09161553206178   -4.76872e-01   2.77140e-03 DIIS
   @DF-RHF iter   9:  -232.13467527808081   -4.30597e-02   6.63844e-04 DIIS
   @DF-RHF iter  10:  -232.13755221170413   -2.87693e-03   1.45788e-04 DIIS
   @DF-RHF iter  11:  -232.13774672531042   -1.94514e-04   6.24652e-05 DIIS
   @DF-RHF iter  12:  -232.13777151670894   -2.47914e-05   1.43820e-05 DIIS
   @DF-RHF iter  13:  -232.13777385567602   -2.33897e-06   4.03539e-06 DIIS
   @DF-RHF iter  14:  -232.13777396876907   -1.13093e-07   1.08516e-06 DIIS
   @DF-RHF iter  15:  -232.13777397671885   -7.94978e-09   3.21515e-07 DIIS

  ==> Post-Iterations <==

    Orbital Energies (a.u.)
    -----------------------

    Doubly Occupied:                                                      

       1A    -20.548446     2A    -11.274302     3A    -11.260986  
       4A    -11.210543     5A    -11.210515     6A     -1.370486  
       7A     -1.050522     8A     -0.939565     9A     -0.931319  
      10A     -0.781263    11A     -0.674131    12A     -0.640309  
      13A     -0.633558    14A     -0.572922    15A     -0.565558  
      16A     -0.552678    17A     -0.533937    18A     -0.497173  
      19A     -0.496830    20A     -0.443106    21A     -0.406751  

    Virtual:                                                              

      22A      0.224219    23A      0.272612    24A      0.282212  
      25A      0.292934    26A      0.309929    27A      0.322938  
      28A      0.337785    29A      0.342534    30A      0.347653  
      31A      0.348993    32A      0.379242    33A      0.402330  
      34A      0.454966    35A      0.459407    36A      0.702516  
      37A      0.725848    38A      0.736564    39A      0.769637  
      40A      0.787328    41A      0.821303    42A      0.854091  
      43A      0.897160    44A      0.962980    45A      0.974821  
      46A      1.005789    47A      1.035971    48A      1.111576  
      49A      1.148516    50A      1.159726    51A      1.174046  
      52A      1.174686    53A      1.187929    54A      1.196091  
      55A      1.199011    56A      1.236446    57A      1.269065  
      58A      1.271314    59A      1.282472    60A      1.444466  
      61A      1.452342    62A      1.600370    63A      1.606153  
      64A      1.669400    65A      1.690199    66A      1.840246  
      67A      1.921776    68A      1.945010    69A      2.060158  
      70A      2.071708    71A      2.115720    72A      2.213217  
      73A      2.240169    74A      2.339617    75A      2.413521  
      76A      2.448923    77A      2.456520    78A      2.515174  
      79A      2.567366    80A      2.573618    81A      2.609819  
      82A      2.613416    83A      2.696659    84A      2.772524  
      85A      2.818610    86A      2.883071    87A      2.964878  
      88A      3.126219    89A      3.208228    90A      3.301877  
      91A      4.375227    92A      4.625136    93A      4.688610  
      94A      4.716579    95A      4.971080  

    Final Occupation by Irrep:
              A 
    DOCC [    21 ]

  Energy converged.

  @DF-RHF Final Energy:  -232.13777397671885

   => Energetics <=

    Nuclear Repulsion Energy =            198.7702244992925671
    One-Electron Energy =                -708.6261421911277694
    Two-Electron Energy =                 277.7181437151167529
    DFT Exchange-Correlation Energy =       0.0000000000000000
    Empirical Dispersion Energy =           0.0000000000000000
    PCM Polarization Energy =               0.0000000000000000
    EFP Energy =                            0.0000000000000000
    Total Energy =                       -232.1377739767184494

    Alert: EFP and PCM quantities not currently incorporated into SCF psivars.

Properties will be evaluated at   0.000000,   0.000000,   0.000000 Bohr
  ==> Properties <==


Properties computed using the SCF density matrix

  Nuclear Dipole Moment: (a.u.)
     X:     1.9537      Y:     0.0041      Z:     3.2643

  Electronic Dipole Moment: (a.u.)
     X:    -1.7268      Y:    -0.0033      Z:    -2.7605

  Dipole Moment: (a.u.)
     X:     0.2269      Y:     0.0008      Z:     0.5038     Total:     0.5525

  Dipole Moment: (Debye)
     X:     0.5768      Y:     0.0021      Z:     1.2804     Total:     1.4044


  Saving occupied orbitals to File 180.

*** tstop() called on cx1-3-4-2.cx1.hpc.ic.ac.uk at Tue Jul  5 16:33:30 2016
Module time:
	user time   =       5.91 seconds =       0.10 minutes
	system time =       0.04 seconds =       0.00 minutes
	total time  =          6 seconds =       0.10 minutes
Total time:
	user time   =       5.91 seconds =       0.10 minutes
	system time =       0.04 seconds =       0.00 minutes
	total time  =          6 seconds =       0.10 minutes


Properties will be evaluated at   0.000000,   0.000000,   0.000000 Bohr

Properties computed using the  density matrix

  Nuclear Dipole Moment: (a.u.)
     X:     1.9537      Y:     0.0041      Z:     3.2643

  Electronic Dipole Moment: (a.u.)
     X:    -1.7268      Y:    -0.0033      Z:    -2.7605

  Dipole Moment: (a.u.)
     X:     0.2269      Y:     0.0008      Z:     0.5038     Total:     0.5525

  Dipole Moment: (Debye)
     X:     0.5768      Y:     0.0021      Z:     1.2804     Total:     1.4044

  Quadrupole Moment: (Debye Ang)
    XX:   -31.4072     YY:   -33.5012     ZZ:   -34.1901
    XY:    -0.0021     XZ:    -2.4331     YZ:    -0.0020

  Traceless Quadrupole Moment: (Debye Ang)
    XX:     1.6256     YY:    -0.4683     ZZ:    -1.1573
    XY:    -0.0021     XZ:    -2.4331     YZ:    -0.0020

  Mulliken Charges: (a.u.)
   Center  Symbol    Alpha    Beta     Spin     Total
       1     H     0.41258  0.41258  0.00000  0.17484
       2     C     3.08201  3.08201  0.00000 -0.16401
       3     O     4.31180  4.31180  0.00000 -0.62360
       4     H     0.42929  0.42929  0.00000  0.14141
       5     H     0.42930  0.42930  0.00000  0.14139
       6     C     2.90862  2.90862  0.00000  0.18276
       7     C     3.25353  3.25353  0.00000 -0.50705
       8     C     3.25349  3.25349  0.00000 -0.50699
       9     H     0.41512  0.41512  0.00000  0.16976
      10     H     0.41143  0.41143  0.00000  0.17714
      11     H     0.41930  0.41930  0.00000  0.16140
      12     H     0.42139  0.42139  0.00000  0.15721
      13     H     0.41142  0.41142  0.00000  0.17716
      14     H     0.41933  0.41933  0.00000  0.16135
      15     H     0.42138  0.42138  0.00000  0.15723

   Total alpha = 21.00000, Total beta = 21.00000, Total charge = -0.00000



Properties will be evaluated at   0.000000,   0.000000,   0.000000 Bohr

Properties computed using the  density matrix


 Electrostatic potential computed on the grid and written to grid_esp.dat

*** PSI4 exiting successfully. Buy a developer a beer!
