    -----------------------------------------------------------------------
          Psi4: An Open-Source Ab Initio Electronic Structure Package
                              Psi4 (no tag) Driver

                          Git: Rev {detached?}  

    J. M. Turney, A. C. Simmonett, R. M. Parrish, E. G. Hohenstein,
    F. A. Evangelista, J. T. Fermann, B. J. Mintz, L. A. Burns, J. J. Wilke,
    M. L. Abrams, N. J. Russ, M. L. Leininger, C. L. Janssen, E. T. Seidl,
    W. D. Allen, H. F. Schaefer, R. A. King, E. F. Valeev, C. D. Sherrill,
    and T. D. Crawford, WIREs Comput. Mol. Sci. 2, 556-565 (2012)
    (doi: 10.1002/wcms.93)

                         Additional Contributions by
    A. E. DePrince, M. Saitow, U. Bozkaya, A. Yu. Sokolov
    -----------------------------------------------------------------------


    Psi4 started on: Tue Jul  5 16:27:36 2016

    Process ID:  27931
    PSI4DATADIR: /export131/home/mjharvey/miniconda3/share
    Memory level set to 256.000 MB

  ==> Input File <==

--------------------------------------------------------------------------
set {
	reference rhf
	basis 6-31G*
}


set_num_threads( 1 )
memory 2 gb

molecule MOL {
0 1

H	 -2.431244	 2.344052	 0.919368
O	 -1.743603	 1.747771	 0.659554
C	 -2.306886	 0.532354	 0.237577
C	 -1.177863	 -0.397191	 -0.171080
H	 -2.889558	 0.081238	 1.039633
H	 -2.979954	 0.693546	 -0.603456
C	 0.198102	 0.111031	 0.262842
H	 -1.208843	 -0.518759	 -1.250427
H	 -1.368741	 -1.376554	 0.258909
C	 1.331804	 -0.827780	 -0.158768
H	 0.361943	 1.100838	 -0.156218
H	 0.217265	 0.229072	 1.345532
C	 2.723619	 -0.410569	 0.329459
H	 1.342964	 -0.912588	 -1.244120
H	 1.116806	 -1.824343	 0.220779
C	 3.243875	 0.895854	 -0.272975
H	 3.424222	 -1.207124	 0.091250
H	 2.714788	 -0.329854	 1.414619
H	 3.251977	 0.848779	 -1.358681
H	 2.637085	 1.747371	 0.016682
H	 4.259473	 1.094070	 0.055697

	symmetry c1
}
set optking {
	frozen_dihedral = ("
		8 4 7 10,
		4 7 10 14,
		16 13 10 14,
		1 2 3 5
	")
}

ee = energy('scf')
oeprop('DIPOLE', 'QUADRUPOLE', 'MULLIKEN_CHARGES')
f=open( 'psi4out.xyz', 'w' )
f.write( "21  " )
f.write( str(ee) + "\n" )
f.write( MOL.save_string_xyz() )
f.close()
--------------------------------------------------------------------------

  Memory set to   2.000 GiB by Python script.

*** tstart() called on cx1-3-2-3.cx1.hpc.ic.ac.uk
*** at Tue Jul  5 16:27:36 2016


         ---------------------------------------------------------
                                   SCF
            by Justin Turney, Rob Parrish, and Andy Simmonett
                              RHF Reference
                        1 Threads,   2000 MiB Core
         ---------------------------------------------------------

  ==> Geometry <==

    Molecular point group: c1
    Full point group: C1

    Geometry (in Angstrom), charge = 0, multiplicity = 1:

       Center              X                  Y                   Z               Mass       
    ------------   -----------------  -----------------  -----------------  -----------------
           H         -2.713085946561     2.062134914296     0.781963604478     1.007825032070
           O         -2.025444946561     1.465853914296     0.522149604478    15.994914619560
           C         -2.588727946561     0.250436914296     0.100172604478    12.000000000000
           C         -1.459704946561    -0.679108085704    -0.308484395522    12.000000000000
           H         -3.171399946561    -0.200679085704     0.902228604478     1.007825032070
           H         -3.261795946561     0.411628914296    -0.740860395522     1.007825032070
           C         -0.083739946561    -0.170886085704     0.125437604478    12.000000000000
           H         -1.490684946561    -0.800676085704    -1.387831395522     1.007825032070
           H         -1.650582946561    -1.658471085704     0.121504604478     1.007825032070
           C          1.049962053439    -1.109697085704    -0.296172395522    12.000000000000
           H          0.080101053439     0.818920914296    -0.293622395522     1.007825032070
           H         -0.064576946561    -0.052845085704     1.208127604478     1.007825032070
           C          2.441777053439    -0.692486085704     0.192054604478    12.000000000000
           H          1.061122053439    -1.194505085704    -1.381524395522     1.007825032070
           H          0.834964053439    -2.106260085704     0.083374604478     1.007825032070
           C          2.962033053439     0.613936914296    -0.410379395522    12.000000000000
           H          3.142380053439    -1.489041085704    -0.046154395522     1.007825032070
           H          2.432946053439    -0.611771085704     1.277214604478     1.007825032070
           H          2.970135053439     0.566861914296    -1.496085395522     1.007825032070
           H          2.355243053439     1.465453914296    -0.120722395522     1.007825032070
           H          3.977631053439     0.812152914296    -0.081707395522     1.007825032070

  Running in c1 symmetry.

  Rotational constants: A =      0.17756  B =      0.03575  C =      0.03157 [cm^-1]
  Rotational constants: A =   5323.14013  B =   1071.65287  C =    946.56576 [MHz]
  Nuclear repulsion =  320.525651510102762

  Charge       = 0
  Multiplicity = 1
  Electrons    = 58
  Nalpha       = 29
  Nbeta        = 29

  ==> Algorithm <==

  SCF Algorithm Type is DF.
  DIIS enabled.
  MOM disabled.
  Fractional occupation disabled.
  Guess Type is CORE.
  Energy threshold   = 1.00e-06
  Density threshold  = 1.00e-06
  Integral threshold = 0.00e+00

  ==> Primary Basis <==

  Basis Set: 6-31G*
    Number of shells: 70
    Number of basis function: 133
    Number of Cartesian functions: 133
    Spherical Harmonics?: false
    Max angular momentum: 2

  ==> Pre-Iterations <==

   -------------------------------------------------------
    Irrep   Nso     Nmo     Nalpha   Nbeta   Ndocc  Nsocc
   -------------------------------------------------------
     A        133     133       0       0       0       0
   -------------------------------------------------------
    Total     133     133      29      29      29       0
   -------------------------------------------------------

 OEINTS: Overlap, kinetic, potential, dipole, and quadrupole integrals
         stored in file 35.

  ==> Integral Setup <==

  ==> DFJK: Density-Fitted J/K Matrices <==

    J tasked:                  Yes
    K tasked:                  Yes
    wK tasked:                  No
    OpenMP threads:              1
    Integrals threads:           1
    Memory (MB):              1430
    Algorithm:                Core
    Integral Cache:           NONE
    Schwarz Cutoff:          1E-12
    Fitting Condition:       1E-12

   => Auxiliary Basis Set <=

  Basis Set: 
    Number of shells: 294
    Number of basis function: 917
    Number of Cartesian functions: 917
    Spherical Harmonics?: false
    Max angular momentum: 3

  Minimum eigenvalue in the overlap matrix is 2.9635372863E-03.
  Using Symmetric Orthogonalization.
  SCF Guess: Core (One-Electron) Hamiltonian.

  ==> Iterations <==

                           Total Energy        Delta E     RMS |[F,P]|

   @DF-RHF iter   1:  -240.40041049923786   -2.40400e+02   6.58180e-02 
   @DF-RHF iter   2:   -92.37856381689551    1.48022e+02   7.39288e-02 DIIS
   @DF-RHF iter   3:  -214.78748369679693   -1.22409e+02   5.83704e-02 DIIS
   @DF-RHF iter   4:  -251.92013417383714   -3.71327e+01   5.51133e-02 DIIS
   @DF-RHF iter   5:  -287.83530637369279   -3.59152e+01   3.16295e-02 DIIS
   @DF-RHF iter   6:  -309.80267394607847   -2.19674e+01   6.45266e-03 DIIS
   @DF-RHF iter   7:  -310.16323784540191   -3.60564e-01   2.11635e-03 DIIS
   @DF-RHF iter   8:  -310.19525802301166   -3.20202e-02   7.85358e-04 DIIS
   @DF-RHF iter   9:  -310.20256325317143   -7.30523e-03   2.40099e-04 DIIS
   @DF-RHF iter  10:  -310.20326723052779   -7.03977e-04   8.11274e-05 DIIS
   @DF-RHF iter  11:  -310.20335824534470   -9.10148e-05   2.67448e-05 DIIS
   @DF-RHF iter  12:  -310.20337046627617   -1.22209e-05   7.45560e-06 DIIS
   @DF-RHF iter  13:  -310.20337124370735   -7.77431e-07   2.09365e-06 DIIS
   @DF-RHF iter  14:  -310.20337130694350   -6.32361e-08   4.00247e-07 DIIS

  ==> Post-Iterations <==

    Orbital Energies (a.u.)
    -----------------------

    Doubly Occupied:                                                      

       1A    -20.552617     2A    -11.266984     3A    -11.209640  
       4A    -11.207907     5A    -11.204062     6A    -11.200853  
       7A    -11.200355     8A     -1.361256     9A     -1.076426  
      10A     -1.027224    11A     -0.951230    12A     -0.873445  
      13A     -0.797869    14A     -0.770064    15A     -0.697294  
      16A     -0.656751    17A     -0.615425    18A     -0.600629  
      19A     -0.582119    20A     -0.561992    21A     -0.531029  
      22A     -0.517032    23A     -0.496290    24A     -0.491471  
      25A     -0.481783    26A     -0.455387    27A     -0.443575  
      28A     -0.435811    29A     -0.421908  

    Virtual:                                                              

      30A      0.219921    31A      0.241795    32A      0.262515  
      33A      0.273194    34A      0.291846    35A      0.299176  
      36A      0.301350    37A      0.321428    38A      0.338373  
      39A      0.345987    40A      0.353723    41A      0.361707  
      42A      0.376979    43A      0.385985    44A      0.399486  
      45A      0.413925    46A      0.435628    47A      0.469929  
      48A      0.489036    49A      0.509810    50A      0.715524  
      51A      0.725387    52A      0.738215    53A      0.751996  
      54A      0.777559    55A      0.785980    56A      0.806324  
      57A      0.831478    58A      0.883559    59A      0.931431  
      60A      0.947807    61A      0.948338    62A      0.983127  
      63A      1.001771    64A      1.064888    65A      1.076083  
      66A      1.101087    67A      1.116245    68A      1.131190  
      69A      1.149241    70A      1.158946    71A      1.168865  
      72A      1.182007    73A      1.188933    74A      1.204800  
      75A      1.208698    76A      1.213115    77A      1.234398  
      78A      1.242956    79A      1.257856    80A      1.270898  
      81A      1.286209    82A      1.296423    83A      1.338835  
      84A      1.430392    85A      1.438331    86A      1.508928  
      87A      1.655203    88A      1.665468    89A      1.708311  
      90A      1.769938    91A      1.835087    92A      1.855438  
      93A      1.900432    94A      1.948495    95A      1.970339  
      96A      2.050883    97A      2.071770    98A      2.131938  
      99A      2.178221   100A      2.217584   101A      2.253781  
     102A      2.271497   103A      2.288483   104A      2.300411  
     105A      2.332395   106A      2.361055   107A      2.381349  
     108A      2.456675   109A      2.475939   110A      2.536796  
     111A      2.561388   112A      2.625443   113A      2.674755  
     114A      2.681856   115A      2.693036   116A      2.750733  
     117A      2.758657   118A      2.798628   119A      2.853177  
     120A      2.881772   121A      2.958237   122A      2.995336  
     123A      3.021513   124A      3.114130   125A      3.166289  
     126A      3.251329   127A      4.281609   128A      4.568613  
     129A      4.636579   130A      4.737637   131A      4.841778  
     132A      4.914980   133A      5.029303  

    Final Occupation by Irrep:
              A 
    DOCC [    29 ]

  Energy converged.

  @DF-RHF Final Energy:  -310.20337130694350

   => Energetics <=

    Nuclear Repulsion Energy =            320.5256515101027617
    One-Electron Energy =               -1056.0812044516128481
    Two-Electron Energy =                 425.3521816345672164
    DFT Exchange-Correlation Energy =       0.0000000000000000
    Empirical Dispersion Energy =           0.0000000000000000
    PCM Polarization Energy =               0.0000000000000000
    EFP Energy =                            0.0000000000000000
    Total Energy =                       -310.2033713069428700

    Alert: EFP and PCM quantities not currently incorporated into SCF psivars.

Properties will be evaluated at   0.000000,   0.000000,   0.000000 Bohr
  ==> Properties <==


Properties computed using the SCF density matrix

  Nuclear Dipole Moment: (a.u.)
     X:     4.2111      Y:    -1.8464      Z:    -1.0982

  Electronic Dipole Moment: (a.u.)
     X:    -4.9064      Y:     1.8028      Z:     1.1241

  Dipole Moment: (a.u.)
     X:    -0.6953      Y:    -0.0436      Z:     0.0260     Total:     0.6971

  Dipole Moment: (Debye)
     X:    -1.7672      Y:    -0.1109      Z:     0.0660     Total:     1.7719


  Saving occupied orbitals to File 180.

*** tstop() called on cx1-3-2-3.cx1.hpc.ic.ac.uk at Tue Jul  5 16:27:49 2016
Module time:
	user time   =      12.48 seconds =       0.21 minutes
	system time =       0.08 seconds =       0.00 minutes
	total time  =         13 seconds =       0.22 minutes
Total time:
	user time   =      12.48 seconds =       0.21 minutes
	system time =       0.08 seconds =       0.00 minutes
	total time  =         13 seconds =       0.22 minutes


Properties will be evaluated at   0.000000,   0.000000,   0.000000 Bohr

Properties computed using the  density matrix

  Nuclear Dipole Moment: (a.u.)
     X:     4.2111      Y:    -1.8464      Z:    -1.0982

  Electronic Dipole Moment: (a.u.)
     X:    -4.9064      Y:     1.8028      Z:     1.1241

  Dipole Moment: (a.u.)
     X:    -0.6953      Y:    -0.0436      Z:     0.0260     Total:     0.6971

  Dipole Moment: (Debye)
     X:    -1.7672      Y:    -0.1109      Z:     0.0660     Total:     1.7719

  Quadrupole Moment: (Debye Ang)
    XX:   -39.7685     YY:   -46.0508     ZZ:   -46.4528
    XY:    -2.5889     XZ:    -1.0573     YZ:     0.5134

  Traceless Quadrupole Moment: (Debye Ang)
    XX:     4.3222     YY:    -1.9601     ZZ:    -2.3621
    XY:    -2.5889     XZ:    -1.0573     YZ:     0.5134

  Mulliken Charges: (a.u.)
   Center  Symbol    Alpha    Beta     Spin     Total
       1     H     0.28080  0.28080  0.00000  0.43840
       2     O     4.37187  4.37187  0.00000 -0.74375
       3     C     2.98965  2.98965  0.00000  0.02070
       4     C     3.17622  3.17622  0.00000 -0.35244
       5     H     0.43089  0.43089  0.00000  0.13823
       6     H     0.42975  0.42975  0.00000  0.14050
       7     C     3.14563  3.14563  0.00000 -0.29126
       8     H     0.41989  0.41989  0.00000  0.16021
       9     H     0.42072  0.42072  0.00000  0.15857
      10     C     3.15271  3.15271  0.00000 -0.30541
      11     H     0.40739  0.40739  0.00000  0.18522
      12     H     0.42009  0.42009  0.00000  0.15982
      13     C     3.15121  3.15121  0.00000 -0.30242
      14     H     0.42690  0.42690  0.00000  0.14620
      15     H     0.42604  0.42604  0.00000  0.14791
      16     C     3.24141  3.24141  0.00000 -0.48281
      17     H     0.42296  0.42296  0.00000  0.15408
      18     H     0.42387  0.42387  0.00000  0.15227
      19     H     0.42346  0.42346  0.00000  0.15307
      20     H     0.41745  0.41745  0.00000  0.16509
      21     H     0.42110  0.42110  0.00000  0.15781

   Total alpha = 29.00000, Total beta = 29.00000, Total charge = -0.00000


*** PSI4 exiting successfully. Buy a developer a beer!
