    -----------------------------------------------------------------------
          Psi4: An Open-Source Ab Initio Electronic Structure Package
                              Psi4 (no tag) Driver

                          Git: Rev {detached?}  

    J. M. Turney, A. C. Simmonett, R. M. Parrish, E. G. Hohenstein,
    F. A. Evangelista, J. T. Fermann, B. J. Mintz, L. A. Burns, J. J. Wilke,
    M. L. Abrams, N. J. Russ, M. L. Leininger, C. L. Janssen, E. T. Seidl,
    W. D. Allen, H. F. Schaefer, R. A. King, E. F. Valeev, C. D. Sherrill,
    and T. D. Crawford, WIREs Comput. Mol. Sci. 2, 556-565 (2012)
    (doi: 10.1002/wcms.93)

                         Additional Contributions by
    A. E. DePrince, M. Saitow, U. Bozkaya, A. Yu. Sokolov
    -----------------------------------------------------------------------


    Psi4 started on: Tue Jul  5 17:13:43 2016

    Process ID:   3653
    PSI4DATADIR: /export131/home/mjharvey/miniconda3/share
    Memory level set to 256.000 MB

  ==> Input File <==

--------------------------------------------------------------------------
set {
	reference rhf
	basis 6-31G*
}


set_num_threads( 1 )
memory 2 gb

molecule MOL {
0 1

O	 0.176351	 1.525604	 -0.204094
C	 0.140502	 1.681556	 -1.381988
C	 0.305359	 0.595531	 -2.417008
O	 -0.054281	 2.863688	 -1.952602
C	 -0.523383	 -0.651479	 -2.124615
H	 0.045359	 1.023840	 -3.381221
H	 1.364552	 0.359805	 -2.474447
C	 -2.002192	 -0.328485	 -1.905154
H	 -0.121872	 -1.151344	 -1.248585
H	 -0.417897	 -1.352714	 -2.946592
C	 -2.266309	 0.335623	 -0.554522
H	 -2.353974	 0.323528	 -2.702152
H	 -2.588515	 -1.242252	 -1.978130
H	 -1.720411	 1.270255	 -0.464444
H	 -3.321543	 0.554244	 -0.424282
H	 -1.957208	 -0.306954	 0.264741
C	 1.065166	 3.726192	 -2.042424
H	 1.444631	 3.960080	 -1.058153
H	 0.709774	 4.621320	 -2.528624
H	 1.850932	 3.269393	 -2.626729

	symmetry c1
}
set optking {
	frozen_dihedral = ("
		9 5 8 12,
		1 2 3 6,
		9 5 3 6
	")
}

ee = energy('scf')
oeprop('DIPOLE', 'QUADRUPOLE', 'MULLIKEN_CHARGES')
f=open( 'psi4out.xyz', 'w' )
f.write( "20  " )
f.write( str(ee) + "\n" )
f.write( MOL.save_string_xyz() )
f.close()
--------------------------------------------------------------------------

  Memory set to   2.000 GiB by Python script.

*** tstart() called on cx1-3-16-2.cx1.hpc.ic.ac.uk
*** at Tue Jul  5 17:13:43 2016


         ---------------------------------------------------------
                                   SCF
            by Justin Turney, Rob Parrish, and Andy Simmonett
                              RHF Reference
                        1 Threads,   2000 MiB Core
         ---------------------------------------------------------

  ==> Geometry <==

    Molecular point group: c1
    Full point group: C1

    Geometry (in Angstrom), charge = 0, multiplicity = 1:

       Center              X                  Y                   Z               Mass       
    ------------   -----------------  -----------------  -----------------  -----------------
           O          0.560033105487     0.268481579707     1.358072326800    15.994914619560
           C          0.524184105487     0.424433579707     0.180178326800    12.000000000000
           C          0.689041105487    -0.661591420293    -0.854841673200    12.000000000000
           O          0.329401105487     1.606565579707    -0.390435673200    15.994914619560
           C         -0.139700894513    -1.908601420293    -0.562448673200    12.000000000000
           H          0.429041105487    -0.233282420293    -1.819054673200     1.007825032070
           H          1.748234105487    -0.897317420293    -0.912280673200     1.007825032070
           C         -1.618509894513    -1.585607420293    -0.342987673200    12.000000000000
           H          0.261810105487    -2.408466420293     0.313581326800     1.007825032070
           H         -0.034214894513    -2.609836420293    -1.384425673200     1.007825032070
           C         -1.882626894513    -0.921499420293     1.007644326800    12.000000000000
           H         -1.970291894513    -0.933594420293    -1.139985673200     1.007825032070
           H         -2.204832894513    -2.499374420293    -0.415963673200     1.007825032070
           H         -1.336728894513     0.013132579707     1.097722326800     1.007825032070
           H         -2.937860894513    -0.702878420293     1.137884326800     1.007825032070
           H         -1.573525894513    -1.564076420293     1.826907326800     1.007825032070
           C          1.448848105487     2.469069579707    -0.480257673200    12.000000000000
           H          1.828313105487     2.702957579707     0.504013326800     1.007825032070
           H          1.093456105487     3.364197579707    -0.966457673200     1.007825032070
           H          2.234614105487     2.012270579707    -1.064562673200     1.007825032070

  Running in c1 symmetry.

  Rotational constants: A =      0.12154  B =      0.04335  C =      0.03886 [cm^-1]
  Rotational constants: A =   3643.63611  B =   1299.51306  C =   1165.01305 [MHz]
  Nuclear repulsion =  406.832062571307347

  Charge       = 0
  Multiplicity = 1
  Electrons    = 64
  Nalpha       = 32
  Nbeta        = 32

  ==> Algorithm <==

  SCF Algorithm Type is DF.
  DIIS enabled.
  MOM disabled.
  Fractional occupation disabled.
  Guess Type is CORE.
  Energy threshold   = 1.00e-06
  Density threshold  = 1.00e-06
  Integral threshold = 0.00e+00

  ==> Primary Basis <==

  Basis Set: 6-31G*
    Number of shells: 72
    Number of basis function: 144
    Number of Cartesian functions: 144
    Spherical Harmonics?: false
    Max angular momentum: 2

  ==> Pre-Iterations <==

   -------------------------------------------------------
    Irrep   Nso     Nmo     Nalpha   Nbeta   Ndocc  Nsocc
   -------------------------------------------------------
     A        144     144       0       0       0       0
   -------------------------------------------------------
    Total     144     144      32      32      32       0
   -------------------------------------------------------

 OEINTS: Overlap, kinetic, potential, dipole, and quadrupole integrals
         stored in file 35.

  ==> Integral Setup <==

  ==> DFJK: Density-Fitted J/K Matrices <==

    J tasked:                  Yes
    K tasked:                  Yes
    wK tasked:                  No
    OpenMP threads:              1
    Integrals threads:           1
    Memory (MB):              1430
    Algorithm:                Core
    Integral Cache:           NONE
    Schwarz Cutoff:          1E-12
    Fitting Condition:       1E-12

   => Auxiliary Basis Set <=

  Basis Set: 
    Number of shells: 300
    Number of basis function: 948
    Number of Cartesian functions: 948
    Spherical Harmonics?: false
    Max angular momentum: 3

  Minimum eigenvalue in the overlap matrix is 2.9476451969E-03.
  Using Symmetric Orthogonalization.
  SCF Guess: Core (One-Electron) Hamiltonian.

  ==> Iterations <==

                           Total Energy        Delta E     RMS |[F,P]|

   @DF-RHF iter   1:  -248.23595115205524   -2.48236e+02   8.29284e-02 
   @DF-RHF iter   2:  -198.04495874357337    5.01910e+01   6.52193e-02 DIIS
   @DF-RHF iter   3:  -322.48829849628612   -1.24443e+02   5.07444e-02 DIIS
   @DF-RHF iter   4:  -354.23134640752721   -3.17430e+01   4.28884e-02 DIIS
   @DF-RHF iter   5:  -354.24171363668813   -1.03672e-02   3.50543e-02 DIIS
   @DF-RHF iter   6:  -383.37622224904931   -2.91345e+01   6.58959e-03 DIIS
   @DF-RHF iter   7:  -383.80657696127810   -4.30355e-01   2.96669e-03 DIIS
   @DF-RHF iter   8:  -383.87524936462046   -6.86724e-02   1.19544e-03 DIIS
   @DF-RHF iter   9:  -383.89277680249381   -1.75274e-02   4.73970e-04 DIIS
   @DF-RHF iter  10:  -383.89571309708538   -2.93629e-03   2.16059e-04 DIIS
   @DF-RHF iter  11:  -383.89636119820614   -6.48101e-04   5.82533e-05 DIIS
   @DF-RHF iter  12:  -383.89641691532518   -5.57171e-05   1.94201e-05 DIIS
   @DF-RHF iter  13:  -383.89642298901151   -6.07369e-06   4.95956e-06 DIIS
   @DF-RHF iter  14:  -383.89642378664701   -7.97635e-07   1.99914e-06 DIIS
   @DF-RHF iter  15:  -383.89642393227837   -1.45631e-07   7.65426e-07 DIIS

  ==> Post-Iterations <==

    Orbital Energies (a.u.)
    -----------------------

    Doubly Occupied:                                                      

       1A    -20.589453     2A    -20.552521     3A    -11.376286  
       4A    -11.295901     5A    -11.235264     6A    -11.223490  
       7A    -11.213662     8A    -11.187997     9A     -1.468162  
      10A     -1.370728    11A     -1.089796    12A     -1.011128  
      13A     -0.974562    14A     -0.894549    15A     -0.805107  
      16A     -0.763934    17A     -0.699476    18A     -0.685059  
      19A     -0.680242    20A     -0.626660    21A     -0.624345  
      22A     -0.583943    23A     -0.578416    24A     -0.557384  
      25A     -0.542088    26A     -0.514582    27A     -0.509268  
      28A     -0.474488    29A     -0.468180    30A     -0.454700  
      31A     -0.434867    32A     -0.430661  

    Virtual:                                                              

      33A      0.163417    34A      0.226571    35A      0.256101  
      36A      0.278729    37A      0.287586    38A      0.291333  
      39A      0.302976    40A      0.307542    41A      0.318804  
      42A      0.334623    43A      0.338539    44A      0.345738  
      45A      0.361673    46A      0.385919    47A      0.400202  
      48A      0.432696    49A      0.456635    50A      0.464267  
      51A      0.567393    52A      0.583937    53A      0.713201  
      54A      0.722030    55A      0.727080    56A      0.740835  
      57A      0.759168    58A      0.771683    59A      0.807938  
      60A      0.834495    61A      0.862998    62A      0.870989  
      63A      0.908501    64A      0.933841    65A      0.966745  
      66A      0.973579    67A      0.994993    68A      1.013229  
      69A      1.066496    70A      1.101236    71A      1.113776  
      72A      1.115749    73A      1.144170    74A      1.149404  
      75A      1.163307    76A      1.169804    77A      1.177873  
      78A      1.200245    79A      1.220924    80A      1.227912  
      81A      1.238756    82A      1.253313    83A      1.261849  
      84A      1.282451    85A      1.298233    86A      1.326387  
      87A      1.382535    88A      1.420591    89A      1.485616  
      90A      1.516909    91A      1.525434    92A      1.653544  
      93A      1.667310    94A      1.695474    95A      1.734449  
      96A      1.785325    97A      1.801693    98A      1.876802  
      99A      1.885307   100A      1.973948   101A      2.001045  
     102A      2.058883   103A      2.099830   104A      2.136138  
     105A      2.149972   106A      2.159220   107A      2.193452  
     108A      2.243470   109A      2.248816   110A      2.288404  
     111A      2.313350   112A      2.357956   113A      2.388696  
     114A      2.404139   115A      2.444372   116A      2.469582  
     117A      2.486117   118A      2.520014   119A      2.607051  
     120A      2.625318   121A      2.656121   122A      2.680511  
     123A      2.698478   124A      2.741973   125A      2.795098  
     126A      2.815851   127A      2.854896   128A      2.907511  
     129A      2.975635   130A      3.017943   131A      3.076085  
     132A      3.197794   133A      3.257564   134A      3.328883  
     135A      3.406296   136A      3.501086   137A      4.413783  
     138A      4.558100   139A      4.637662   140A      4.668331  
     141A      4.771220   142A      4.800751   143A      4.954842  
     144A      5.029062  

    Final Occupation by Irrep:
              A 
    DOCC [    32 ]

  Energy converged.

  @DF-RHF Final Energy:  -383.89642393227837

   => Energetics <=

    Nuclear Repulsion Energy =            406.8320625713073468
    One-Electron Energy =               -1329.6232892850412100
    Two-Electron Energy =                 538.8948027814565194
    DFT Exchange-Correlation Energy =       0.0000000000000000
    Empirical Dispersion Energy =           0.0000000000000000
    PCM Polarization Energy =               0.0000000000000000
    EFP Energy =                            0.0000000000000000
    Total Energy =                       -383.8964239322773437

    Alert: EFP and PCM quantities not currently incorporated into SCF psivars.

Properties will be evaluated at   0.000000,   0.000000,   0.000000 Bohr
  ==> Properties <==


Properties computed using the SCF density matrix

  Nuclear Dipole Moment: (a.u.)
     X:    -2.3038      Y:    -3.5124      Z:    -2.6415

  Electronic Dipole Moment: (a.u.)
     X:     2.9901      Y:     3.7167      Z:     1.5803

  Dipole Moment: (a.u.)
     X:     0.6863      Y:     0.2044      Z:    -1.0612     Total:     1.2802

  Dipole Moment: (Debye)
     X:     1.7445      Y:     0.5194      Z:    -2.6972     Total:     3.2539


  Saving occupied orbitals to File 180.

*** tstop() called on cx1-3-16-2.cx1.hpc.ic.ac.uk at Tue Jul  5 17:14:01 2016
Module time:
	user time   =      16.84 seconds =       0.28 minutes
	system time =       0.19 seconds =       0.00 minutes
	total time  =         18 seconds =       0.30 minutes
Total time:
	user time   =      16.84 seconds =       0.28 minutes
	system time =       0.19 seconds =       0.00 minutes
	total time  =         18 seconds =       0.30 minutes


Properties will be evaluated at   0.000000,   0.000000,   0.000000 Bohr

Properties computed using the  density matrix

  Nuclear Dipole Moment: (a.u.)
     X:    -2.3038      Y:    -3.5124      Z:    -2.6415

  Electronic Dipole Moment: (a.u.)
     X:     2.9901      Y:     3.7167      Z:     1.5803

  Dipole Moment: (a.u.)
     X:     0.6863      Y:     0.2044      Z:    -1.0612     Total:     1.2802

  Dipole Moment: (Debye)
     X:     1.7445      Y:     0.5194      Z:    -2.6972     Total:     3.2539

  Quadrupole Moment: (Debye Ang)
    XX:   -47.4618     YY:   -45.1651     ZZ:   -54.0195
    XY:     3.8755     XZ:    -2.2488     YZ:    -0.8903

  Traceless Quadrupole Moment: (Debye Ang)
    XX:     1.4203     YY:     3.7171     ZZ:    -5.1374
    XY:     3.8755     XZ:    -2.2488     YZ:    -0.8903

  Mulliken Charges: (a.u.)
   Center  Symbol    Alpha    Beta     Spin     Total
       1     O     4.26515  4.26515  0.00000 -0.53030
       2     C     2.61391  2.61391  0.00000  0.77217
       3     C     3.21022  3.21022  0.00000 -0.42044
       4     O     4.31234  4.31234  0.00000 -0.62468
       5     C     3.15545  3.15545  0.00000 -0.31091
       6     H     0.40203  0.40203  0.00000  0.19595
       7     H     0.40089  0.40089  0.00000  0.19822
       8     C     3.16435  3.16435  0.00000 -0.32869
       9     H     0.40979  0.40979  0.00000  0.18043
      10     H     0.41594  0.41594  0.00000  0.16812
      11     C     3.24574  3.24574  0.00000 -0.49148
      12     H     0.42204  0.42204  0.00000  0.15592
      13     H     0.41873  0.41873  0.00000  0.16254
      14     H     0.39722  0.39722  0.00000  0.20555
      15     H     0.42571  0.42571  0.00000  0.14857
      16     H     0.41988  0.41988  0.00000  0.16024
      17     C     3.09430  3.09430  0.00000 -0.18860
      18     H     0.40542  0.40542  0.00000  0.18915
      19     H     0.40169  0.40169  0.00000  0.19663
      20     H     0.41920  0.41920  0.00000  0.16160

   Total alpha = 32.00000, Total beta = 32.00000, Total charge = -0.00000


*** PSI4 exiting successfully. Buy a developer a beer!
