    -----------------------------------------------------------------------
          Psi4: An Open-Source Ab Initio Electronic Structure Package
                              Psi4 (no tag) Driver

                          Git: Rev {detached?}  

    J. M. Turney, A. C. Simmonett, R. M. Parrish, E. G. Hohenstein,
    F. A. Evangelista, J. T. Fermann, B. J. Mintz, L. A. Burns, J. J. Wilke,
    M. L. Abrams, N. J. Russ, M. L. Leininger, C. L. Janssen, E. T. Seidl,
    W. D. Allen, H. F. Schaefer, R. A. King, E. F. Valeev, C. D. Sherrill,
    and T. D. Crawford, WIREs Comput. Mol. Sci. 2, 556-565 (2012)
    (doi: 10.1002/wcms.93)

                         Additional Contributions by
    A. E. DePrince, M. Saitow, U. Bozkaya, A. Yu. Sokolov
    -----------------------------------------------------------------------


    Psi4 started on: Tue Jul  5 16:54:18 2016

    Process ID:   6695
    PSI4DATADIR: /export131/home/mjharvey/miniconda3/share
    Memory level set to 256.000 MB

  ==> Input File <==

--------------------------------------------------------------------------
set {
	reference rhf
	basis 6-31G*
}


set_num_threads( 1 )
memory 2 gb

molecule MOL {
0 1

O	 -0.488453	 0.057968	 1.132425
C	 -0.451170	 -1.129930	 1.097049
C	 0.801727	 -1.959116	 0.945507
O	 -1.528589	 -1.897310	 1.185968
C	 1.124911	 -2.785238	 2.184071
H	 1.613075	 -1.280220	 0.700432
H	 0.669725	 -2.590969	 0.072237
H	 1.272053	 -2.149836	 3.048928
H	 2.030738	 -3.360307	 2.024106
H	 0.320287	 -3.472711	 2.414906
C	 -2.430361	 -1.643468	 2.258242
C	 -1.731358	 -2.037800	 3.542068
H	 -3.333723	 -2.217273	 2.102455
H	 -2.697262	 -0.595453	 2.253920
H	 -1.465829	 -3.088736	 3.528427
H	 -2.386233	 -1.859951	 4.388919
H	 -0.825886	 -1.458046	 3.680852

	symmetry c1
}
set optking {
	frozen_dihedral = ("
		2 4 11 13,
		4 2 3 6
	")
}

ee = energy('scf')
oeprop('DIPOLE', 'QUADRUPOLE', 'MULLIKEN_CHARGES')
f=open( 'psi4out.xyz', 'w' )
f.write( "17  " )
f.write( str(ee) + "\n" )
f.write( MOL.save_string_xyz() )
f.close()
--------------------------------------------------------------------------

  Memory set to   2.000 GiB by Python script.

*** tstart() called on cx1-3-16-4.cx1.hpc.ic.ac.uk
*** at Tue Jul  5 16:54:18 2016


         ---------------------------------------------------------
                                   SCF
            by Justin Turney, Rob Parrish, and Andy Simmonett
                              RHF Reference
                        1 Threads,   2000 MiB Core
         ---------------------------------------------------------

  ==> Geometry <==

    Molecular point group: c1
    Full point group: C1

    Geometry (in Angstrom), charge = 0, multiplicity = 1:

       Center              X                  Y                   Z               Mass       
    ------------   -----------------  -----------------  -----------------  -----------------
           O          0.190878539620     1.687595703632    -0.648841086806    15.994914619560
           C          0.228161539620     0.499697703632    -0.684217086806    12.000000000000
           C          1.481058539620    -0.329488296368    -0.835759086806    12.000000000000
           O         -0.849257460380    -0.267682296368    -0.595298086806    15.994914619560
           C          1.804242539620    -1.155610296368     0.402804913194    12.000000000000
           H          2.292406539620     0.349407703632    -1.080834086806     1.007825032070
           H          1.349056539620    -0.961341296368    -1.709029086806     1.007825032070
           H          1.951384539620    -0.520208296368     1.267661913194     1.007825032070
           H          2.710069539620    -1.730679296368     0.242839913194     1.007825032070
           H          0.999618539620    -1.843083296368     0.633639913194     1.007825032070
           C         -1.751029460380    -0.013840296368     0.476975913194    12.000000000000
           C         -1.052026460380    -0.408172296368     1.760801913194    12.000000000000
           H         -2.654391460380    -0.587645296368     0.321188913194     1.007825032070
           H         -2.017930460380     1.034174703632     0.472653913194     1.007825032070
           H         -0.786497460380    -1.459108296368     1.747160913194     1.007825032070
           H         -1.706901460380    -0.230323296368     2.607652913194     1.007825032070
           H         -0.146554460380     0.171581703632     1.899585913194     1.007825032070

  Running in c1 symmetry.

  Rotational constants: A =      0.11349  B =      0.07778  C =      0.05673 [cm^-1]
  Rotational constants: A =   3402.33097  B =   2331.82300  C =   1700.86556 [MHz]
  Nuclear repulsion =  328.203630556547978

  Charge       = 0
  Multiplicity = 1
  Electrons    = 56
  Nalpha       = 28
  Nbeta        = 28

  ==> Algorithm <==

  SCF Algorithm Type is DF.
  DIIS enabled.
  MOM disabled.
  Fractional occupation disabled.
  Guess Type is CORE.
  Energy threshold   = 1.00e-06
  Density threshold  = 1.00e-06
  Integral threshold = 0.00e+00

  ==> Primary Basis <==

  Basis Set: 6-31G*
    Number of shells: 62
    Number of basis function: 125
    Number of Cartesian functions: 125
    Spherical Harmonics?: false
    Max angular momentum: 2

  ==> Pre-Iterations <==

   -------------------------------------------------------
    Irrep   Nso     Nmo     Nalpha   Nbeta   Ndocc  Nsocc
   -------------------------------------------------------
     A        125     125       0       0       0       0
   -------------------------------------------------------
    Total     125     125      28      28      28       0
   -------------------------------------------------------

 OEINTS: Overlap, kinetic, potential, dipole, and quadrupole integrals
         stored in file 35.

  ==> Integral Setup <==

  ==> DFJK: Density-Fitted J/K Matrices <==

    J tasked:                  Yes
    K tasked:                  Yes
    wK tasked:                  No
    OpenMP threads:              1
    Integrals threads:           1
    Memory (MB):              1430
    Algorithm:                Core
    Integral Cache:           NONE
    Schwarz Cutoff:          1E-12
    Fitting Condition:       1E-12

   => Auxiliary Basis Set <=

  Basis Set: 
    Number of shells: 258
    Number of basis function: 817
    Number of Cartesian functions: 817
    Spherical Harmonics?: false
    Max angular momentum: 3

  Minimum eigenvalue in the overlap matrix is 3.4214717815E-03.
  Using Symmetric Orthogonalization.
  SCF Guess: Core (One-Electron) Hamiltonian.

  ==> Iterations <==

                           Total Energy        Delta E     RMS |[F,P]|

   @DF-RHF iter   1:  -240.40621643884981   -2.40406e+02   8.18532e-02 
   @DF-RHF iter   2:  -217.06612192651426    2.33401e+01   6.53366e-02 DIIS
   @DF-RHF iter   3:  -305.71412158974829   -8.86480e+01   4.51048e-02 DIIS
   @DF-RHF iter   4:  -344.10225539622161   -3.83881e+01   9.92413e-03 DIIS
   @DF-RHF iter   5:  -344.77444887388310   -6.72193e-01   3.84944e-03 DIIS
   @DF-RHF iter   6:  -344.85569167263498   -8.12428e-02   1.97638e-03 DIIS
   @DF-RHF iter   7:  -344.88387182323106   -2.81802e-02   9.04526e-04 DIIS
   @DF-RHF iter   8:  -344.89143008053759   -7.55826e-03   1.94602e-04 DIIS
   @DF-RHF iter   9:  -344.89182366463410   -3.93584e-04   8.39916e-05 DIIS
   @DF-RHF iter  10:  -344.89192025851628   -9.65939e-05   2.14065e-05 DIIS
   @DF-RHF iter  11:  -344.89192961485071   -9.35633e-06   6.48570e-06 DIIS
   @DF-RHF iter  12:  -344.89193062205948   -1.00721e-06   2.89473e-06 DIIS
   @DF-RHF iter  13:  -344.89193080414998   -1.82091e-07   1.20095e-06 DIIS
   @DF-RHF iter  14:  -344.89193084994486   -4.57949e-08   3.69159e-07 DIIS

  ==> Post-Iterations <==

    Orbital Energies (a.u.)
    -----------------------

    Doubly Occupied:                                                      

       1A    -20.590291     2A    -20.548092     3A    -11.371844  
       4A    -11.291226     5A    -11.236468     6A    -11.228430  
       7A    -11.225651     8A     -1.464834     9A     -1.362694  
      10A     -1.070345    11A     -1.038108    12A     -0.911665  
      13A     -0.872086    14A     -0.760426    15A     -0.697747  
      16A     -0.685613    17A     -0.667054    18A     -0.624767  
      19A     -0.604896    20A     -0.580005    21A     -0.565591  
      22A     -0.541338    23A     -0.531224    24A     -0.511302  
      25A     -0.503533    26A     -0.488478    27A     -0.448705  
      28A     -0.431133  

    Virtual:                                                              

      29A      0.181252    30A      0.233975    31A      0.259201  
      32A      0.269211    33A      0.271618    34A      0.303349  
      35A      0.306476    36A      0.323126    37A      0.327763  
      38A      0.338103    39A      0.356676    40A      0.384228  
      41A      0.423237    42A      0.433172    43A      0.445157  
      44A      0.521535    45A      0.571267    46A      0.682703  
      47A      0.711535    48A      0.733831    49A      0.737875  
      50A      0.743537    51A      0.786715    52A      0.804433  
      53A      0.860055    54A      0.889587    55A      0.904991  
      56A      0.936564    57A      0.980167    58A      0.997348  
      59A      1.031715    60A      1.062356    61A      1.081253  
      62A      1.102723    63A      1.132010    64A      1.147485  
      65A      1.156985    66A      1.169311    67A      1.195690  
      68A      1.204796    69A      1.216590    70A      1.237136  
      71A      1.255813    72A      1.281349    73A      1.287790  
      74A      1.331832    75A      1.370845    76A      1.387578  
      77A      1.410102    78A      1.465132    79A      1.542561  
      80A      1.615142    81A      1.681673    82A      1.723849  
      83A      1.780027    84A      1.847799    85A      1.887835  
      86A      1.956238    87A      1.982674    88A      1.999666  
      89A      2.056882    90A      2.096902    91A      2.134881  
      92A      2.175541    93A      2.186410    94A      2.244484  
      95A      2.255058    96A      2.268476    97A      2.287170  
      98A      2.337730    99A      2.406590   100A      2.443687  
     101A      2.496555   102A      2.571107   103A      2.604733  
     104A      2.623933   105A      2.670899   106A      2.688272  
     107A      2.695227   108A      2.756257   109A      2.759672  
     110A      2.872303   111A      2.920946   112A      2.966207  
     113A      2.993386   114A      3.177442   115A      3.197591  
     116A      3.354731   117A      3.384830   118A      3.521621  
     119A      4.429863   120A      4.530501   121A      4.611016  
     122A      4.681188   123A      4.769947   124A      4.856302  
     125A      4.989298  

    Final Occupation by Irrep:
              A 
    DOCC [    28 ]

  Energy converged.

  @DF-RHF Final Energy:  -344.89193084994486

   => Energetics <=

    Nuclear Repulsion Energy =            328.2036305565479779
    One-Electron Energy =               -1120.4840369939047378
    Two-Electron Energy =                 447.3884755874123016
    DFT Exchange-Correlation Energy =       0.0000000000000000
    Empirical Dispersion Energy =           0.0000000000000000
    PCM Polarization Energy =               0.0000000000000000
    EFP Energy =                            0.0000000000000000
    Total Energy =                       -344.8919308499444583

    Alert: EFP and PCM quantities not currently incorporated into SCF psivars.

Properties will be evaluated at   0.000000,   0.000000,   0.000000 Bohr
  ==> Properties <==


Properties computed using the SCF density matrix

  Nuclear Dipole Moment: (a.u.)
     X:     1.8626      Y:    -5.4091      Z:     5.9962

  Electronic Dipole Moment: (a.u.)
     X:    -1.8980      Y:     4.4483      Z:    -5.4235

  Dipole Moment: (a.u.)
     X:    -0.0353      Y:    -0.9608      Z:     0.5727     Total:     1.1191

  Dipole Moment: (Debye)
     X:    -0.0898      Y:    -2.4421      Z:     1.4557     Total:     2.8445


  Saving occupied orbitals to File 180.

*** tstop() called on cx1-3-16-4.cx1.hpc.ic.ac.uk at Tue Jul  5 16:54:31 2016
Module time:
	user time   =      11.71 seconds =       0.20 minutes
	system time =       0.08 seconds =       0.00 minutes
	total time  =         13 seconds =       0.22 minutes
Total time:
	user time   =      11.71 seconds =       0.20 minutes
	system time =       0.08 seconds =       0.00 minutes
	total time  =         13 seconds =       0.22 minutes


Properties will be evaluated at   0.000000,   0.000000,   0.000000 Bohr

Properties computed using the  density matrix

  Nuclear Dipole Moment: (a.u.)
     X:     1.8626      Y:    -5.4091      Z:     5.9962

  Electronic Dipole Moment: (a.u.)
     X:    -1.8980      Y:     4.4483      Z:    -5.4235

  Dipole Moment: (a.u.)
     X:    -0.0353      Y:    -0.9608      Z:     0.5727     Total:     1.1191

  Dipole Moment: (Debye)
     X:    -0.0898      Y:    -2.4421      Z:     1.4557     Total:     2.8445

  Quadrupole Moment: (Debye Ang)
    XX:   -38.6658     YY:   -49.3278     ZZ:   -42.6465
    XY:    -1.4026     XZ:    -2.7904     YZ:     1.5741

  Traceless Quadrupole Moment: (Debye Ang)
    XX:     4.8809     YY:    -5.7811     ZZ:     0.9002
    XY:    -1.4026     XZ:    -2.7904     YZ:     1.5741

  Mulliken Charges: (a.u.)
   Center  Symbol    Alpha    Beta     Spin     Total
       1     O     4.27319  4.27319  0.00000 -0.54639
       2     C     2.62069  2.62069  0.00000  0.75862
       3     C     3.19437  3.19437  0.00000 -0.38875
       4     O     4.31027  4.31027  0.00000 -0.62054
       5     C     3.25277  3.25277  0.00000 -0.50553
       6     H     0.40100  0.40100  0.00000  0.19799
       7     H     0.40284  0.40284  0.00000  0.19432
       8     H     0.41288  0.41288  0.00000  0.17424
       9     H     0.40989  0.40989  0.00000  0.18023
      10     H     0.40930  0.40930  0.00000  0.18140
      11     C     3.00896  3.00896  0.00000 -0.01793
      12     C     3.26002  3.26002  0.00000 -0.52005
      13     H     0.40631  0.40631  0.00000  0.18738
      14     H     0.40156  0.40156  0.00000  0.19687
      15     H     0.41176  0.41176  0.00000  0.17647
      16     H     0.41408  0.41408  0.00000  0.17185
      17     H     0.41011  0.41011  0.00000  0.17979

   Total alpha = 28.00000, Total beta = 28.00000, Total charge = -0.00000


*** PSI4 exiting successfully. Buy a developer a beer!
