    -----------------------------------------------------------------------
          Psi4: An Open-Source Ab Initio Electronic Structure Package
                              Psi4 (no tag) Driver

                          Git: Rev {detached?}  

    J. M. Turney, A. C. Simmonett, R. M. Parrish, E. G. Hohenstein,
    F. A. Evangelista, J. T. Fermann, B. J. Mintz, L. A. Burns, J. J. Wilke,
    M. L. Abrams, N. J. Russ, M. L. Leininger, C. L. Janssen, E. T. Seidl,
    W. D. Allen, H. F. Schaefer, R. A. King, E. F. Valeev, C. D. Sherrill,
    and T. D. Crawford, WIREs Comput. Mol. Sci. 2, 556-565 (2012)
    (doi: 10.1002/wcms.93)

                         Additional Contributions by
    A. E. DePrince, M. Saitow, U. Bozkaya, A. Yu. Sokolov
    -----------------------------------------------------------------------


    Psi4 started on: Tue Jul  5 16:44:44 2016

    Process ID:  28204
    PSI4DATADIR: /export131/home/mjharvey/miniconda3/share
    Memory level set to 256.000 MB

  ==> Input File <==

--------------------------------------------------------------------------
set {
	reference rhf
	basis 6-31G*
}


set_num_threads( 1 )
memory 2 gb

molecule MOL {
0 1

H	 2.059791	 -0.767067	 -2.304533
C	 1.334667	 -0.988823	 -1.529971
C	 1.322923	 0.120767	 -0.479465
H	 0.364335	 -1.094894	 -2.004922
H	 1.600800	 -1.945488	 -1.091156
C	 0.306652	 -0.176050	 0.621399
H	 1.072033	 1.069711	 -0.942052
H	 2.303925	 0.225063	 -0.031112
N	 -1.068537	 -0.011044	 0.085269
H	 0.372515	 -1.192590	 0.973735
H	 0.391664	 0.520566	 1.441230
O	 -1.656956	 -0.997225	 -0.235017
O	 -1.478635	 1.104830	 -0.018026

	symmetry c1
}
set optking {
	frozen_dihedral = ("
		12 9 6 3
	")
}

ee = energy('scf')
oeprop('DIPOLE', 'QUADRUPOLE', 'MULLIKEN_CHARGES')
f=open( 'psi4out.xyz', 'w' )
f.write( "13  " )
f.write( str(ee) + "\n" )
f.write( MOL.save_string_xyz() )
f.close()
--------------------------------------------------------------------------

  Memory set to   2.000 GiB by Python script.

*** tstart() called on cx1-3-15-4.cx1.hpc.ic.ac.uk
*** at Tue Jul  5 16:44:45 2016


         ---------------------------------------------------------
                                   SCF
            by Justin Turney, Rob Parrish, and Andy Simmonett
                              RHF Reference
                        1 Threads,   2000 MiB Core
         ---------------------------------------------------------

  ==> Geometry <==

    Molecular point group: c1
    Full point group: C1

    Geometry (in Angstrom), charge = 0, multiplicity = 1:

       Center              X                  Y                   Z               Mass       
    ------------   -----------------  -----------------  -----------------  -----------------
           H          2.299173480279    -0.607911716255    -2.040633869982     1.007825032070
           C          1.574049480279    -0.829667716255    -1.266071869982    12.000000000000
           C          1.562305480279     0.279922283745    -0.215565869982    12.000000000000
           H          0.603717480279    -0.935738716255    -1.741022869982     1.007825032070
           H          1.840182480279    -1.786332716255    -0.827256869982     1.007825032070
           C          0.546034480279    -0.016894716255     0.885298130018    12.000000000000
           H          1.311415480279     1.228866283745    -0.678152869982     1.007825032070
           H          2.543307480279     0.384218283745     0.232787130018     1.007825032070
           N         -0.829154519721     0.148111283745     0.349168130018    14.003074004780
           H          0.611897480279    -1.033434716255     1.237634130018     1.007825032070
           H          0.631046480279     0.679721283745     1.705129130018     1.007825032070
           O         -1.417573519721    -0.838069716255     0.028882130018    15.994914619560
           O         -1.239252519721     1.263985283745     0.245873130018    15.994914619560

  Running in c1 symmetry.

  Rotational constants: A =      0.21033  B =      0.08820  C =      0.07646 [cm^-1]
  Rotational constants: A =   6305.54018  B =   2644.28735  C =   2292.21318 [MHz]
  Nuclear repulsion =  253.368113313744175

  Charge       = 0
  Multiplicity = 1
  Electrons    = 48
  Nalpha       = 24
  Nbeta        = 24

  ==> Algorithm <==

  SCF Algorithm Type is DF.
  DIIS enabled.
  MOM disabled.
  Fractional occupation disabled.
  Guess Type is CORE.
  Energy threshold   = 1.00e-06
  Density threshold  = 1.00e-06
  Integral threshold = 0.00e+00

  ==> Primary Basis <==

  Basis Set: 6-31G*
    Number of shells: 50
    Number of basis function: 104
    Number of Cartesian functions: 104
    Spherical Harmonics?: false
    Max angular momentum: 2

  ==> Pre-Iterations <==

   -------------------------------------------------------
    Irrep   Nso     Nmo     Nalpha   Nbeta   Ndocc  Nsocc
   -------------------------------------------------------
     A        104     104       0       0       0       0
   -------------------------------------------------------
    Total     104     104      24      24      24       0
   -------------------------------------------------------

 OEINTS: Overlap, kinetic, potential, dipole, and quadrupole integrals
         stored in file 35.

  ==> Integral Setup <==

  ==> DFJK: Density-Fitted J/K Matrices <==

    J tasked:                  Yes
    K tasked:                  Yes
    wK tasked:                  No
    OpenMP threads:              1
    Integrals threads:           1
    Memory (MB):              1430
    Algorithm:                Core
    Integral Cache:           NONE
    Schwarz Cutoff:          1E-12
    Fitting Condition:       1E-12

   => Auxiliary Basis Set <=

  Basis Set: 
    Number of shells: 207
    Number of basis function: 661
    Number of Cartesian functions: 661
    Spherical Harmonics?: false
    Max angular momentum: 3

  Minimum eigenvalue in the overlap matrix is 3.0725399149E-03.
  Using Symmetric Orthogonalization.
  SCF Guess: Core (One-Electron) Hamiltonian.

  ==> Iterations <==

                           Total Energy        Delta E     RMS |[F,P]|

   @DF-RHF iter   1:  -246.70111612195615   -2.46701e+02   8.09450e-02 
   @DF-RHF iter   2:  -166.49881910263571    8.02023e+01   9.33301e-02 DIIS
   @DF-RHF iter   3:  -300.08058209805097   -1.33582e+02   3.47830e-02 DIIS
   @DF-RHF iter   4:  -250.65815128885652    4.94224e+01   8.28780e-02 DIIS
   @DF-RHF iter   5:  -274.54528979185113   -2.38871e+01   7.23430e-02 DIIS
   @DF-RHF iter   6:  -284.03823763795447   -9.49295e+00   6.16371e-02 DIIS
   @DF-RHF iter   7:  -298.15693226249016   -1.41187e+01   4.76995e-02 DIIS
   @DF-RHF iter   8:  -301.73496615389729   -3.57803e+00   4.36572e-02 DIIS
   @DF-RHF iter   9:  -304.72271540865415   -2.98775e+00   4.15259e-02 DIIS
   @DF-RHF iter  10:  -306.86938767481320   -2.14667e+00   3.90992e-02 DIIS
   @DF-RHF iter  11:  -313.70260738910747   -6.83322e+00   3.35609e-02 DIIS
   @DF-RHF iter  12:  -315.48866909435685   -1.78606e+00   2.82443e-02 DIIS
   @DF-RHF iter  13:  -317.92784939345938   -2.43918e+00   1.96840e-02 DIIS
   @DF-RHF iter  14:  -321.46098686300218   -3.53314e+00   6.75844e-03 DIIS
   @DF-RHF iter  15:  -321.70346416589916   -2.42477e-01   1.91406e-03 DIIS
   @DF-RHF iter  16:  -321.72841348508075   -2.49493e-02   7.63524e-04 DIIS
   @DF-RHF iter  17:  -321.73263481860067   -4.22133e-03   3.03780e-04 DIIS
   @DF-RHF iter  18:  -321.73413445366975   -1.49964e-03   1.19024e-04 DIIS
   @DF-RHF iter  19:  -321.73444082664298   -3.06373e-04   7.10839e-05 DIIS
   @DF-RHF iter  20:  -321.73455047570030   -1.09649e-04   3.24003e-05 DIIS
   @DF-RHF iter  21:  -321.73458269565151   -3.22200e-05   7.79563e-06 DIIS
   @DF-RHF iter  22:  -321.73458444489609   -1.74924e-06   2.51761e-06 DIIS
   @DF-RHF iter  23:  -321.73458455645425   -1.11558e-07   9.36515e-07 DIIS

  ==> Post-Iterations <==

    Orbital Energies (a.u.)
    -----------------------

    Doubly Occupied:                                                      

       1A    -20.603284     2A    -20.600703     3A    -15.847928  
       4A    -11.298930     5A    -11.256542     6A    -11.229650  
       7A     -1.631909     8A     -1.417460     9A     -1.136020  
      10A     -1.021614    11A     -0.890304    12A     -0.826189  
      13A     -0.760009    14A     -0.735717    15A     -0.725400  
      16A     -0.649563    17A     -0.623901    18A     -0.592618  
      19A     -0.532682    20A     -0.518405    21A     -0.513800  
      22A     -0.483950    23A     -0.474817    24A     -0.448260  

    Virtual:                                                              

      25A      0.117524    26A      0.225540    27A      0.265111  
      28A      0.268308    29A      0.288851    30A      0.299417  
      31A      0.314168    32A      0.320449    33A      0.348350  
      34A      0.368123    35A      0.411587    36A      0.536871  
      37A      0.611169    38A      0.682134    39A      0.694394  
      40A      0.719645    41A      0.741225    42A      0.781039  
      43A      0.853925    44A      0.882770    45A      0.911585  
      46A      0.940900    47A      0.960046    48A      1.055462  
      49A      1.061986    50A      1.072578    51A      1.106489  
      52A      1.112726    53A      1.129501    54A      1.165131  
      55A      1.167073    56A      1.194052    57A      1.195514  
      58A      1.227704    59A      1.240269    60A      1.276551  
      61A      1.293456    62A      1.342598    63A      1.354063  
      64A      1.426279    65A      1.482122    66A      1.583989  
      67A      1.679502    68A      1.763332    69A      1.769046  
      70A      1.842284    71A      1.891733    72A      1.970889  
      73A      2.079850    74A      2.098449    75A      2.120854  
      76A      2.138411    77A      2.150848    78A      2.225957  
      79A      2.265004    80A      2.270757    81A      2.300490  
      82A      2.379184    83A      2.428673    84A      2.441278  
      85A      2.528555    86A      2.583501    87A      2.644992  
      88A      2.667513    89A      2.703666    90A      2.802664  
      91A      2.854745    92A      2.934437    93A      3.026074  
      94A      3.080377    95A      3.231905    96A      3.245024  
      97A      3.277537    98A      3.487121    99A      4.081748  
     100A      4.261530   101A      4.272391   102A      4.596495  
     103A      4.766623   104A      4.919082  

    Final Occupation by Irrep:
              A 
    DOCC [    24 ]

  Energy converged.

  @DF-RHF Final Energy:  -321.73458455645425

   => Energetics <=

    Nuclear Repulsion Energy =            253.3681133137441748
    One-Electron Energy =                -940.5661444082882099
    Two-Electron Energy =                 365.4634465380897836
    DFT Exchange-Correlation Energy =       0.0000000000000000
    Empirical Dispersion Energy =           0.0000000000000000
    PCM Polarization Energy =               0.0000000000000000
    EFP Energy =                            0.0000000000000000
    Total Energy =                       -321.7345845564542515

    Alert: EFP and PCM quantities not currently incorporated into SCF psivars.

Properties will be evaluated at   0.000000,   0.000000,   0.000000 Bohr
  ==> Properties <==


Properties computed using the SCF density matrix

  Nuclear Dipole Moment: (a.u.)
     X:     9.2150      Y:    -1.9395      Z:    -1.9792

  Electronic Dipole Moment: (a.u.)
     X:    -7.6527      Y:     1.7668      Z:     2.4082

  Dipole Moment: (a.u.)
     X:     1.5623      Y:    -0.1727      Z:     0.4290     Total:     1.6293

  Dipole Moment: (Debye)
     X:     3.9711      Y:    -0.4389      Z:     1.0904     Total:     4.1414


  Saving occupied orbitals to File 180.

*** tstop() called on cx1-3-15-4.cx1.hpc.ic.ac.uk at Tue Jul  5 16:44:54 2016
Module time:
	user time   =       8.87 seconds =       0.15 minutes
	system time =       0.06 seconds =       0.00 minutes
	total time  =          9 seconds =       0.15 minutes
Total time:
	user time   =       8.87 seconds =       0.15 minutes
	system time =       0.06 seconds =       0.00 minutes
	total time  =          9 seconds =       0.15 minutes


Properties will be evaluated at   0.000000,   0.000000,   0.000000 Bohr

Properties computed using the  density matrix

  Nuclear Dipole Moment: (a.u.)
     X:     9.2150      Y:    -1.9395      Z:    -1.9792

  Electronic Dipole Moment: (a.u.)
     X:    -7.6527      Y:     1.7668      Z:     2.4082

  Dipole Moment: (a.u.)
     X:     1.5623      Y:    -0.1727      Z:     0.4290     Total:     1.6293

  Dipole Moment: (Debye)
     X:     3.9711      Y:    -0.4389      Z:     1.0904     Total:     4.1414

  Quadrupole Moment: (Debye Ang)
    XX:   -39.2500     YY:   -39.8628     ZZ:   -33.4813
    XY:     0.5397     XZ:     0.0733     YZ:    -0.5877

  Traceless Quadrupole Moment: (Debye Ang)
    XX:    -1.7186     YY:    -2.3315     ZZ:     4.0501
    XY:     0.5397     XZ:     0.0733     YZ:    -0.5877

  Mulliken Charges: (a.u.)
   Center  Symbol    Alpha    Beta     Spin     Total
       1     H     0.41193  0.41193  0.00000  0.17615
       2     C     3.24832  3.24832  0.00000 -0.49663
       3     C     3.17565  3.17565  0.00000 -0.35130
       4     H     0.40324  0.40324  0.00000  0.19351
       5     H     0.41621  0.41621  0.00000  0.16758
       6     C     3.09050  3.09050  0.00000 -0.18100
       7     H     0.39581  0.39581  0.00000  0.20838
       8     H     0.40500  0.40500  0.00000  0.19000
       9     N     3.22330  3.22330  0.00000  0.55340
      10     H     0.38733  0.38733  0.00000  0.22534
      11     H     0.38630  0.38630  0.00000  0.22740
      12     O     4.22710  4.22710  0.00000 -0.45420
      13     O     4.22932  4.22932  0.00000 -0.45863

   Total alpha = 24.00000, Total beta = 24.00000, Total charge =  0.00000


*** PSI4 exiting successfully. Buy a developer a beer!
