    -----------------------------------------------------------------------
          Psi4: An Open-Source Ab Initio Electronic Structure Package
                              Psi4 (no tag) Driver

                          Git: Rev {detached?}  

    J. M. Turney, A. C. Simmonett, R. M. Parrish, E. G. Hohenstein,
    F. A. Evangelista, J. T. Fermann, B. J. Mintz, L. A. Burns, J. J. Wilke,
    M. L. Abrams, N. J. Russ, M. L. Leininger, C. L. Janssen, E. T. Seidl,
    W. D. Allen, H. F. Schaefer, R. A. King, E. F. Valeev, C. D. Sherrill,
    and T. D. Crawford, WIREs Comput. Mol. Sci. 2, 556-565 (2012)
    (doi: 10.1002/wcms.93)

                         Additional Contributions by
    A. E. DePrince, M. Saitow, U. Bozkaya, A. Yu. Sokolov
    -----------------------------------------------------------------------


    Psi4 started on: Tue Jul  5 16:52:45 2016

    Process ID:   5185
    PSI4DATADIR: /export131/home/mjharvey/miniconda3/share
    Memory level set to 256.000 MB

  ==> Input File <==

--------------------------------------------------------------------------
set {
	reference rhf
	basis 6-31G*
}


set_num_threads( 1 )
memory 2 gb

molecule MOL {
0 1

O	 -0.488453	 0.057968	 1.132425
C	 -0.451170	 -1.129930	 1.097049
C	 0.801727	 -1.959116	 0.945507
O	 -1.528589	 -1.897310	 1.185968
C	 1.124911	 -2.785238	 2.184071
H	 1.613075	 -1.280220	 0.700432
H	 0.669725	 -2.590969	 0.072237
H	 1.272053	 -2.149836	 3.048928
H	 2.030738	 -3.360307	 2.024106
H	 0.320287	 -3.472711	 2.414906
C	 -1.498968	 -2.966509	 2.125828
C	 -0.501424	 -3.987297	 1.620645
H	 -2.491602	 -3.386820	 2.213002
H	 -1.216642	 -2.576891	 3.094373
H	 -0.795495	 -4.363722	 0.647513
H	 -0.447084	 -4.823420	 2.310279
H	 0.486508	 -3.549472	 1.533727

	symmetry c1
}
set optking {
	frozen_dihedral = ("
		2 4 11 13,
		4 2 3 6
	")
}

ee = energy('scf')
oeprop('DIPOLE', 'QUADRUPOLE', 'MULLIKEN_CHARGES')
f=open( 'psi4out.xyz', 'w' )
f.write( "17  " )
f.write( str(ee) + "\n" )
f.write( MOL.save_string_xyz() )
f.close()
--------------------------------------------------------------------------

  Memory set to   2.000 GiB by Python script.

*** tstart() called on cx1-3-16-4.cx1.hpc.ic.ac.uk
*** at Tue Jul  5 16:52:46 2016


         ---------------------------------------------------------
                                   SCF
            by Justin Turney, Rob Parrish, and Andy Simmonett
                              RHF Reference
                        1 Threads,   2000 MiB Core
         ---------------------------------------------------------

  ==> Geometry <==

    Molecular point group: c1
    Full point group: C1

    Geometry (in Angstrom), charge = 0, multiplicity = 1:

       Center              X                  Y                   Z               Mass       
    ------------   -----------------  -----------------  -----------------  -----------------
           O         -0.124885276796     2.165957893761    -0.346592905801    15.994914619560
           C         -0.087602276796     0.978059893761    -0.381968905801    12.000000000000
           C          1.165294723204     0.148873893761    -0.533510905801    12.000000000000
           O         -1.165021276796     0.210679893761    -0.293049905801    15.994914619560
           C          1.488478723204    -0.677248106239     0.705053094199    12.000000000000
           H          1.976642723204     0.827769893761    -0.778585905801     1.007825032070
           H          1.033292723204    -0.482979106239    -1.406780905801     1.007825032070
           H          1.635620723204    -0.041846106239     1.569910094199     1.007825032070
           H          2.394305723204    -1.252317106239     0.545088094199     1.007825032070
           H          0.683854723204    -1.364721106239     0.935888094199     1.007825032070
           C         -1.135400276796    -0.858519106239     0.646810094199    12.000000000000
           C         -0.137856276796    -1.879307106239     0.141627094199    12.000000000000
           H         -2.128034276796    -1.278830106239     0.733984094199     1.007825032070
           H         -0.853074276796    -0.468901106239     1.615355094199     1.007825032070
           H         -0.431927276796    -2.255732106239    -0.831504905801     1.007825032070
           H         -0.083516276796    -2.715430106239     0.831261094199     1.007825032070
           H          0.850075723204    -1.441482106239     0.054709094199     1.007825032070

  Running in c1 symmetry.

  Rotational constants: A =      0.13934  B =      0.08604  C =      0.06107 [cm^-1]
  Rotational constants: A =   4177.32132  B =   2579.38510  C =   1830.89515 [MHz]
  Nuclear repulsion =  343.989359847905348

  Charge       = 0
  Multiplicity = 1
  Electrons    = 56
  Nalpha       = 28
  Nbeta        = 28

  ==> Algorithm <==

  SCF Algorithm Type is DF.
  DIIS enabled.
  MOM disabled.
  Fractional occupation disabled.
  Guess Type is CORE.
  Energy threshold   = 1.00e-06
  Density threshold  = 1.00e-06
  Integral threshold = 0.00e+00

  ==> Primary Basis <==

  Basis Set: 6-31G*
    Number of shells: 62
    Number of basis function: 125
    Number of Cartesian functions: 125
    Spherical Harmonics?: false
    Max angular momentum: 2

  ==> Pre-Iterations <==

   -------------------------------------------------------
    Irrep   Nso     Nmo     Nalpha   Nbeta   Ndocc  Nsocc
   -------------------------------------------------------
     A        125     125       0       0       0       0
   -------------------------------------------------------
    Total     125     125      28      28      28       0
   -------------------------------------------------------

 OEINTS: Overlap, kinetic, potential, dipole, and quadrupole integrals
         stored in file 35.

  ==> Integral Setup <==

  ==> DFJK: Density-Fitted J/K Matrices <==

    J tasked:                  Yes
    K tasked:                  Yes
    wK tasked:                  No
    OpenMP threads:              1
    Integrals threads:           1
    Memory (MB):              1430
    Algorithm:                Core
    Integral Cache:           NONE
    Schwarz Cutoff:          1E-12
    Fitting Condition:       1E-12

   => Auxiliary Basis Set <=

  Basis Set: 
    Number of shells: 258
    Number of basis function: 817
    Number of Cartesian functions: 817
    Spherical Harmonics?: false
    Max angular momentum: 3

  Minimum eigenvalue in the overlap matrix is 2.5936947311E-03.
  Using Symmetric Orthogonalization.
  SCF Guess: Core (One-Electron) Hamiltonian.

  ==> Iterations <==

                           Total Energy        Delta E     RMS |[F,P]|

   @DF-RHF iter   1:  -270.25924065411220   -2.70259e+02   7.25581e-02 
   @DF-RHF iter   2:  -220.14229183752605    5.01169e+01   6.84974e-02 DIIS
   @DF-RHF iter   3:  -301.68837666121453   -8.15461e+01   4.81221e-02 DIIS
   @DF-RHF iter   4:  -327.89973459986368   -2.62114e+01   3.45944e-02 DIIS
   @DF-RHF iter   5:  -341.61866798339588   -1.37189e+01   1.79913e-02 DIIS
   @DF-RHF iter   6:  -344.36958101367088   -2.75091e+00   3.52680e-03 DIIS
   @DF-RHF iter   7:  -344.50158528881389   -1.32004e-01   1.33801e-03 DIIS
   @DF-RHF iter   8:  -344.52353175052974   -2.19465e-02   5.40499e-04 DIIS
   @DF-RHF iter   9:  -344.52826111445177   -4.72936e-03   2.56764e-04 DIIS
   @DF-RHF iter  10:  -344.52898293878900   -7.21824e-04   1.14384e-04 DIIS
   @DF-RHF iter  11:  -344.52912347072277   -1.40532e-04   4.26635e-05 DIIS
   @DF-RHF iter  12:  -344.52914527491760   -2.18042e-05   1.38542e-05 DIIS
   @DF-RHF iter  13:  -344.52914792695208   -2.65203e-06   4.20437e-06 DIIS
   @DF-RHF iter  14:  -344.52914832135411   -3.94402e-07   2.09933e-06 DIIS
   @DF-RHF iter  15:  -344.52914838529068   -6.39366e-08   6.31143e-07 DIIS

  ==> Post-Iterations <==

    Orbital Energies (a.u.)
    -----------------------

    Doubly Occupied:                                                      

       1A    -20.594231     2A    -20.554285     3A    -11.378764  
       4A    -11.307222     5A    -11.248502     6A    -11.210604  
       7A    -11.192320     8A     -1.468302     9A     -1.372339  
      10A     -1.206064    11A     -1.053099    12A     -0.945374  
      13A     -0.892761    14A     -0.788771    15A     -0.738319  
      16A     -0.702676    17A     -0.676469    18A     -0.654237  
      19A     -0.643302    20A     -0.595775    21A     -0.589862  
      22A     -0.557656    23A     -0.533494    24A     -0.518984  
      25A     -0.489787    26A     -0.454987    27A     -0.434781  
      28A     -0.331074  

    Virtual:                                                              

      29A      0.167287    30A      0.225916    31A      0.249088  
      32A      0.264375    33A      0.274939    34A      0.276697  
      35A      0.288769    36A      0.303985    37A      0.308865  
      38A      0.341820    39A      0.375084    40A      0.395074  
      41A      0.412905    42A      0.444936    43A      0.511444  
      44A      0.527827    45A      0.582203    46A      0.691067  
      47A      0.716095    48A      0.739626    49A      0.763251  
      50A      0.781764    51A      0.811184    52A      0.836674  
      53A      0.856041    54A      0.906940    55A      0.930007  
      56A      0.952739    57A      0.963332    58A      1.031645  
      59A      1.038321    60A      1.087819    61A      1.096671  
      62A      1.105853    63A      1.119552    64A      1.141150  
      65A      1.167509    66A      1.181665    67A      1.185727  
      68A      1.206648    69A      1.218538    70A      1.225313  
      71A      1.279771    72A      1.298267    73A      1.316358  
      74A      1.346905    75A      1.389764    76A      1.420924  
      77A      1.521092    78A      1.532238    79A      1.619892  
      80A      1.663613    81A      1.715207    82A      1.762432  
      83A      1.853335    84A      1.867594    85A      1.913458  
      86A      1.984350    87A      2.024206    88A      2.056085  
      89A      2.064210    90A      2.121230    91A      2.139044  
      92A      2.163568    93A      2.212165    94A      2.235097  
      95A      2.252828    96A      2.260497    97A      2.337588  
      98A      2.372088    99A      2.401108   100A      2.461561  
     101A      2.495314   102A      2.556775   103A      2.564915  
     104A      2.673651   105A      2.695497   106A      2.737972  
     107A      2.754350   108A      2.808289   109A      2.904245  
     110A      2.917150   111A      2.951777   112A      3.050115  
     113A      3.092538   114A      3.119839   115A      3.231689  
     116A      3.274624   117A      3.396221   118A      3.529919  
     119A      4.409131   120A      4.586500   121A      4.634087  
     122A      4.755138   123A      4.818082   124A      4.946818  
     125A      5.026876  

    Final Occupation by Irrep:
              A 
    DOCC [    28 ]

  Energy converged.

  @DF-RHF Final Energy:  -344.52914838529068

   => Energetics <=

    Nuclear Repulsion Energy =            343.9893598479053480
    One-Electron Energy =               -1150.7690663745040638
    Two-Electron Energy =                 462.2505581413082609
    DFT Exchange-Correlation Energy =       0.0000000000000000
    Empirical Dispersion Energy =           0.0000000000000000
    PCM Polarization Energy =               0.0000000000000000
    EFP Energy =                            0.0000000000000000
    Total Energy =                       -344.5291483852904548

    Alert: EFP and PCM quantities not currently incorporated into SCF psivars.

Properties will be evaluated at   0.000000,   0.000000,   0.000000 Bohr
  ==> Properties <==


Properties computed using the SCF density matrix

  Nuclear Dipole Moment: (a.u.)
     X:     4.7536      Y:    -9.8081      Z:     3.0618

  Electronic Dipole Moment: (a.u.)
     X:    -4.2103      Y:     8.1927      Z:    -2.6231

  Dipole Moment: (a.u.)
     X:     0.5433      Y:    -1.6154      Z:     0.4387     Total:     1.7599

  Dipole Moment: (Debye)
     X:     1.3809      Y:    -4.1059      Z:     1.1150     Total:     4.4731


  Saving occupied orbitals to File 180.

*** tstop() called on cx1-3-16-4.cx1.hpc.ic.ac.uk at Tue Jul  5 16:52:57 2016
Module time:
	user time   =      10.98 seconds =       0.18 minutes
	system time =       0.09 seconds =       0.00 minutes
	total time  =         11 seconds =       0.18 minutes
Total time:
	user time   =      10.98 seconds =       0.18 minutes
	system time =       0.09 seconds =       0.00 minutes
	total time  =         11 seconds =       0.18 minutes


Properties will be evaluated at   0.000000,   0.000000,   0.000000 Bohr

Properties computed using the  density matrix

  Nuclear Dipole Moment: (a.u.)
     X:     4.7536      Y:    -9.8081      Z:     3.0618

  Electronic Dipole Moment: (a.u.)
     X:    -4.2103      Y:     8.1927      Z:    -2.6231

  Dipole Moment: (a.u.)
     X:     0.5433      Y:    -1.6154      Z:     0.4387     Total:     1.7599

  Dipole Moment: (Debye)
     X:     1.3809      Y:    -4.1059      Z:     1.1150     Total:     4.4731

  Quadrupole Moment: (Debye Ang)
    XX:   -43.3557     YY:   -51.4746     ZZ:   -42.0007
    XY:     1.4456     XZ:    -3.0291     YZ:    -0.6126

  Traceless Quadrupole Moment: (Debye Ang)
    XX:     2.2546     YY:    -5.8643     ZZ:     3.6096
    XY:     1.4456     XZ:    -3.0291     YZ:    -0.6126

  Mulliken Charges: (a.u.)
   Center  Symbol    Alpha    Beta     Spin     Total
       1     O     4.25940  4.25940  0.00000 -0.51880
       2     C     2.60057  2.60057  0.00000  0.79886
       3     C     3.26073  3.26073  0.00000 -0.52146
       4     O     4.30333  4.30333  0.00000 -0.60667
       5     C     3.34648  3.34648  0.00000 -0.69296
       6     H     0.38356  0.38356  0.00000  0.23289
       7     H     0.38467  0.38467  0.00000  0.23066
       8     H     0.40243  0.40243  0.00000  0.19515
       9     H     0.39355  0.39355  0.00000  0.21291
      10     H     0.34383  0.34383  0.00000  0.31234
      11     C     3.03373  3.03373  0.00000 -0.06745
      12     C     3.34672  3.34672  0.00000 -0.69345
      13     H     0.38926  0.38926  0.00000  0.22147
      14     H     0.40220  0.40220  0.00000  0.19559
      15     H     0.40659  0.40659  0.00000  0.18683
      16     H     0.40604  0.40604  0.00000  0.18793
      17     H     0.33692  0.33692  0.00000  0.32617

   Total alpha = 28.00000, Total beta = 28.00000, Total charge = -0.00000


*** PSI4 exiting successfully. Buy a developer a beer!
