    -----------------------------------------------------------------------
          Psi4: An Open-Source Ab Initio Electronic Structure Package
                              Psi4 (no tag) Driver

                          Git: Rev {detached?}  

    J. M. Turney, A. C. Simmonett, R. M. Parrish, E. G. Hohenstein,
    F. A. Evangelista, J. T. Fermann, B. J. Mintz, L. A. Burns, J. J. Wilke,
    M. L. Abrams, N. J. Russ, M. L. Leininger, C. L. Janssen, E. T. Seidl,
    W. D. Allen, H. F. Schaefer, R. A. King, E. F. Valeev, C. D. Sherrill,
    and T. D. Crawford, WIREs Comput. Mol. Sci. 2, 556-565 (2012)
    (doi: 10.1002/wcms.93)

                         Additional Contributions by
    A. E. DePrince, M. Saitow, U. Bozkaya, A. Yu. Sokolov
    -----------------------------------------------------------------------


    Psi4 started on: Tue Jul  5 16:32:33 2016

    Process ID:  17482
    PSI4DATADIR: /export131/home/mjharvey/miniconda3/share
    Memory level set to 256.000 MB

  ==> Input File <==

--------------------------------------------------------------------------
set {
	reference rhf
	basis 6-31G*
}


set_num_threads( 1 )
memory 2 gb

molecule MOL {
0 1

H	 1.041132	 0.854540	 1.600638
O	 0.428306	 1.057262	 0.900582
C	 0.489431	 0.077273	 0.000046
C	 -0.764129	 -0.759190	 0.000191
O	 1.436301	 -0.082777	 -0.698801
C	 -2.038368	 0.075731	 -0.000248
H	 -0.717284	 -1.412404	 -0.866059
H	 -0.717458	 -1.411724	 0.866967
H	 -2.086483	 0.712501	 -0.875098
H	 -2.908485	 -0.571682	 -0.000042
H	 -2.086576	 0.713280	 0.874068

	symmetry c1
}
set optking {
	frozen_dihedral = ("
		2 3 4 7
	")
}

ee = energy('scf')
oeprop('DIPOLE', 'QUADRUPOLE', 'MULLIKEN_CHARGES')
f=open( 'psi4out.xyz', 'w' )
f.write( "11  " )
f.write( str(ee) + "\n" )
f.write( MOL.save_string_xyz() )
f.close()
--------------------------------------------------------------------------

  Memory set to   2.000 GiB by Python script.

*** tstart() called on cx1-3-15-3.cx1.hpc.ic.ac.uk
*** at Tue Jul  5 16:32:34 2016


         ---------------------------------------------------------
                                   SCF
            by Justin Turney, Rob Parrish, and Andy Simmonett
                              RHF Reference
                        1 Threads,   2000 MiB Core
         ---------------------------------------------------------

  ==> Geometry <==

    Molecular point group: c1
    Full point group: C1

    Geometry (in Angstrom), charge = 0, multiplicity = 1:

       Center              X                  Y                   Z               Mass       
    ------------   -----------------  -----------------  -----------------  -----------------
           H          1.114963001263     0.757448328927     1.535260552947     1.007825032070
           O          0.502137001263     0.960170328927     0.835204552947    15.994914619560
           C          0.563262001263    -0.019818671073    -0.065331447053    12.000000000000
           C         -0.690297998737    -0.856281671073    -0.065186447053    12.000000000000
           O          1.510132001263    -0.179868671073    -0.764178447053    15.994914619560
           C         -1.964536998737    -0.021360671073    -0.065625447053    12.000000000000
           H         -0.643452998737    -1.509495671073    -0.931436447053     1.007825032070
           H         -0.643626998737    -1.508815671073     0.801589552947     1.007825032070
           H         -2.012651998737     0.615409328927    -0.940475447053     1.007825032070
           H         -2.834653998737    -0.668773671073    -0.065419447053     1.007825032070
           H         -2.012744998737     0.616188328927     0.808690552947     1.007825032070

  Running in c1 symmetry.

  Rotational constants: A =      0.31060  B =      0.13373  C =      0.10394 [cm^-1]
  Rotational constants: A =   9311.43409  B =   4008.99697  C =   3116.11712 [MHz]
  Nuclear repulsion =  180.481510903588287

  Charge       = 0
  Multiplicity = 1
  Electrons    = 40
  Nalpha       = 20
  Nbeta        = 20

  ==> Algorithm <==

  SCF Algorithm Type is DF.
  DIIS enabled.
  MOM disabled.
  Fractional occupation disabled.
  Guess Type is CORE.
  Energy threshold   = 1.00e-06
  Density threshold  = 1.00e-06
  Integral threshold = 0.00e+00

  ==> Primary Basis <==

  Basis Set: 6-31G*
    Number of shells: 42
    Number of basis function: 87
    Number of Cartesian functions: 87
    Spherical Harmonics?: false
    Max angular momentum: 2

  ==> Pre-Iterations <==

   -------------------------------------------------------
    Irrep   Nso     Nmo     Nalpha   Nbeta   Ndocc  Nsocc
   -------------------------------------------------------
     A         87      87       0       0       0       0
   -------------------------------------------------------
    Total      87      87      20      20      20       0
   -------------------------------------------------------

 OEINTS: Overlap, kinetic, potential, dipole, and quadrupole integrals
         stored in file 35.

  ==> Integral Setup <==

  ==> DFJK: Density-Fitted J/K Matrices <==

    J tasked:                  Yes
    K tasked:                  Yes
    wK tasked:                  No
    OpenMP threads:              1
    Integrals threads:           1
    Memory (MB):              1430
    Algorithm:                Core
    Integral Cache:           NONE
    Schwarz Cutoff:          1E-12
    Fitting Condition:       1E-12

   => Auxiliary Basis Set <=

  Basis Set: 
    Number of shells: 174
    Number of basis function: 555
    Number of Cartesian functions: 555
    Spherical Harmonics?: false
    Max angular momentum: 3

  Minimum eigenvalue in the overlap matrix is 3.6639795600E-03.
  Using Symmetric Orthogonalization.
  SCF Guess: Core (One-Electron) Hamiltonian.

  ==> Iterations <==

                           Total Energy        Delta E     RMS |[F,P]|

   @DF-RHF iter   1:  -217.44134162363713   -2.17441e+02   8.22007e-02 
   @DF-RHF iter   2:  -157.15682620058357    6.02845e+01   9.13416e-02 DIIS
   @DF-RHF iter   3:  -249.80621115297203   -9.26494e+01   4.07342e-02 DIIS
   @DF-RHF iter   4:  -240.14020121938171    9.66601e+00   6.11009e-02 DIIS
   @DF-RHF iter   5:  -266.46169347421397   -2.63215e+01   9.76134e-03 DIIS
   @DF-RHF iter   6:  -266.69077093907879   -2.29077e-01   6.66450e-03 DIIS
   @DF-RHF iter   7:  -266.81145013882463   -1.20679e-01   1.53817e-03 DIIS
   @DF-RHF iter   8:  -266.82179681433990   -1.03467e-02   6.19807e-04 DIIS
   @DF-RHF iter   9:  -266.82369566086078   -1.89885e-03   1.93174e-04 DIIS
   @DF-RHF iter  10:  -266.82383944804184   -1.43787e-04   8.02279e-05 DIIS
   @DF-RHF iter  11:  -266.82387570325250   -3.62552e-05   2.01473e-05 DIIS
   @DF-RHF iter  12:  -266.82387853672736   -2.83347e-06   6.46140e-06 DIIS
   @DF-RHF iter  13:  -266.82387888969805   -3.52971e-07   2.04631e-06 DIIS
   @DF-RHF iter  14:  -266.82387893820743   -4.85094e-08   7.89619e-07 DIIS

  ==> Post-Iterations <==

    Orbital Energies (a.u.)
    -----------------------

    Doubly Occupied:                                                      

       1A    -20.600779     2A    -20.558387     3A    -11.380129  
       4A    -11.242526     5A    -11.226278     6A     -1.470828  
       7A     -1.368087     8A     -1.066828     9A     -0.905369  
      10A     -0.823307    11A     -0.695507    12A     -0.683097  
      13A     -0.665901    14A     -0.613541    15A     -0.570481  
      16A     -0.539904    17A     -0.519976    18A     -0.502768  
      19A     -0.486918    20A     -0.440787  

    Virtual:                                                              

      21A      0.165469    22A      0.220460    23A      0.258810  
      24A      0.288191    25A      0.301170    26A      0.316958  
      27A      0.340157    28A      0.397679    29A      0.425540  
      30A      0.503303    31A      0.560107    32A      0.723262  
      33A      0.729853    34A      0.749638    35A      0.797890  
      36A      0.844257    37A      0.873406    38A      0.935910  
      39A      0.968961    40A      0.992761    41A      1.034829  
      42A      1.071772    43A      1.126457    44A      1.139828  
      45A      1.158511    46A      1.172793    47A      1.200930  
      48A      1.234431    49A      1.257734    50A      1.288806  
      51A      1.318657    52A      1.352772    53A      1.369964  
      54A      1.411781    55A      1.630000    56A      1.647488  
      57A      1.746313    58A      1.834651    59A      1.885252  
      60A      1.967796    61A      2.027946    62A      2.070282  
      63A      2.101712    64A      2.122786    65A      2.153411  
      66A      2.219651    67A      2.261777    68A      2.277990  
      69A      2.366885    70A      2.445854    71A      2.583866  
      72A      2.634602    73A      2.679773    74A      2.688421  
      75A      2.778850    76A      2.817997    77A      2.932644  
      78A      3.033413    79A      3.142064    80A      3.233964  
      81A      3.374598    82A      3.473917    83A      4.227765  
      84A      4.492636    85A      4.631916    86A      4.741186  
      87A      4.940812  

    Final Occupation by Irrep:
              A 
    DOCC [    20 ]

  Energy converged.

  @DF-RHF Final Energy:  -266.82387893820743

   => Energetics <=

    Nuclear Repulsion Energy =            180.4815109035882870
    One-Electron Energy =                -721.8880316898092815
    Two-Electron Energy =                 274.5826418480137932
    DFT Exchange-Correlation Energy =       0.0000000000000000
    Empirical Dispersion Energy =           0.0000000000000000
    PCM Polarization Energy =               0.0000000000000000
    EFP Energy =                            0.0000000000000000
    Total Energy =                       -266.8238789382072014

    Alert: EFP and PCM quantities not currently incorporated into SCF psivars.

Properties will be evaluated at   0.000000,   0.000000,   0.000000 Bohr
  ==> Properties <==


Properties computed using the SCF density matrix

  Nuclear Dipole Moment: (a.u.)
     X:    -6.5828      Y:    -1.5881      Z:     1.1330

  Electronic Dipole Moment: (a.u.)
     X:     5.9371      Y:     1.2208      Z:    -0.1964

  Dipole Moment: (a.u.)
     X:    -0.6456      Y:    -0.3673      Z:     0.9366     Total:     1.1954

  Dipole Moment: (Debye)
     X:    -1.6410      Y:    -0.9337      Z:     2.3805     Total:     3.0383


  Saving occupied orbitals to File 180.

*** tstop() called on cx1-3-15-3.cx1.hpc.ic.ac.uk at Tue Jul  5 16:32:37 2016
Module time:
	user time   =       3.21 seconds =       0.05 minutes
	system time =       0.02 seconds =       0.00 minutes
	total time  =          3 seconds =       0.05 minutes
Total time:
	user time   =       3.21 seconds =       0.05 minutes
	system time =       0.02 seconds =       0.00 minutes
	total time  =          3 seconds =       0.05 minutes


Properties will be evaluated at   0.000000,   0.000000,   0.000000 Bohr

Properties computed using the  density matrix

  Nuclear Dipole Moment: (a.u.)
     X:    -6.5828      Y:    -1.5881      Z:     1.1330

  Electronic Dipole Moment: (a.u.)
     X:     5.9371      Y:     1.2208      Z:    -0.1964

  Dipole Moment: (a.u.)
     X:    -0.6456      Y:    -0.3673      Z:     0.9366     Total:     1.1954

  Dipole Moment: (Debye)
     X:    -1.6410      Y:    -0.9337      Z:     2.3805     Total:     3.0383

  Quadrupole Moment: (Debye Ang)
    XX:   -32.2952     YY:   -31.1403     ZZ:   -27.9471
    XY:     1.1881     XZ:     5.4520     YZ:    -0.6869

  Traceless Quadrupole Moment: (Debye Ang)
    XX:    -1.8343     YY:    -0.6794     ZZ:     2.5137
    XY:     1.1881     XZ:     5.4520     YZ:    -0.6869

  Mulliken Charges: (a.u.)
   Center  Symbol    Alpha    Beta     Spin     Total
       1     H     0.26408  0.26408  0.00000  0.47185
       2     O     4.35317  4.35317  0.00000 -0.70635
       3     C     2.64107  2.64107  0.00000  0.71785
       4     C     3.20342  3.20342  0.00000 -0.40685
       5     O     4.25593  4.25593  0.00000 -0.51187
       6     C     3.24712  3.24712  0.00000 -0.49424
       7     H     0.39879  0.39879  0.00000  0.20242
       8     H     0.40680  0.40680  0.00000  0.18640
       9     H     0.41124  0.41124  0.00000  0.17752
      10     H     0.41321  0.41321  0.00000  0.17358
      11     H     0.40516  0.40516  0.00000  0.18969

   Total alpha = 20.00000, Total beta = 20.00000, Total charge =  0.00000


*** PSI4 exiting successfully. Buy a developer a beer!
