    -----------------------------------------------------------------------
          Psi4: An Open-Source Ab Initio Electronic Structure Package
                              Psi4 (no tag) Driver

                          Git: Rev {detached?}  

    J. M. Turney, A. C. Simmonett, R. M. Parrish, E. G. Hohenstein,
    F. A. Evangelista, J. T. Fermann, B. J. Mintz, L. A. Burns, J. J. Wilke,
    M. L. Abrams, N. J. Russ, M. L. Leininger, C. L. Janssen, E. T. Seidl,
    W. D. Allen, H. F. Schaefer, R. A. King, E. F. Valeev, C. D. Sherrill,
    and T. D. Crawford, WIREs Comput. Mol. Sci. 2, 556-565 (2012)
    (doi: 10.1002/wcms.93)

                         Additional Contributions by
    A. E. DePrince, M. Saitow, U. Bozkaya, A. Yu. Sokolov
    -----------------------------------------------------------------------


    Psi4 started on: Tue Jul  5 16:35:40 2016

    Process ID:  18327
    PSI4DATADIR: /export131/home/mjharvey/miniconda3/share
    Memory level set to 256.000 MB

  ==> Input File <==

--------------------------------------------------------------------------
set {
	reference rhf
	basis 6-31G*
}


set_num_threads( 1 )
memory 2 gb

molecule MOL {
0 1

H	 -2.098997	 -0.674324	 -0.616650
O	 -2.035884	 -0.060112	 0.102722
C	 -0.955155	 0.788182	 -0.092531
C	 0.353668	 0.040312	 -0.004810
H	 -0.985057	 1.290372	 -1.054184
H	 -0.974469	 1.533190	 0.688632
F	 0.147935	 -1.270642	 -0.065200
F	 1.143525	 0.369822	 -1.014141
F	 1.002194	 0.287823	 1.114878

	symmetry c1
}
set optking {
	frozen_dihedral = ("
		1 2 3 5
	")
}

ee = energy('scf')
oeprop('DIPOLE', 'QUADRUPOLE', 'MULLIKEN_CHARGES')
f=open( 'psi4out.xyz', 'w' )
f.write( "9  " )
f.write( str(ee) + "\n" )
f.write( MOL.save_string_xyz() )
f.close()
--------------------------------------------------------------------------

  Memory set to   2.000 GiB by Python script.

*** tstart() called on cx1-3-2-1.cx1.hpc.ic.ac.uk
*** at Tue Jul  5 16:35:40 2016


         ---------------------------------------------------------
                                   SCF
            by Justin Turney, Rob Parrish, and Andy Simmonett
                              RHF Reference
                        1 Threads,   2000 MiB Core
         ---------------------------------------------------------

  ==> Geometry <==

    Molecular point group: c1
    Full point group: C1

    Geometry (in Angstrom), charge = 0, multiplicity = 1:

       Center              X                  Y                   Z               Mass       
    ------------   -----------------  -----------------  -----------------  -----------------
           H         -2.096035879898    -0.669330012827    -0.618251743300     1.007825032070
           O         -2.032922879898    -0.055118012827     0.101120256700    15.994914619560
           C         -0.952193879898     0.793175987173    -0.094132743300    12.000000000000
           C          0.356629120102     0.045305987173    -0.006411743300    12.000000000000
           H         -0.982095879898     1.295365987173    -1.055785743300     1.007825032070
           H         -0.971507879898     1.538183987173     0.687030256700     1.007825032070
           F          0.150896120102    -1.265648012827    -0.066801743300    18.998403224000
           F          1.146486120102     0.374815987173    -1.015742743300    18.998403224000
           F          1.005155120102     0.292816987173     1.113276256700    18.998403224000

  Running in c1 symmetry.

  Rotational constants: A =      0.18263  B =      0.09637  C =      0.09555 [cm^-1]
  Rotational constants: A =   5475.24941  B =   2889.11868  C =   2864.49630 [MHz]
  Nuclear repulsion =  277.510146896597746

  Charge       = 0
  Multiplicity = 1
  Electrons    = 50
  Nalpha       = 25
  Nbeta        = 25

  ==> Algorithm <==

  SCF Algorithm Type is DF.
  DIIS enabled.
  MOM disabled.
  Fractional occupation disabled.
  Guess Type is CORE.
  Energy threshold   = 1.00e-06
  Density threshold  = 1.00e-06
  Integral threshold = 0.00e+00

  ==> Primary Basis <==

  Basis Set: 6-31G*
    Number of shells: 42
    Number of basis function: 96
    Number of Cartesian functions: 96
    Spherical Harmonics?: false
    Max angular momentum: 2

  ==> Pre-Iterations <==

   -------------------------------------------------------
    Irrep   Nso     Nmo     Nalpha   Nbeta   Ndocc  Nsocc
   -------------------------------------------------------
     A         96      96       0       0       0       0
   -------------------------------------------------------
    Total      96      96      25      25      25       0
   -------------------------------------------------------

 OEINTS: Overlap, kinetic, potential, dipole, and quadrupole integrals
         stored in file 35.

  ==> Integral Setup <==

  ==> DFJK: Density-Fitted J/K Matrices <==

    J tasked:                  Yes
    K tasked:                  Yes
    wK tasked:                  No
    OpenMP threads:              1
    Integrals threads:           1
    Memory (MB):              1430
    Algorithm:                Core
    Integral Cache:           NONE
    Schwarz Cutoff:          1E-12
    Fitting Condition:       1E-12

   => Auxiliary Basis Set <=

  Basis Set: 
    Number of shells: 171
    Number of basis function: 561
    Number of Cartesian functions: 561
    Spherical Harmonics?: false
    Max angular momentum: 3

  Minimum eigenvalue in the overlap matrix is 1.7064027444E-03.
  Using Symmetric Orthogonalization.
  SCF Guess: Core (One-Electron) Hamiltonian.

  ==> Iterations <==

                           Total Energy        Delta E     RMS |[F,P]|

   @DF-RHF iter   1:  -400.20915259565407   -4.00209e+02   8.99847e-02 
   @DF-RHF iter   2:  -274.90475776405464    1.25304e+02   9.71037e-02 DIIS
   @DF-RHF iter   3:  -397.23260272716988   -1.22328e+02   6.48577e-02 DIIS
   @DF-RHF iter   4:  -449.20310818022421   -5.19705e+01   1.94305e-02 DIIS
   @DF-RHF iter   5:  -450.43490478188454   -1.23180e+00   7.81053e-03 DIIS
   @DF-RHF iter   6:  -450.57234043258603   -1.37436e-01   4.27115e-03 DIIS
   @DF-RHF iter   7:  -450.64612913704553   -7.37887e-02   1.26510e-03 DIIS
   @DF-RHF iter   8:  -450.65501778964534   -8.88865e-03   2.62027e-04 DIIS
   @DF-RHF iter   9:  -450.65552621567252   -5.08426e-04   1.00640e-04 DIIS
   @DF-RHF iter  10:  -450.65557568394848   -4.94683e-05   3.81206e-05 DIIS
   @DF-RHF iter  11:  -450.65558613091792   -1.04470e-05   7.27939e-06 DIIS
   @DF-RHF iter  12:  -450.65558660867742   -4.77759e-07   2.04678e-06 DIIS
   @DF-RHF iter  13:  -450.65558663372275   -2.50453e-08   5.38137e-07 DIIS

  ==> Post-Iterations <==

    Orbital Energies (a.u.)
    -----------------------

    Doubly Occupied:                                                      

       1A    -26.342392     2A    -26.341450     3A    -26.339760  
       4A    -20.587047     5A    -11.499757     6A    -11.307087  
       7A     -1.739995     8A     -1.639140     9A     -1.636107  
      10A     -1.399834    11A     -1.047830    12A     -0.922386  
      13A     -0.830905    14A     -0.827698    15A     -0.806403  
      16A     -0.724684    17A     -0.711703    18A     -0.700081  
      19A     -0.663360    20A     -0.660007    21A     -0.642022  
      22A     -0.626303    23A     -0.608091    24A     -0.527177  
      25A     -0.479900  

    Virtual:                                                              

      26A      0.211599    27A      0.269243    28A      0.279276  
      29A      0.324758    30A      0.425345    31A      0.437840  
      32A      0.478316    33A      0.508962    34A      0.695425  
      35A      0.741361    36A      0.756446    37A      0.773924  
      38A      0.814476    39A      0.902398    40A      0.936012  
      41A      1.051258    42A      1.127322    43A      1.138910  
      44A      1.188198    45A      1.203695    46A      1.320002  
      47A      1.337099    48A      1.345611    49A      1.371183  
      50A      1.428151    51A      1.480500    52A      1.590552  
      53A      1.620469    54A      1.630747    55A      1.638037  
      56A      1.670393    57A      1.672018    58A      1.686640  
      59A      1.747740    60A      1.903903    61A      1.921469  
      62A      1.969629    63A      2.025321    64A      2.032443  
      65A      2.121121    66A      2.124957    67A      2.143663  
      68A      2.169843    69A      2.243735    70A      2.284483  
      71A      2.297618    72A      2.353688    73A      2.367953  
      74A      2.401339    75A      2.405570    76A      2.417899  
      77A      2.460568    78A      2.587276    79A      2.658911  
      80A      2.675273    81A      2.827863    82A      2.888561  
      83A      2.917166    84A      3.106982    85A      3.132943  
      86A      3.175551    87A      3.227327    88A      3.419280  
      89A      3.429191    90A      3.434832    91A      4.130553  
      92A      4.583951    93A      4.836596    94A      4.919602  
      95A      4.989951    96A      5.858496  

    Final Occupation by Irrep:
              A 
    DOCC [    25 ]

  Energy converged.

  @DF-RHF Final Energy:  -450.65558663372275

   => Energetics <=

    Nuclear Repulsion Energy =            277.5101468965977460
    One-Electron Energy =               -1177.1091688821034040
    Two-Electron Energy =                 448.9434353517826821
    DFT Exchange-Correlation Energy =       0.0000000000000000
    Empirical Dispersion Energy =           0.0000000000000000
    PCM Polarization Energy =               0.0000000000000000
    EFP Energy =                            0.0000000000000000
    Total Energy =                       -450.6555866337230327

    Alert: EFP and PCM quantities not currently incorporated into SCF psivars.

Properties will be evaluated at   0.000000,   0.000000,   0.000000 Bohr
  ==> Properties <==


Properties computed using the SCF density matrix

  Nuclear Dipole Moment: (a.u.)
     X:    -5.9783      Y:     2.5928      Z:    -0.9538

  Electronic Dipole Moment: (a.u.)
     X:     5.6805      Y:    -2.2447      Z:     0.3690

  Dipole Moment: (a.u.)
     X:    -0.2978      Y:     0.3481      Z:    -0.5847     Total:     0.7428

  Dipole Moment: (Debye)
     X:    -0.7569      Y:     0.8847      Z:    -1.4863     Total:     1.8880


  Saving occupied orbitals to File 180.

*** tstop() called on cx1-3-2-1.cx1.hpc.ic.ac.uk at Tue Jul  5 16:35:44 2016
Module time:
	user time   =       3.87 seconds =       0.06 minutes
	system time =       0.04 seconds =       0.00 minutes
	total time  =          4 seconds =       0.07 minutes
Total time:
	user time   =       3.87 seconds =       0.06 minutes
	system time =       0.04 seconds =       0.00 minutes
	total time  =          4 seconds =       0.07 minutes


Properties will be evaluated at   0.000000,   0.000000,   0.000000 Bohr

Properties computed using the  density matrix

  Nuclear Dipole Moment: (a.u.)
     X:    -5.9783      Y:     2.5928      Z:    -0.9538

  Electronic Dipole Moment: (a.u.)
     X:     5.6805      Y:    -2.2447      Z:     0.3690

  Dipole Moment: (a.u.)
     X:    -0.2978      Y:     0.3481      Z:    -0.5847     Total:     0.7428

  Dipole Moment: (Debye)
     X:    -0.7569      Y:     0.8847      Z:    -1.4863     Total:     1.8880

  Quadrupole Moment: (Debye Ang)
    XX:   -35.7383     YY:   -30.6241     ZZ:   -32.1192
    XY:     0.4081     XZ:     3.4027     YZ:     1.1693

  Traceless Quadrupole Moment: (Debye Ang)
    XX:    -2.9111     YY:     2.2031     ZZ:     0.7080
    XY:     0.4081     XZ:     3.4027     YZ:     1.1693

  Mulliken Charges: (a.u.)
   Center  Symbol    Alpha    Beta     Spin     Total
       1     H     0.27340  0.27340  0.00000  0.45319
       2     O     4.35862  4.35862  0.00000 -0.71725
       3     C     3.07655  3.07655  0.00000 -0.15310
       4     C     2.44690  2.44690  0.00000  1.10621
       5     H     0.40560  0.40560  0.00000  0.18881
       6     H     0.39160  0.39160  0.00000  0.21681
       7     F     4.68452  4.68452  0.00000 -0.36904
       8     F     4.68426  4.68426  0.00000 -0.36852
       9     F     4.67855  4.67855  0.00000 -0.35710

   Total alpha = 25.00000, Total beta = 25.00000, Total charge = -0.00000


*** PSI4 exiting successfully. Buy a developer a beer!
