    -----------------------------------------------------------------------
          Psi4: An Open-Source Ab Initio Electronic Structure Package
                              Psi4 (no tag) Driver

                          Git: Rev {detached?}  

    J. M. Turney, A. C. Simmonett, R. M. Parrish, E. G. Hohenstein,
    F. A. Evangelista, J. T. Fermann, B. J. Mintz, L. A. Burns, J. J. Wilke,
    M. L. Abrams, N. J. Russ, M. L. Leininger, C. L. Janssen, E. T. Seidl,
    W. D. Allen, H. F. Schaefer, R. A. King, E. F. Valeev, C. D. Sherrill,
    and T. D. Crawford, WIREs Comput. Mol. Sci. 2, 556-565 (2012)
    (doi: 10.1002/wcms.93)

                         Additional Contributions by
    A. E. DePrince, M. Saitow, U. Bozkaya, A. Yu. Sokolov
    -----------------------------------------------------------------------


    Psi4 started on: Tue Jul  5 17:44:26 2016

    Process ID:  22093
    PSI4DATADIR: /export131/home/mjharvey/miniconda3/share
    Memory level set to 256.000 MB

  ==> Input File <==

--------------------------------------------------------------------------
set {
	reference rhf
	basis 6-31G*
}


set_num_threads( 1 )
memory 2 gb

molecule MOL {
0 1

H	 -3.489899	 1.228218	 -1.029938
O	 -3.452007	 0.283848	 -0.965577
C	 -3.181085	 -0.079926	 0.364119
C	 -1.765924	 0.277073	 0.805136
H	 -3.327791	 -1.152017	 0.410903
H	 -3.905698	 0.375695	 1.036898
C	 -1.534759	 1.781140	 0.956345
H	 -1.551507	 -0.224423	 1.749323
H	 -1.067087	 -0.133880	 0.078524
C	 -1.582516	 2.532781	 -0.375546
H	 -0.575735	 1.947891	 1.437153
H	 -2.287897	 2.189522	 1.628209
C	 -2.798430	 2.155885	 -1.226185
H	 -1.584200	 3.602122	 -0.178248
H	 -0.673546	 2.327886	 -0.939813
C	 -2.794175	 0.714565	 -1.748425
H	 -2.874718	 2.841946	 -2.068322
H	 -3.697924	 2.304812	 -0.632428
C	 -4.120400	 0.254704	 -2.356751
H	 -2.540217	 0.051003	 -0.925333
H	 -2.000692	 0.601113	 -2.484439
H	 -4.935371	 0.368610	 -1.646830
H	 -4.072753	 -0.792850	 -2.638171
H	 -4.376326	 0.818754	 -3.247545

	symmetry c1
}
set optking {
	frozen_dihedral = ("
		20 16 13 17,
		17 13 10 7,
		13 10 7 11,
		11 7 4 3,
		1 2 3 5
	")
}

ee = energy('scf')
oeprop('DIPOLE', 'QUADRUPOLE', 'MULLIKEN_CHARGES')
f=open( 'psi4out.xyz', 'w' )
f.write( "24  " )
f.write( str(ee) + "\n" )
f.write( MOL.save_string_xyz() )
f.close()
--------------------------------------------------------------------------

  Memory set to   2.000 GiB by Python script.

*** tstart() called on cx1-1-3-2.cx1.hpc.ic.ac.uk
*** at Tue Jul  5 17:44:26 2016


         ---------------------------------------------------------
                                   SCF
            by Justin Turney, Rob Parrish, and Andy Simmonett
                              RHF Reference
                        1 Threads,   2000 MiB Core
         ---------------------------------------------------------

  ==> Geometry <==

    Molecular point group: c1
    Full point group: C1

    Geometry (in Angstrom), charge = 0, multiplicity = 1:

       Center              X                  Y                   Z               Mass       
    ------------   -----------------  -----------------  -----------------  -----------------
           H         -0.804407688676     0.258040144799    -0.444819654268     1.007825032070
           O         -0.766515688676    -0.686329855201    -0.380458654268    15.994914619560
           C         -0.495593688676    -1.050103855201     0.949237345732    12.000000000000
           C          0.919567311324    -0.693104855201     1.390254345732    12.000000000000
           H         -0.642299688676    -2.122194855201     0.996021345732     1.007825032070
           H         -1.220206688676    -0.594482855201     1.622016345732     1.007825032070
           C          1.150732311324     0.810962144799     1.541463345732    12.000000000000
           H          1.133984311324    -1.194600855201     2.334441345732     1.007825032070
           H          1.618404311324    -1.104057855201     0.663642345732     1.007825032070
           C          1.102975311324     1.562603144799     0.209572345732    12.000000000000
           H          2.109756311324     0.977713144799     2.022271345732     1.007825032070
           H          0.397594311324     1.219344144799     2.213327345732     1.007825032070
           C         -0.112938688676     1.185707144799    -0.641066654268    12.000000000000
           H          1.101291311324     2.631944144799     0.406870345732     1.007825032070
           H          2.011945311324     1.357708144799    -0.354694654268     1.007825032070
           C         -0.108683688676    -0.255612855201    -1.163306654268    12.000000000000
           H         -0.189226688676     1.871768144799    -1.483203654268     1.007825032070
           H         -1.012432688676     1.334634144799    -0.047309654268     1.007825032070
           C         -1.434908688676    -0.715473855201    -1.771632654268    12.000000000000
           H          0.145274311324    -0.919174855201    -0.340214654268     1.007825032070
           H          0.684799311324    -0.369064855201    -1.899320654268     1.007825032070
           H         -2.249879688676    -0.601567855201    -1.061711654268     1.007825032070
           H         -1.387261688676    -1.763027855201    -2.053052654268     1.007825032070
           H         -1.690834688676    -0.151423855201    -2.662426654268     1.007825032070

  Running in c1 symmetry.

  Rotational constants: A =      0.11777  B =      0.06395  C =      0.04665 [cm^-1]
  Rotational constants: A =   3530.62808  B =   1917.18909  C =   1398.61728 [MHz]
  Nuclear repulsion =  478.989126906258434

  Charge       = 0
  Multiplicity = 1
  Electrons    = 66
  Nalpha       = 33
  Nbeta        = 33

  ==> Algorithm <==

  SCF Algorithm Type is DF.
  DIIS enabled.
  MOM disabled.
  Fractional occupation disabled.
  Guess Type is CORE.
  Energy threshold   = 1.00e-06
  Density threshold  = 1.00e-06
  Integral threshold = 0.00e+00

  ==> Primary Basis <==

  Basis Set: 6-31G*
    Number of shells: 80
    Number of basis function: 152
    Number of Cartesian functions: 152
    Spherical Harmonics?: false
    Max angular momentum: 2

  ==> Pre-Iterations <==

   -------------------------------------------------------
    Irrep   Nso     Nmo     Nalpha   Nbeta   Ndocc  Nsocc
   -------------------------------------------------------
     A        152     152       0       0       0       0
   -------------------------------------------------------
    Total     152     152      33      33      33       0
   -------------------------------------------------------

 OEINTS: Overlap, kinetic, potential, dipole, and quadrupole integrals
         stored in file 35.

  ==> Integral Setup <==

  ==> DFJK: Density-Fitted J/K Matrices <==

    J tasked:                  Yes
    K tasked:                  Yes
    wK tasked:                  No
    OpenMP threads:              1
    Integrals threads:           1
    Memory (MB):              1430
    Algorithm:                Core
    Integral Cache:           NONE
    Schwarz Cutoff:          1E-12
    Fitting Condition:       1E-12

   => Auxiliary Basis Set <=

  Basis Set: 
    Number of shells: 336
    Number of basis function: 1048
    Number of Cartesian functions: 1048
    Spherical Harmonics?: false
    Max angular momentum: 3

  Minimum eigenvalue in the overlap matrix is 1.3079845471E-03.
  Using Symmetric Orthogonalization.
  SCF Guess: Core (One-Electron) Hamiltonian.

  ==> Iterations <==

                           Total Energy        Delta E     RMS |[F,P]|

   @DF-RHF iter   1:  -216.93398815273235   -2.16934e+02   7.86790e-02 
   @DF-RHF iter   2:  -167.24871124893946    4.96853e+01   6.20770e-02 DIIS
   @DF-RHF iter   3:  -234.24564237397510   -6.69969e+01   7.49218e-02 DIIS
   @DF-RHF iter   4:  -323.06148658468567   -8.88158e+01   3.21853e-02 DIIS
   @DF-RHF iter   5:  -328.47309509983370   -5.41161e+00   3.34591e-02 DIIS
   @DF-RHF iter   6:  -346.34247792824090   -1.78694e+01   9.14280e-03 DIIS
   @DF-RHF iter   7:  -347.71244848515653   -1.36997e+00   4.16656e-03 DIIS
   @DF-RHF iter   8:  -347.92096146027916   -2.08513e-01   1.01740e-03 DIIS
   @DF-RHF iter   9:  -347.93835785223837   -1.73964e-02   3.51815e-04 DIIS
   @DF-RHF iter  10:  -347.94114315958882   -2.78531e-03   1.16616e-04 DIIS
   @DF-RHF iter  11:  -347.94164467884002   -5.01519e-04   4.65362e-05 DIIS
   @DF-RHF iter  12:  -347.94177854701206   -1.33868e-04   2.19784e-05 DIIS
   @DF-RHF iter  13:  -347.94181089588892   -3.23489e-05   8.24474e-06 DIIS
   @DF-RHF iter  14:  -347.94181653995395   -5.64407e-06   3.83797e-06 DIIS
   @DF-RHF iter  15:  -347.94181767184568   -1.13189e-06   1.38005e-06 DIIS
   @DF-RHF iter  16:  -347.94181783576585   -1.63920e-07   5.16649e-07 DIIS

  ==> Post-Iterations <==

    Orbital Energies (a.u.)
    -----------------------

    Doubly Occupied:                                                      

       1A    -20.640184     2A    -11.308839     3A    -11.286604  
       4A    -11.238349     5A    -11.237603     6A    -11.232793  
       7A    -11.232151     8A    -11.174310     9A     -1.832592  
      10A     -1.217421    11A     -1.146134    12A     -1.058371  
      13A     -1.046364    14A     -0.975114    15A     -0.933175  
      16A     -0.804888    17A     -0.790185    18A     -0.762692  
      19A     -0.717640    20A     -0.657439    21A     -0.636683  
      22A     -0.609910    23A     -0.590654    24A     -0.582416  
      25A     -0.534079    26A     -0.533589    27A     -0.515748  
      28A     -0.486407    29A     -0.482144    30A     -0.479415  
      31A     -0.439695    32A     -0.310971    33A     -0.075090  

    Virtual:                                                              

      34A      0.202889    35A      0.220741    36A      0.241361  
      37A      0.253192    38A      0.275582    39A      0.286374  
      40A      0.296041    41A      0.302267    42A      0.304196  
      43A      0.316196    44A      0.317967    45A      0.336806  
      46A      0.340667    47A      0.353695    48A      0.367681  
      49A      0.395997    50A      0.406592    51A      0.419156  
      52A      0.431322    53A      0.462890    54A      0.466928  
      55A      0.533783    56A      0.596156    57A      0.635638  
      58A      0.685640    59A      0.699230    60A      0.725578  
      61A      0.744012    62A      0.790298    63A      0.793910  
      64A      0.827219    65A      0.868839    66A      0.888105  
      67A      0.899283    68A      0.914494    69A      0.919129  
      70A      0.974688    71A      0.983496    72A      1.012895  
      73A      1.029140    74A      1.033618    75A      1.075660  
      76A      1.087850    77A      1.102447    78A      1.131087  
      79A      1.139077    80A      1.143533    81A      1.157185  
      82A      1.178548    83A      1.183069    84A      1.188103  
      85A      1.204035    86A      1.217472    87A      1.227443  
      88A      1.236045    89A      1.242918    90A      1.259923  
      91A      1.281293    92A      1.306710    93A      1.336912  
      94A      1.449330    95A      1.488878    96A      1.499247  
      97A      1.510056    98A      1.585065    99A      1.706454  
     100A      1.756008   101A      1.778397   102A      1.792741  
     103A      1.851023   104A      1.894188   105A      1.926048  
     106A      1.945853   107A      2.005309   108A      2.068210  
     109A      2.099518   110A      2.140226   111A      2.186103  
     112A      2.194858   113A      2.217429   114A      2.246965  
     115A      2.271858   116A      2.284922   117A      2.332432  
     118A      2.351672   119A      2.394920   120A      2.419618  
     121A      2.435698   122A      2.522784   123A      2.542783  
     124A      2.556157   125A      2.607977   126A      2.637668  
     127A      2.657875   128A      2.672395   129A      2.726243  
     130A      2.757460   131A      2.773762   132A      2.796125  
     133A      2.852109   134A      2.939985   135A      2.983833  
     136A      2.992148   137A      3.020586   138A      3.068868  
     139A      3.108074   140A      3.186810   141A      3.370967  
     142A      3.495022   143A      3.603809   144A      3.801450  
     145A      4.564789   146A      4.695145   147A      4.712822  
     148A      4.818842   149A      4.931641   150A      5.001855  
     151A      5.071073   152A      5.157644  

    Final Occupation by Irrep:
              A 
    DOCC [    33 ]

  Energy converged.

  @DF-RHF Final Energy:  -347.94181783576585

   => Energetics <=

    Nuclear Repulsion Energy =            478.9891269062584342
    One-Electron Energy =               -1418.7226366788670475
    Two-Electron Energy =                 591.7916919368432218
    DFT Exchange-Correlation Energy =       0.0000000000000000
    Empirical Dispersion Energy =           0.0000000000000000
    PCM Polarization Energy =               0.0000000000000000
    EFP Energy =                            0.0000000000000000
    Total Energy =                       -347.9418178357653915

    Alert: EFP and PCM quantities not currently incorporated into SCF psivars.

Properties will be evaluated at   0.000000,   0.000000,   0.000000 Bohr
  ==> Properties <==


Properties computed using the SCF density matrix

  Nuclear Dipole Moment: (a.u.)
     X:     0.0024      Y:     0.7763      Z:    -0.0845

  Electronic Dipole Moment: (a.u.)
     X:    -0.1992      Y:    -0.3320      Z:     1.7970

  Dipole Moment: (a.u.)
     X:    -0.1968      Y:     0.4443      Z:     1.7125     Total:     1.7801

  Dipole Moment: (Debye)
     X:    -0.5002      Y:     1.1293      Z:     4.3528     Total:     4.5246


  Saving occupied orbitals to File 180.

*** tstop() called on cx1-1-3-2.cx1.hpc.ic.ac.uk at Tue Jul  5 17:44:50 2016
Module time:
	user time   =      22.69 seconds =       0.38 minutes
	system time =       0.25 seconds =       0.00 minutes
	total time  =         24 seconds =       0.40 minutes
Total time:
	user time   =      22.69 seconds =       0.38 minutes
	system time =       0.25 seconds =       0.00 minutes
	total time  =         24 seconds =       0.40 minutes


Properties will be evaluated at   0.000000,   0.000000,   0.000000 Bohr

Properties computed using the  density matrix

  Nuclear Dipole Moment: (a.u.)
     X:     0.0024      Y:     0.7763      Z:    -0.0845

  Electronic Dipole Moment: (a.u.)
     X:    -0.1992      Y:    -0.3320      Z:     1.7970

  Dipole Moment: (a.u.)
     X:    -0.1968      Y:     0.4443      Z:     1.7125     Total:     1.7801

  Dipole Moment: (Debye)
     X:    -0.5002      Y:     1.1293      Z:     4.3528     Total:     4.5246

  Quadrupole Moment: (Debye Ang)
    XX:   -56.9284     YY:   -52.0006     ZZ:   -62.1482
    XY:     0.5761     XZ:    -2.8956     YZ:    -2.8328

  Traceless Quadrupole Moment: (Debye Ang)
    XX:     0.0974     YY:     5.0252     ZZ:    -5.1225
    XY:     0.5761     XZ:    -2.8956     YZ:    -2.8328

  Mulliken Charges: (a.u.)
   Center  Symbol    Alpha    Beta     Spin     Total
       1     H     0.33635  0.33635  0.00000  0.32731
       2     O     4.08003  4.08003  0.00000 -0.16005
       3     C     3.05941  3.05941  0.00000 -0.11882
       4     C     3.17868  3.17868  0.00000 -0.35735
       5     H     0.39079  0.39079  0.00000  0.21843
       6     H     0.40149  0.40149  0.00000  0.19702
       7     C     3.16219  3.16219  0.00000 -0.32437
       8     H     0.42682  0.42682  0.00000  0.14636
       9     H     0.37684  0.37684  0.00000  0.24632
      10     C     3.13786  3.13786  0.00000 -0.27572
      11     H     0.40914  0.40914  0.00000  0.18172
      12     H     0.42586  0.42586  0.00000  0.14829
      13     C     3.25740  3.25740  0.00000 -0.51479
      14     H     0.41728  0.41728  0.00000  0.16544
      15     H     0.40653  0.40653  0.00000  0.18693
      16     C     3.10187  3.10187  0.00000 -0.20373
      17     H     0.38393  0.38393  0.00000  0.23214
      18     H     0.37139  0.37139  0.00000  0.25721
      19     C     3.30586  3.30586  0.00000 -0.61173
      20     H     0.57899  0.57899  0.00000 -0.15798
      21     H     0.48119  0.48119  0.00000  0.03762
      22     H     0.43830  0.43830  0.00000  0.12341
      23     H     0.40223  0.40223  0.00000  0.19554
      24     H     0.46958  0.46958  0.00000  0.06083

   Total alpha = 33.00000, Total beta = 33.00000, Total charge =  0.00000


*** PSI4 exiting successfully. Buy a developer a beer!
