    -----------------------------------------------------------------------
          Psi4: An Open-Source Ab Initio Electronic Structure Package
                              Psi4 (no tag) Driver

                          Git: Rev {detached?}  

    J. M. Turney, A. C. Simmonett, R. M. Parrish, E. G. Hohenstein,
    F. A. Evangelista, J. T. Fermann, B. J. Mintz, L. A. Burns, J. J. Wilke,
    M. L. Abrams, N. J. Russ, M. L. Leininger, C. L. Janssen, E. T. Seidl,
    W. D. Allen, H. F. Schaefer, R. A. King, E. F. Valeev, C. D. Sherrill,
    and T. D. Crawford, WIREs Comput. Mol. Sci. 2, 556-565 (2012)
    (doi: 10.1002/wcms.93)

                         Additional Contributions by
    A. E. DePrince, M. Saitow, U. Bozkaya, A. Yu. Sokolov
    -----------------------------------------------------------------------


    Psi4 started on: Tue Jul  5 16:26:37 2016

    Process ID:  22757
    PSI4DATADIR: /export131/home/mjharvey/miniconda3/share
    Memory level set to 256.000 MB

  ==> Input File <==

--------------------------------------------------------------------------
set {
	reference rhf
	basis 6-31G*
}


set_num_threads( 1 )
memory 2 gb

molecule MOL {
0 1

H	 1.087164	 -2.104261	 0.000000
C	 0.613501	 -1.136684	 0.000000
N	 -0.706516	 -1.147260	 0.000000
C	 1.392615	 0.010674	 0.000000
C	 -1.355142	 0.005585	 0.000000
C	 0.704018	 1.215741	 0.000000
C	 2.900674	 -0.050852	 -0.000000
C	 -0.677058	 1.218913	 0.000000
C	 -2.860500	 -0.067635	 -0.000000
H	 1.243895	 2.147641	 0.000000
H	 3.315694	 0.438784	 -0.875840
H	 3.249352	 -1.077167	 -0.000000
H	 3.315694	 0.438784	 0.875840
H	 -1.222289	 2.144913	 0.000000
H	 -3.209302	 -0.606568	 -0.874192
H	 -3.310026	 0.918515	 -0.000000
H	 -3.209302	 -0.606568	 0.874192

	symmetry c1
}
ee = energy('scf')
oeprop('DIPOLE', 'QUADRUPOLE', 'MULLIKEN_CHARGES')
oeprop('GRID_ESP')
f=open( 'psi4out.xyz', 'w' )
f.write( "17  " )
f.write( str(ee) + "\n" )
f.write( MOL.save_string_xyz() )
f.close()
--------------------------------------------------------------------------

  Memory set to   2.000 GiB by Python script.

*** tstart() called on cx1-3-15-4.cx1.hpc.ic.ac.uk
*** at Tue Jul  5 16:26:37 2016


         ---------------------------------------------------------
                                   SCF
            by Justin Turney, Rob Parrish, and Andy Simmonett
                              RHF Reference
                        1 Threads,   2000 MiB Core
         ---------------------------------------------------------

  ==> Geometry <==

    Molecular point group: c1
    Full point group: Cs

    Geometry (in Angstrom), charge = 0, multiplicity = 1:

       Center              X                  Y                   Z               Mass       
    ------------   -----------------  -----------------  -----------------  -----------------
           H          1.087213997499    -2.104177566590     0.000000000000     1.007825032070
           C          0.613550997499    -1.136600566590     0.000000000000    12.000000000000
           N         -0.706466002501    -1.147176566590     0.000000000000    14.003074004780
           C          1.392664997499     0.010757433410     0.000000000000    12.000000000000
           C         -1.355092002501     0.005668433410     0.000000000000    12.000000000000
           C          0.704067997499     1.215824433410     0.000000000000    12.000000000000
           C          2.900723997499    -0.050768566590     0.000000000000    12.000000000000
           C         -0.677008002501     1.218996433410     0.000000000000    12.000000000000
           C         -2.860450002501    -0.067551566590     0.000000000000    12.000000000000
           H          1.243944997499     2.147724433410     0.000000000000     1.007825032070
           H          3.315743997499     0.438867433410    -0.875840000000     1.007825032070
           H          3.249401997499    -1.077083566590     0.000000000000     1.007825032070
           H          3.315743997499     0.438867433410     0.875840000000     1.007825032070
           H         -1.222239002501     2.144996433410     0.000000000000     1.007825032070
           H         -3.209252002501    -0.606484566590    -0.874192000000     1.007825032070
           H         -3.309976002501     0.918598433410     0.000000000000     1.007825032070
           H         -3.209252002501    -0.606484566590     0.874192000000     1.007825032070

  Running in c1 symmetry.

  Rotational constants: A =      0.18824  B =      0.04967  C =      0.03987 [cm^-1]
  Rotational constants: A =   5643.15632  B =   1489.11223  C =   1195.41162 [MHz]
  Nuclear repulsion =  346.079473191295563

  Charge       = 0
  Multiplicity = 1
  Electrons    = 58
  Nalpha       = 29
  Nbeta        = 29

  ==> Algorithm <==

  SCF Algorithm Type is DF.
  DIIS enabled.
  MOM disabled.
  Fractional occupation disabled.
  Guess Type is CORE.
  Energy threshold   = 1.00e-06
  Density threshold  = 1.00e-06
  Integral threshold = 0.00e+00

  ==> Primary Basis <==

  Basis Set: 6-31G*
    Number of shells: 66
    Number of basis function: 138
    Number of Cartesian functions: 138
    Spherical Harmonics?: false
    Max angular momentum: 2

  ==> Pre-Iterations <==

   -------------------------------------------------------
    Irrep   Nso     Nmo     Nalpha   Nbeta   Ndocc  Nsocc
   -------------------------------------------------------
     A        138     138       0       0       0       0
   -------------------------------------------------------
    Total     138     138      29      29      29       0
   -------------------------------------------------------

 OEINTS: Overlap, kinetic, potential, dipole, and quadrupole integrals
         stored in file 35.

  ==> Integral Setup <==

  ==> DFJK: Density-Fitted J/K Matrices <==

    J tasked:                  Yes
    K tasked:                  Yes
    wK tasked:                  No
    OpenMP threads:              1
    Integrals threads:           1
    Memory (MB):              1430
    Algorithm:                Core
    Integral Cache:           NONE
    Schwarz Cutoff:          1E-12
    Fitting Condition:       1E-12

   => Auxiliary Basis Set <=

  Basis Set: 
    Number of shells: 273
    Number of basis function: 873
    Number of Cartesian functions: 873
    Spherical Harmonics?: false
    Max angular momentum: 3

  Minimum eigenvalue in the overlap matrix is 6.8644497172E-04.
  Using Symmetric Orthogonalization.
  SCF Guess: Core (One-Electron) Hamiltonian.

  ==> Iterations <==

                           Total Energy        Delta E     RMS |[F,P]|

   @DF-RHF iter   1:  -234.01955780116708   -2.34020e+02   7.12527e-02 
   @DF-RHF iter   2:  -216.44855291321147    1.75710e+01   5.74926e-02 DIIS
   @DF-RHF iter   3:  -284.04452632262274   -6.75960e+01   4.57145e-02 DIIS
   @DF-RHF iter   4:  -321.91541447306116   -3.78709e+01   1.66734e-02 DIIS
   @DF-RHF iter   5:  -324.05558133916878   -2.14017e+00   8.28212e-03 DIIS
   @DF-RHF iter   6:  -324.73058618990223   -6.75005e-01   1.93351e-03 DIIS
   @DF-RHF iter   7:  -324.76444400993950   -3.38578e-02   8.46167e-04 DIIS
   @DF-RHF iter   8:  -324.77223278802734   -7.78878e-03   2.40106e-04 DIIS
   @DF-RHF iter   9:  -324.77302845133937   -7.95663e-04   1.01071e-04 DIIS
   @DF-RHF iter  10:  -324.77316564883432   -1.37197e-04   2.87258e-05 DIIS
   @DF-RHF iter  11:  -324.77319046882127   -2.48200e-05   1.40040e-05 DIIS
   @DF-RHF iter  12:  -324.77319831369283   -7.84487e-06   6.49039e-06 DIIS
   @DF-RHF iter  13:  -324.77320058161609   -2.26792e-06   2.39730e-06 DIIS
   @DF-RHF iter  14:  -324.77320081553154   -2.33915e-07   7.39355e-07 DIIS

  ==> Post-Iterations <==

    Orbital Energies (a.u.)
    -----------------------

    Doubly Occupied:                                                      

       1A    -15.551139     2A    -11.268797     3A    -11.259822  
       4A    -11.245735     5A    -11.237184     6A    -11.229045  
       7A    -11.226826     8A    -11.215097     9A     -1.258925  
      10A     -1.096553    11A     -1.057977    12A     -0.984284  
      13A     -0.912427    14A     -0.853597    15A     -0.806697  
      16A     -0.684400    17A     -0.668598    18A     -0.625272  
      19A     -0.589874    20A     -0.574104    21A     -0.573705  
      22A     -0.556767    23A     -0.545051    24A     -0.533161  
      25A     -0.504775    26A     -0.498743    27A     -0.399387  
      28A     -0.370623    29A     -0.322805  

    Virtual:                                                              

      30A      0.126782    31A      0.152427    32A      0.245171  
      33A      0.256021    34A      0.278987    35A      0.289726  
      36A      0.304579    37A      0.316901    38A      0.335523  
      39A      0.343299    40A      0.352680    41A      0.399423  
      42A      0.400654    43A      0.423645    44A      0.458769  
      45A      0.503711    46A      0.529937    47A      0.576738  
      48A      0.636548    49A      0.680961    50A      0.716979  
      51A      0.728169    52A      0.744604    53A      0.764618  
      54A      0.769985    55A      0.810710    56A      0.811404  
      57A      0.836161    58A      0.845655    59A      0.889764  
      60A      0.898714    61A      0.930294    62A      0.931681  
      63A      0.948044    64A      0.958486    65A      0.993799  
      66A      1.017823    67A      1.033829    68A      1.105166  
      69A      1.118988    70A      1.124622    71A      1.140686  
      72A      1.142439    73A      1.163667    74A      1.182214  
      75A      1.183163    76A      1.211466    77A      1.218318  
      78A      1.243148    79A      1.252138    80A      1.278910  
      81A      1.329878    82A      1.349854    83A      1.418042  
      84A      1.445127    85A      1.476307    86A      1.513885  
      87A      1.595180    88A      1.620348    89A      1.682550  
      90A      1.695056    91A      1.746051    92A      1.762140  
      93A      1.783063    94A      1.789841    95A      1.811471  
      96A      1.980221    97A      2.088968    98A      2.130478  
      99A      2.157749   100A      2.160884   101A      2.164849  
     102A      2.210037   103A      2.234463   104A      2.236764  
     105A      2.283325   106A      2.393750   107A      2.454148  
     108A      2.469914   109A      2.489068   110A      2.506675  
     111A      2.553093   112A      2.603730   113A      2.646865  
     114A      2.671196   115A      2.671251   116A      2.678574  
     117A      2.690447   118A      2.699838   119A      2.735734  
     120A      2.831969   121A      2.930222   122A      2.968249  
     123A      3.082918   124A      3.114158   125A      3.140552  
     126A      3.210967   127A      3.238640   128A      3.272538  
     129A      3.518622   130A      3.836431   131A      4.498194  
     132A      4.535076   133A      4.613184   134A      4.635848  
     135A      4.700307   136A      4.742236   137A      4.892080  
     138A      5.083123  

    Final Occupation by Irrep:
              A 
    DOCC [    29 ]

  Energy converged.

  @DF-RHF Final Energy:  -324.77320081553154

   => Energetics <=

    Nuclear Repulsion Energy =            346.0794731912955626
    One-Electron Energy =               -1124.4028855786682470
    Two-Electron Energy =                 453.5502115718407481
    DFT Exchange-Correlation Energy =       0.0000000000000000
    Empirical Dispersion Energy =           0.0000000000000000
    PCM Polarization Energy =               0.0000000000000000
    EFP Energy =                            0.0000000000000000
    Total Energy =                       -324.7732008155318795

    Alert: EFP and PCM quantities not currently incorporated into SCF psivars.

Properties will be evaluated at   0.000000,   0.000000,   0.000000 Bohr
  ==> Properties <==


Properties computed using the SCF density matrix

  Nuclear Dipole Moment: (a.u.)
     X:     1.1845      Y:     1.5922      Z:     0.0000

  Electronic Dipole Moment: (a.u.)
     X:    -0.7619      Y:    -0.8767      Z:     0.0000

  Dipole Moment: (a.u.)
     X:     0.4226      Y:     0.7155      Z:     0.0000     Total:     0.8310

  Dipole Moment: (Debye)
     X:     1.0742      Y:     1.8186      Z:     0.0000     Total:     2.1122


  Saving occupied orbitals to File 180.

*** tstop() called on cx1-3-15-4.cx1.hpc.ic.ac.uk at Tue Jul  5 16:26:51 2016
Module time:
	user time   =      13.01 seconds =       0.22 minutes
	system time =       0.07 seconds =       0.00 minutes
	total time  =         14 seconds =       0.23 minutes
Total time:
	user time   =      13.01 seconds =       0.22 minutes
	system time =       0.07 seconds =       0.00 minutes
	total time  =         14 seconds =       0.23 minutes


Properties will be evaluated at   0.000000,   0.000000,   0.000000 Bohr

Properties computed using the  density matrix

  Nuclear Dipole Moment: (a.u.)
     X:     1.1845      Y:     1.5922      Z:     0.0000

  Electronic Dipole Moment: (a.u.)
     X:    -0.7619      Y:    -0.8767      Z:     0.0000

  Dipole Moment: (a.u.)
     X:     0.4226      Y:     0.7155      Z:     0.0000     Total:     0.8310

  Dipole Moment: (Debye)
     X:     1.0742      Y:     1.8186      Z:     0.0000     Total:     2.1122

  Quadrupole Moment: (Debye Ang)
    XX:   -43.0557     YY:   -47.5811     ZZ:   -50.4020
    XY:    -2.5429     XZ:    -0.0000     YZ:    -0.0000

  Traceless Quadrupole Moment: (Debye Ang)
    XX:     3.9572     YY:    -0.5681     ZZ:    -3.3891
    XY:    -2.5429     XZ:    -0.0000     YZ:    -0.0000

  Mulliken Charges: (a.u.)
   Center  Symbol    Alpha    Beta     Spin     Total
       1     H     0.40298  0.40298  0.00000  0.19404
       2     C     2.97864  2.97864  0.00000  0.04273
       3     N     3.77739  3.77739  0.00000 -0.55477
       4     C     3.01394  3.01394  0.00000 -0.02789
       5     C     2.85725  2.85725  0.00000  0.28550
       6     C     3.07660  3.07660  0.00000 -0.15320
       7     C     3.25396  3.25396  0.00000 -0.50791
       8     C     3.13245  3.13245  0.00000 -0.26490
       9     C     3.24993  3.24993  0.00000 -0.49986
      10     H     0.39685  0.39685  0.00000  0.20630
      11     H     0.41061  0.41061  0.00000  0.17878
      12     H     0.41069  0.41069  0.00000  0.17862
      13     H     0.41061  0.41061  0.00000  0.17878
      14     H     0.39795  0.39795  0.00000  0.20410
      15     H     0.40583  0.40583  0.00000  0.18833
      16     H     0.41849  0.41849  0.00000  0.16301
      17     H     0.40583  0.40583  0.00000  0.18833

   Total alpha = 29.00000, Total beta = 29.00000, Total charge = -0.00000



Properties will be evaluated at   0.000000,   0.000000,   0.000000 Bohr

Properties computed using the  density matrix


 Electrostatic potential computed on the grid and written to grid_esp.dat

*** PSI4 exiting successfully. Buy a developer a beer!
