    -----------------------------------------------------------------------
          Psi4: An Open-Source Ab Initio Electronic Structure Package
                              Psi4 (no tag) Driver

                          Git: Rev {detached?}  

    J. M. Turney, A. C. Simmonett, R. M. Parrish, E. G. Hohenstein,
    F. A. Evangelista, J. T. Fermann, B. J. Mintz, L. A. Burns, J. J. Wilke,
    M. L. Abrams, N. J. Russ, M. L. Leininger, C. L. Janssen, E. T. Seidl,
    W. D. Allen, H. F. Schaefer, R. A. King, E. F. Valeev, C. D. Sherrill,
    and T. D. Crawford, WIREs Comput. Mol. Sci. 2, 556-565 (2012)
    (doi: 10.1002/wcms.93)

                         Additional Contributions by
    A. E. DePrince, M. Saitow, U. Bozkaya, A. Yu. Sokolov
    -----------------------------------------------------------------------


    Psi4 started on: Tue Jul  5 16:51:46 2016

    Process ID:   4306
    PSI4DATADIR: /export131/home/mjharvey/miniconda3/share
    Memory level set to 256.000 MB

  ==> Input File <==

--------------------------------------------------------------------------
set {
	reference rhf
	basis 6-31G*
}


set_num_threads( 1 )
memory 2 gb

molecule MOL {
0 1

O	 -0.488453	 0.057968	 1.132425
C	 -0.451170	 -1.129930	 1.097049
C	 0.801727	 -1.959116	 0.945507
O	 -1.528589	 -1.897310	 1.185968
C	 1.124911	 -2.785238	 2.184071
H	 1.613075	 -1.280220	 0.700432
H	 0.669725	 -2.590969	 0.072237
H	 1.272053	 -2.149836	 3.048928
H	 2.030738	 -3.360307	 2.024106
H	 0.320287	 -3.472711	 2.414906
C	 -1.338717	 -3.307233	 1.127090
C	 -0.900304	 -3.647673	 -0.281528
H	 -2.266222	 -3.798982	 1.386897
H	 -0.594543	 -3.593630	 1.857689
H	 -1.653847	 -3.349667	 -1.001614
H	 -0.743651	 -4.717750	 -0.371221
H	 0.027022	 -3.143281	 -0.528331

	symmetry c1
}
set optking {
	frozen_dihedral = ("
		2 4 11 13,
		4 2 3 6
	")
}

ee = energy('scf')
oeprop('DIPOLE', 'QUADRUPOLE', 'MULLIKEN_CHARGES')
f=open( 'psi4out.xyz', 'w' )
f.write( "17  " )
f.write( str(ee) + "\n" )
f.write( MOL.save_string_xyz() )
f.close()
--------------------------------------------------------------------------

  Memory set to   2.000 GiB by Python script.

*** tstart() called on cx1-3-16-4.cx1.hpc.ic.ac.uk
*** at Tue Jul  5 16:51:47 2016


         ---------------------------------------------------------
                                   SCF
            by Justin Turney, Rob Parrish, and Andy Simmonett
                              RHF Reference
                        1 Threads,   2000 MiB Core
         ---------------------------------------------------------

  ==> Geometry <==

    Molecular point group: c1
    Full point group: C1

    Geometry (in Angstrom), charge = 0, multiplicity = 1:

       Center              X                  Y                   Z               Mass       
    ------------   -----------------  -----------------  -----------------  -----------------
           O         -0.089257338696     2.165129288522     0.077952853677    15.994914619560
           C         -0.051974338696     0.977231288522     0.042576853677    12.000000000000
           C          1.200922661304     0.148045288522    -0.108965146323    12.000000000000
           O         -1.129393338696     0.209851288522     0.131495853677    15.994914619560
           C          1.524106661304    -0.678076711478     1.129598853677    12.000000000000
           H          2.012270661304     0.826941288522    -0.354040146323     1.007825032070
           H          1.068920661304    -0.483807711478    -0.982235146323     1.007825032070
           H          1.671248661304    -0.042674711478     1.994455853677     1.007825032070
           H          2.429933661304    -1.253145711478     0.969633853677     1.007825032070
           H          0.719482661304    -1.365549711478     1.360433853677     1.007825032070
           C         -0.939521338696    -1.200071711478     0.072617853677    12.000000000000
           C         -0.501108338696    -1.540511711478    -1.336000146323    12.000000000000
           H         -1.867026338696    -1.691820711478     0.332424853677     1.007825032070
           H         -0.195347338696    -1.486468711478     0.803216853677     1.007825032070
           H         -1.254651338696    -1.242505711478    -2.056086146323     1.007825032070
           H         -0.344455338696    -2.610588711478    -1.425693146323     1.007825032070
           H          0.426217661304    -1.036119711478    -1.582803146323     1.007825032070

  Running in c1 symmetry.

  Rotational constants: A =      0.11470  B =      0.08333  C =      0.06143 [cm^-1]
  Rotational constants: A =   3438.70720  B =   2498.23605  C =   1841.50984 [MHz]
  Nuclear repulsion =  335.975568169283179

  Charge       = 0
  Multiplicity = 1
  Electrons    = 56
  Nalpha       = 28
  Nbeta        = 28

  ==> Algorithm <==

  SCF Algorithm Type is DF.
  DIIS enabled.
  MOM disabled.
  Fractional occupation disabled.
  Guess Type is CORE.
  Energy threshold   = 1.00e-06
  Density threshold  = 1.00e-06
  Integral threshold = 0.00e+00

  ==> Primary Basis <==

  Basis Set: 6-31G*
    Number of shells: 62
    Number of basis function: 125
    Number of Cartesian functions: 125
    Spherical Harmonics?: false
    Max angular momentum: 2

  ==> Pre-Iterations <==

   -------------------------------------------------------
    Irrep   Nso     Nmo     Nalpha   Nbeta   Ndocc  Nsocc
   -------------------------------------------------------
     A        125     125       0       0       0       0
   -------------------------------------------------------
    Total     125     125      28      28      28       0
   -------------------------------------------------------

 OEINTS: Overlap, kinetic, potential, dipole, and quadrupole integrals
         stored in file 35.

  ==> Integral Setup <==

  ==> DFJK: Density-Fitted J/K Matrices <==

    J tasked:                  Yes
    K tasked:                  Yes
    wK tasked:                  No
    OpenMP threads:              1
    Integrals threads:           1
    Memory (MB):              1430
    Algorithm:                Core
    Integral Cache:           NONE
    Schwarz Cutoff:          1E-12
    Fitting Condition:       1E-12

   => Auxiliary Basis Set <=

  Basis Set: 
    Number of shells: 258
    Number of basis function: 817
    Number of Cartesian functions: 817
    Spherical Harmonics?: false
    Max angular momentum: 3

  Minimum eigenvalue in the overlap matrix is 2.7633067434E-03.
  Using Symmetric Orthogonalization.
  SCF Guess: Core (One-Electron) Hamiltonian.

  ==> Iterations <==

                           Total Energy        Delta E     RMS |[F,P]|

   @DF-RHF iter   1:  -262.91063321269871   -2.62911e+02   7.55626e-02 
   @DF-RHF iter   2:  -225.93030575037369    3.69803e+01   6.29459e-02 DIIS
   @DF-RHF iter   3:  -297.75183814805848   -7.18215e+01   5.52203e-02 DIIS
   @DF-RHF iter   4:  -343.00758143049973   -4.52557e+01   1.42186e-02 DIIS
   @DF-RHF iter   5:  -344.48041737675283   -1.47284e+00   6.22564e-03 DIIS
   @DF-RHF iter   6:  -344.75723153427430   -2.76814e-01   1.28311e-03 DIIS
   @DF-RHF iter   7:  -344.77078284941069   -1.35513e-02   5.98250e-04 DIIS
   @DF-RHF iter   8:  -344.77339404502482   -2.61120e-03   1.63994e-04 DIIS
   @DF-RHF iter   9:  -344.77369849814761   -3.04453e-04   5.26419e-05 DIIS
   @DF-RHF iter  10:  -344.77374431826229   -4.58201e-05   2.17105e-05 DIIS
   @DF-RHF iter  11:  -344.77375163285956   -7.31460e-06   8.12372e-06 DIIS
   @DF-RHF iter  12:  -344.77375319711962   -1.56426e-06   3.51166e-06 DIIS
   @DF-RHF iter  13:  -344.77375349515421   -2.98035e-07   1.04049e-06 DIIS
   @DF-RHF iter  14:  -344.77375352697663   -3.18224e-08   3.55954e-07 DIIS

  ==> Post-Iterations <==

    Orbital Energies (a.u.)
    -----------------------

    Doubly Occupied:                                                      

       1A    -20.603277     2A    -20.540407     3A    -11.372294  
       4A    -11.289684     5A    -11.235042     6A    -11.231431  
       7A    -11.228070     8A     -1.466462     9A     -1.366191  
      10A     -1.093810    11A     -1.046521    12A     -0.948124  
      13A     -0.873130    14A     -0.798496    15A     -0.736384  
      16A     -0.691351    17A     -0.664652    18A     -0.647282  
      19A     -0.601582    20A     -0.583960    21A     -0.579455  
      22A     -0.572803    23A     -0.555223    24A     -0.521055  
      25A     -0.486170    26A     -0.458501    27A     -0.426878  
      28A     -0.423725  

    Virtual:                                                              

      29A      0.185127    30A      0.244778    31A      0.249110  
      32A      0.265086    33A      0.272755    34A      0.285003  
      35A      0.307185    36A      0.320376    37A      0.333167  
      38A      0.342263    39A      0.377810    40A      0.391752  
      41A      0.431296    42A      0.487390    43A      0.498971  
      44A      0.530985    45A      0.610277    46A      0.689276  
      47A      0.711167    48A      0.721005    49A      0.730830  
      50A      0.753921    51A      0.785408    52A      0.829045  
      53A      0.857009    54A      0.888223    55A      0.907169  
      56A      0.915121    57A      0.954768    58A      0.972945  
      59A      0.999535    60A      1.020434    61A      1.074119  
      62A      1.118727    63A      1.124085    64A      1.143440  
      65A      1.153782    66A      1.174808    67A      1.199819  
      68A      1.214964    69A      1.245097    70A      1.263412  
      71A      1.293695    72A      1.323302    73A      1.334082  
      74A      1.372477    75A      1.388621    76A      1.429569  
      77A      1.451238    78A      1.527236    79A      1.590277  
      80A      1.643834    81A      1.683846    82A      1.724354  
      83A      1.785431    84A      1.815410    85A      1.882513  
      86A      1.940793    87A      1.965406    88A      2.053183  
      89A      2.088336    90A      2.110188    91A      2.151014  
      92A      2.177590    93A      2.184547    94A      2.199043  
      95A      2.244850    96A      2.290218    97A      2.332879  
      98A      2.363903    99A      2.386268   100A      2.446498  
     101A      2.495777   102A      2.542714   103A      2.593897  
     104A      2.607883   105A      2.655344   106A      2.673984  
     107A      2.723454   108A      2.778189   109A      2.838831  
     110A      2.867094   111A      2.934125   112A      3.017405  
     113A      3.059440   114A      3.108143   115A      3.161879  
     116A      3.290142   117A      3.433020   118A      3.577181  
     119A      4.423907   120A      4.577511   121A      4.679589  
     122A      4.743191   123A      4.840246   124A      4.937575  
     125A      5.028615  

    Final Occupation by Irrep:
              A 
    DOCC [    28 ]

  Energy converged.

  @DF-RHF Final Energy:  -344.77375352697663

   => Energetics <=

    Nuclear Repulsion Energy =            335.9755681692831786
    One-Electron Energy =               -1135.4147103282466560
    Two-Electron Energy =                 454.6653886319860476
    DFT Exchange-Correlation Energy =       0.0000000000000000
    Empirical Dispersion Energy =           0.0000000000000000
    PCM Polarization Energy =               0.0000000000000000
    EFP Energy =                            0.0000000000000000
    Total Energy =                       -344.7737535269774298

    Alert: EFP and PCM quantities not currently incorporated into SCF psivars.

Properties will be evaluated at   0.000000,   0.000000,   0.000000 Bohr
  ==> Properties <==


Properties computed using the SCF density matrix

  Nuclear Dipole Moment: (a.u.)
     X:     4.3689      Y:    -9.7249      Z:    -0.8809

  Electronic Dipole Moment: (a.u.)
     X:    -3.7795      Y:     7.7940      Z:     0.7747

  Dipole Moment: (a.u.)
     X:     0.5895      Y:    -1.9309      Z:    -0.1061     Total:     2.0216

  Dipole Moment: (Debye)
     X:     1.4983      Y:    -4.9078      Z:    -0.2697     Total:     5.1385


  Saving occupied orbitals to File 180.

*** tstop() called on cx1-3-16-4.cx1.hpc.ic.ac.uk at Tue Jul  5 16:51:59 2016
Module time:
	user time   =      11.55 seconds =       0.19 minutes
	system time =       0.08 seconds =       0.00 minutes
	total time  =         12 seconds =       0.20 minutes
Total time:
	user time   =      11.55 seconds =       0.19 minutes
	system time =       0.08 seconds =       0.00 minutes
	total time  =         12 seconds =       0.20 minutes


Properties will be evaluated at   0.000000,   0.000000,   0.000000 Bohr

Properties computed using the  density matrix

  Nuclear Dipole Moment: (a.u.)
     X:     4.3689      Y:    -9.7249      Z:    -0.8809

  Electronic Dipole Moment: (a.u.)
     X:    -3.7795      Y:     7.7940      Z:     0.7747

  Dipole Moment: (a.u.)
     X:     0.5895      Y:    -1.9309      Z:    -0.1061     Total:     2.0216

  Dipole Moment: (Debye)
     X:     1.4983      Y:    -4.9078      Z:    -0.2697     Total:     5.1385

  Quadrupole Moment: (Debye Ang)
    XX:   -43.7090     YY:   -50.3724     ZZ:   -42.0297
    XY:     2.3807     XZ:     0.1270     YZ:    -0.7782

  Traceless Quadrupole Moment: (Debye Ang)
    XX:     1.6613     YY:    -5.0020     ZZ:     3.3407
    XY:     2.3807     XZ:     0.1270     YZ:    -0.7782

  Mulliken Charges: (a.u.)
   Center  Symbol    Alpha    Beta     Spin     Total
       1     O     4.27506  4.27506  0.00000 -0.55012
       2     C     2.59686  2.59686  0.00000  0.80629
       3     C     3.24421  3.24421  0.00000 -0.48842
       4     O     4.30075  4.30075  0.00000 -0.60151
       5     C     3.25121  3.25121  0.00000 -0.50242
       6     H     0.38960  0.38960  0.00000  0.22080
       7     H     0.41189  0.41189  0.00000  0.17622
       8     H     0.40237  0.40237  0.00000  0.19527
       9     H     0.40767  0.40767  0.00000  0.18466
      10     H     0.40203  0.40203  0.00000  0.19594
      11     C     3.00951  3.00951  0.00000 -0.01902
      12     C     3.26029  3.26029  0.00000 -0.52058
      13     H     0.39465  0.39465  0.00000  0.21071
      14     H     0.43190  0.43190  0.00000  0.13620
      15     H     0.40220  0.40220  0.00000  0.19559
      16     H     0.41534  0.41534  0.00000  0.16933
      17     H     0.40446  0.40446  0.00000  0.19107

   Total alpha = 28.00000, Total beta = 28.00000, Total charge =  0.00000


*** PSI4 exiting successfully. Buy a developer a beer!
