    -----------------------------------------------------------------------
          Psi4: An Open-Source Ab Initio Electronic Structure Package
                              Psi4 (no tag) Driver

                          Git: Rev {detached?}  

    J. M. Turney, A. C. Simmonett, R. M. Parrish, E. G. Hohenstein,
    F. A. Evangelista, J. T. Fermann, B. J. Mintz, L. A. Burns, J. J. Wilke,
    M. L. Abrams, N. J. Russ, M. L. Leininger, C. L. Janssen, E. T. Seidl,
    W. D. Allen, H. F. Schaefer, R. A. King, E. F. Valeev, C. D. Sherrill,
    and T. D. Crawford, WIREs Comput. Mol. Sci. 2, 556-565 (2012)
    (doi: 10.1002/wcms.93)

                         Additional Contributions by
    A. E. DePrince, M. Saitow, U. Bozkaya, A. Yu. Sokolov
    -----------------------------------------------------------------------


    Psi4 started on: Tue Jul  5 16:48:28 2016

    Process ID:  10985
    PSI4DATADIR: /export131/home/mjharvey/miniconda3/share
    Memory level set to 256.000 MB

  ==> Input File <==

--------------------------------------------------------------------------
set {
	reference rhf
	basis 6-31G*
}


set_num_threads( 1 )
memory 2 gb

molecule MOL {
0 1

O	 -2.219205	 -0.711905	 -1.030257
C	 -1.804321	 0.182983	 -0.367446
C	 -2.522306	 1.483252	 -0.126312
O	 -0.632575	 0.154573	 0.251549
H	 -1.914586	 2.308232	 -0.479911
H	 -3.470778	 1.474770	 -0.642224
H	 -2.679028	 1.623204	 0.936988
C	 0.160891	 -1.019931	 0.106212
C	 1.589627	 -0.672828	 0.480843
H	 0.089836	 -1.367806	 -0.916050
H	 -0.238459	 -1.792301	 0.749618
C	 2.246377	 0.346236	 -0.452210
H	 2.163194	 -1.597435	 0.473358
H	 1.604769	 -0.303424	 1.502885
C	 1.358904	 1.563499	 -0.708460
H	 3.190486	 0.671580	 -0.019882
H	 2.486927	 -0.133459	 -1.395284
H	 1.845995	 2.270083	 -1.372924
H	 1.128012	 2.084502	 0.216485
H	 0.418136	 1.272933	 -1.167378

	symmetry c1
}
set optking {
	frozen_dihedral = ("
		16 12 9 8,
		12 9 8 10,
		1 2 4 8
	")
}

ee = energy('scf')
oeprop('DIPOLE', 'QUADRUPOLE', 'MULLIKEN_CHARGES')
f=open( 'psi4out.xyz', 'w' )
f.write( "20  " )
f.write( str(ee) + "\n" )
f.write( MOL.save_string_xyz() )
f.close()
--------------------------------------------------------------------------

  Memory set to   2.000 GiB by Python script.

*** tstart() called on cx1-1-1-1.cx1.hpc.ic.ac.uk
*** at Tue Jul  5 16:48:29 2016


         ---------------------------------------------------------
                                   SCF
            by Justin Turney, Rob Parrish, and Andy Simmonett
                              RHF Reference
                        1 Threads,   2000 MiB Core
         ---------------------------------------------------------

  ==> Geometry <==

    Molecular point group: c1
    Full point group: C1

    Geometry (in Angstrom), charge = 0, multiplicity = 1:

       Center              X                  Y                   Z               Mass       
    ------------   -----------------  -----------------  -----------------  -----------------
           O         -1.972803348241    -0.886312568983    -0.794266067625    15.994914619560
           C         -1.557919348241     0.008575431017    -0.131455067625    12.000000000000
           C         -2.275904348241     1.308844431017     0.109678932375    12.000000000000
           O         -0.386173348241    -0.019834568983     0.487539932375    15.994914619560
           H         -1.668184348241     2.133824431017    -0.243920067625     1.007825032070
           H         -3.224376348241     1.300362431017    -0.406233067625     1.007825032070
           H         -2.432626348241     1.448796431017     1.172978932375     1.007825032070
           C          0.407292651759    -1.194338568983     0.342202932375    12.000000000000
           C          1.836028651759    -0.847235568983     0.716833932375    12.000000000000
           H          0.336237651759    -1.542213568983    -0.680059067625     1.007825032070
           H          0.007942651759    -1.966708568983     0.985608932375     1.007825032070
           C          2.492778651759     0.171828431017    -0.216219067625    12.000000000000
           H          2.409595651759    -1.771842568983     0.709348932375     1.007825032070
           H          1.851170651759    -0.477831568983     1.738875932375     1.007825032070
           C          1.605305651759     1.389091431017    -0.472469067625    12.000000000000
           H          3.436887651759     0.497172431017     0.216108932375     1.007825032070
           H          2.733328651759    -0.307866568983    -1.159293067625     1.007825032070
           H          2.092396651759     2.095675431017    -1.136933067625     1.007825032070
           H          1.374413651759     1.910094431017     0.452475932375     1.007825032070
           H          0.664537651759     1.098525431017    -0.931387067625     1.007825032070

  Running in c1 symmetry.

  Rotational constants: A =      0.11731  B =      0.04291  C =      0.03571 [cm^-1]
  Rotational constants: A =   3516.95242  B =   1286.49737  C =   1070.57148 [MHz]
  Nuclear repulsion =  403.855844917120294

  Charge       = 0
  Multiplicity = 1
  Electrons    = 64
  Nalpha       = 32
  Nbeta        = 32

  ==> Algorithm <==

  SCF Algorithm Type is DF.
  DIIS enabled.
  MOM disabled.
  Fractional occupation disabled.
  Guess Type is CORE.
  Energy threshold   = 1.00e-06
  Density threshold  = 1.00e-06
  Integral threshold = 0.00e+00

  ==> Primary Basis <==

  Basis Set: 6-31G*
    Number of shells: 72
    Number of basis function: 144
    Number of Cartesian functions: 144
    Spherical Harmonics?: false
    Max angular momentum: 2

  ==> Pre-Iterations <==

   -------------------------------------------------------
    Irrep   Nso     Nmo     Nalpha   Nbeta   Ndocc  Nsocc
   -------------------------------------------------------
     A        144     144       0       0       0       0
   -------------------------------------------------------
    Total     144     144      32      32      32       0
   -------------------------------------------------------

 OEINTS: Overlap, kinetic, potential, dipole, and quadrupole integrals
         stored in file 35.

  ==> Integral Setup <==

  ==> DFJK: Density-Fitted J/K Matrices <==

    J tasked:                  Yes
    K tasked:                  Yes
    wK tasked:                  No
    OpenMP threads:              1
    Integrals threads:           1
    Memory (MB):              1430
    Algorithm:                Core
    Integral Cache:           NONE
    Schwarz Cutoff:          1E-12
    Fitting Condition:       1E-12

   => Auxiliary Basis Set <=

  Basis Set: 
    Number of shells: 300
    Number of basis function: 948
    Number of Cartesian functions: 948
    Spherical Harmonics?: false
    Max angular momentum: 3

  Minimum eigenvalue in the overlap matrix is 3.8350821042E-03.
  Using Symmetric Orthogonalization.
  SCF Guess: Core (One-Electron) Hamiltonian.

  ==> Iterations <==

                           Total Energy        Delta E     RMS |[F,P]|

   @DF-RHF iter   1:  -260.86579923040870   -2.60866e+02   7.84470e-02 
   @DF-RHF iter   2:  -231.16129668811163    2.97045e+01   6.28690e-02 DIIS
   @DF-RHF iter   3:  -313.18897979926714   -8.20277e+01   5.10524e-02 DIIS
   @DF-RHF iter   4:  -331.92037360751806   -1.87314e+01   5.02778e-02 DIIS
   @DF-RHF iter   5:  -358.62404750074870   -2.67037e+01   3.51377e-02 DIIS
   @DF-RHF iter   6:  -383.32961275222101   -2.47056e+01   7.65123e-03 DIIS
   @DF-RHF iter   7:  -383.74554128606314   -4.15929e-01   4.80375e-03 DIIS
   @DF-RHF iter   8:  -383.92154412107175   -1.76003e-01   9.11302e-04 DIIS
   @DF-RHF iter   9:  -383.93078321246639   -9.23909e-03   2.38110e-04 DIIS
   @DF-RHF iter  10:  -383.93153711534080   -7.53903e-04   9.34134e-05 DIIS
   @DF-RHF iter  11:  -383.93166445782083   -1.27342e-04   3.21395e-05 DIIS
   @DF-RHF iter  12:  -383.93167956171715   -1.51039e-05   1.34514e-05 DIIS
   @DF-RHF iter  13:  -383.93168277417328   -3.21246e-06   4.50944e-06 DIIS
   @DF-RHF iter  14:  -383.93168326034004   -4.86167e-07   1.22174e-06 DIIS
   @DF-RHF iter  15:  -383.93168329415141   -3.38114e-08   4.45044e-07 DIIS

  ==> Post-Iterations <==

    Orbital Energies (a.u.)
    -----------------------

    Doubly Occupied:                                                      

       1A    -20.600145     2A    -20.545369     3A    -11.375557  
       4A    -11.282474     5A    -11.234332     6A    -11.225587  
       7A    -11.221080     8A    -11.204172     9A     -1.470162  
      10A     -1.364178    11A     -1.086955    12A     -1.027111  
      13A     -0.978245    14A     -0.888808    15A     -0.798578  
      16A     -0.780071    17A     -0.697287    18A     -0.690121  
      19A     -0.667068    20A     -0.620247    21A     -0.606623  
      22A     -0.586974    23A     -0.568019    24A     -0.556424  
      25A     -0.545008    26A     -0.539438    27A     -0.507142  
      28A     -0.482193    29A     -0.479175    30A     -0.468595  
      31A     -0.442478    32A     -0.433245  

    Virtual:                                                              

      33A      0.195140    34A      0.225899    35A      0.244031  
      36A      0.279816    37A      0.286051    38A      0.291822  
      39A      0.304614    40A      0.312594    41A      0.318971  
      42A      0.339383    43A      0.343040    44A      0.345822  
      45A      0.356709    46A      0.391612    47A      0.402244  
      48A      0.415104    49A      0.421445    50A      0.461655  
      51A      0.519959    52A      0.557282    53A      0.704871  
      54A      0.725783    55A      0.737744    56A      0.742603  
      57A      0.760419    58A      0.777799    59A      0.792483  
      60A      0.824734    61A      0.829342    62A      0.862248  
      63A      0.909165    64A      0.928529    65A      0.944621  
      66A      0.961853    67A      0.979887    68A      1.011885  
      69A      1.059812    70A      1.095277    71A      1.104917  
      72A      1.112792    73A      1.135613    74A      1.147207  
      75A      1.151341    76A      1.165861    77A      1.179215  
      78A      1.195628    79A      1.202905    80A      1.217882  
      81A      1.227099    82A      1.236865    83A      1.240586  
      84A      1.259976    85A      1.301118    86A      1.366272  
      87A      1.376170    88A      1.412265    89A      1.459005  
      90A      1.483891    91A      1.584550    92A      1.644805  
      93A      1.674194    94A      1.685035    95A      1.742307  
      96A      1.777392    97A      1.847268    98A      1.889129  
      99A      1.933177   100A      1.965258   101A      1.999504  
     102A      2.017960   103A      2.079336   104A      2.097424  
     105A      2.139586   106A      2.151275   107A      2.208108  
     108A      2.217494   109A      2.251920   110A      2.277392  
     111A      2.301232   112A      2.330008   113A      2.370561  
     114A      2.413303   115A      2.433418   116A      2.466213  
     117A      2.516770   118A      2.542718   119A      2.587862  
     120A      2.629308   121A      2.678207   122A      2.690624  
     123A      2.699348   124A      2.730292   125A      2.751253  
     126A      2.783138   127A      2.826907   128A      2.951142  
     129A      2.974861   130A      3.029146   131A      3.068823  
     132A      3.088612   133A      3.189015   134A      3.353775  
     135A      3.424510   136A      3.567182   137A      4.456505  
     138A      4.553164   139A      4.587461   140A      4.639459  
     141A      4.717309   142A      4.860922   143A      4.933519  
     144A      4.970989  

    Final Occupation by Irrep:
              A 
    DOCC [    32 ]

  Energy converged.

  @DF-RHF Final Energy:  -383.93168329415141

   => Energetics <=

    Nuclear Repulsion Energy =            403.8558449171202938
    One-Electron Energy =               -1323.6294517994879243
    Two-Electron Energy =                 535.8419235882167868
    DFT Exchange-Correlation Energy =       0.0000000000000000
    Empirical Dispersion Energy =           0.0000000000000000
    PCM Polarization Energy =               0.0000000000000000
    EFP Energy =                            0.0000000000000000
    Total Energy =                       -383.9316832941508437

    Alert: EFP and PCM quantities not currently incorporated into SCF psivars.

Properties will be evaluated at   0.000000,   0.000000,   0.000000 Bohr
  ==> Properties <==


Properties computed using the SCF density matrix

  Nuclear Dipole Moment: (a.u.)
     X:     7.0959      Y:     4.1374      Z:     0.6712

  Electronic Dipole Moment: (a.u.)
     X:    -6.5944      Y:    -3.7156      Z:    -0.1703

  Dipole Moment: (a.u.)
     X:     0.5015      Y:     0.4218      Z:     0.5009     Total:     0.8248

  Dipole Moment: (Debye)
     X:     1.2748      Y:     1.0720      Z:     1.2731     Total:     2.0965


  Saving occupied orbitals to File 180.

*** tstop() called on cx1-1-1-1.cx1.hpc.ic.ac.uk at Tue Jul  5 16:48:45 2016
Module time:
	user time   =      15.65 seconds =       0.26 minutes
	system time =       0.17 seconds =       0.00 minutes
	total time  =         16 seconds =       0.27 minutes
Total time:
	user time   =      15.65 seconds =       0.26 minutes
	system time =       0.17 seconds =       0.00 minutes
	total time  =         16 seconds =       0.27 minutes


Properties will be evaluated at   0.000000,   0.000000,   0.000000 Bohr

Properties computed using the  density matrix

  Nuclear Dipole Moment: (a.u.)
     X:     7.0959      Y:     4.1374      Z:     0.6712

  Electronic Dipole Moment: (a.u.)
     X:    -6.5944      Y:    -3.7156      Z:    -0.1703

  Dipole Moment: (a.u.)
     X:     0.5015      Y:     0.4218      Z:     0.5009     Total:     0.8248

  Dipole Moment: (Debye)
     X:     1.2748      Y:     1.0720      Z:     1.2731     Total:     2.0965

  Quadrupole Moment: (Debye Ang)
    XX:   -51.0733     YY:   -49.4666     ZZ:   -51.1436
    XY:    -6.3962     XZ:    -3.0834     YZ:    -2.1471

  Traceless Quadrupole Moment: (Debye Ang)
    XX:    -0.5121     YY:     1.0945     ZZ:    -0.5824
    XY:    -6.3962     XZ:    -3.0834     YZ:    -2.1471

  Mulliken Charges: (a.u.)
   Center  Symbol    Alpha    Beta     Spin     Total
       1     O     4.28197  4.28197  0.00000 -0.56393
       2     C     2.62040  2.62040  0.00000  0.75920
       3     C     3.28212  3.28212  0.00000 -0.56424
       4     O     4.30833  4.30833  0.00000 -0.61666
       5     H     0.39967  0.39967  0.00000  0.20066
       6     H     0.39661  0.39661  0.00000  0.20678
       7     H     0.40009  0.40009  0.00000  0.19983
       8     C     3.00969  3.00969  0.00000 -0.01937
       9     C     3.16585  3.16585  0.00000 -0.33170
      10     H     0.40392  0.40392  0.00000  0.19217
      11     H     0.41003  0.41003  0.00000  0.17995
      12     C     3.15557  3.15557  0.00000 -0.31115
      13     H     0.41609  0.41609  0.00000  0.16782
      14     H     0.41453  0.41453  0.00000  0.17094
      15     C     3.23130  3.23130  0.00000 -0.46259
      16     H     0.41825  0.41825  0.00000  0.16351
      17     H     0.42082  0.42082  0.00000  0.15836
      18     H     0.42383  0.42383  0.00000  0.15234
      19     H     0.42047  0.42047  0.00000  0.15907
      20     H     0.42049  0.42049  0.00000  0.15903

   Total alpha = 32.00000, Total beta = 32.00000, Total charge =  0.00000


*** PSI4 exiting successfully. Buy a developer a beer!
