
    -----------------------------------------------------------------------
          Psi4: An Open-Source Ab Initio Electronic Structure Package
                               Psi4 1.1 release

                         Git: Rev {HEAD} add49b9 


    R. M. Parrish, L. A. Burns, D. G. A. Smith, A. C. Simmonett,
    A. E. DePrince III, E. G. Hohenstein, U. Bozkaya, A. Yu. Sokolov,
    R. Di Remigio, R. M. Richard, J. F. Gonthier, A. M. James,
    H. R. McAlexander, A. Kumar, M. Saitow, X. Wang, B. P. Pritchard,
    P. Verma, H. F. Schaefer III, K. Patkowski, R. A. King, E. F. Valeev,
    F. A. Evangelista, J. M. Turney, T. D. Crawford, and C. D. Sherrill,
    J. Chem. Theory Comput. in press (2017).
    (doi: 10.1021/acs.jctc.7b00174)

    -----------------------------------------------------------------------


    Psi4 started on: Friday, 15 September 2017 12:30PM

    Process ID:  11944
    PSIDATADIR: /home/raimis/opt/miniconda3/envs/htmd/share/psi4
    Memory:     500.0 MiB
    Threads:    1
    
  ==> Input File <==

--------------------------------------------------------------------------
set_num_threads( 8 )
memory 2.000000 gb

set { reference rks }
set { basis cc-pVDZ }

molecule MOL {
    0 1
    noreorient
    nocom
    symmetry c1
    O    1.050400   0.042900  -0.048100
    C    2.474100   0.047400  -0.029000
    C    3.002600  -1.068900  -0.932000
    N    2.547701  -2.389344  -0.499571
    H    0.760400   0.728400   0.578000
    H    2.809900  -0.097900   1.003200
    H    2.817400   1.026800  -0.378600
    H    4.098367  -1.043301  -0.951431
    H    2.673359  -0.888064  -1.961541
    H    2.954653  -2.605429   0.409923
    H    2.915384  -3.089980  -1.143132
}

set optking { frozen_dihedral = (" 1 2 3 4 ") }

energy, wfn = energy('B3LYP-D3', return_wfn=True)

import os
os.chdir(os.environ['HTMD_PSI4_WORKDIR'])

oeprop(wfn, 'DIPOLE', 'QUADRUPOLE', 'MULLIKEN_CHARGES')

with open('psi4out.xyz', 'w') as f:
    f.write('11 ' )
    f.write('%.12f\n' % energy)
    f.write(MOL.save_string_xyz())
--------------------------------------------------------------------------
  Threads set to 8 by Python driver.

  Memory set to   1.863 GiB by Python driver.

*** tstart() called on computer03
*** at Fri Sep 15 12:30:34 2017

   => Loading Basis Set <=

    Name: CC-PVDZ
    Role: ORBITAL
    Keyword: BASIS
    atoms 1    entry O          line   190 file /home/raimis/opt/miniconda3/envs/htmd/share/psi4/basis/cc-pvdz.gbs 
    atoms 2-3  entry C          line   130 file /home/raimis/opt/miniconda3/envs/htmd/share/psi4/basis/cc-pvdz.gbs 
    atoms 4    entry N          line   160 file /home/raimis/opt/miniconda3/envs/htmd/share/psi4/basis/cc-pvdz.gbs 
    atoms 5-11 entry H          line    20 file /home/raimis/opt/miniconda3/envs/htmd/share/psi4/basis/cc-pvdz.gbs 


         ---------------------------------------------------------
                                   SCF
            by Justin Turney, Rob Parrish, and Andy Simmonett
                              RKS Reference
                        8 Threads,   1907 MiB Core
         ---------------------------------------------------------

  ==> Geometry <==

    Molecular point group: c1
    Full point group: C1

    Geometry (in Angstrom), charge = 0, multiplicity = 1:

       Center              X                  Y                   Z               Mass       
    ------------   -----------------  -----------------  -----------------  -----------------
           O          1.050400000000     0.042900000000    -0.048100000000    15.994914619560
           C          2.474100000000     0.047400000000    -0.029000000000    12.000000000000
           C          3.002600000000    -1.068900000000    -0.932000000000    12.000000000000
           N          2.547701000000    -2.389344000000    -0.499571000000    14.003074004780
           H          0.760400000000     0.728400000000     0.578000000000     1.007825032070
           H          2.809900000000    -0.097900000000     1.003200000000     1.007825032070
           H          2.817400000000     1.026800000000    -0.378600000000     1.007825032070
           H          4.098367000000    -1.043301000000    -0.951431000000     1.007825032070
           H          2.673359000000    -0.888064000000    -1.961541000000     1.007825032070
           H          2.954653000000    -2.605429000000     0.409923000000     1.007825032070
           H          2.915384000000    -3.089980000000    -1.143132000000     1.007825032070

  Running in c1 symmetry.

  Rotational constants: A =      0.29984  B =      0.03863  C =      0.03552 [cm^-1]
  Rotational constants: A =   8988.96942  B =   1158.06271  C =   1064.79056 [MHz]
  Nuclear repulsion =  132.614945816067916

  Charge       = 0
  Multiplicity = 1
  Electrons    = 34
  Nalpha       = 17
  Nbeta        = 17

  ==> Algorithm <==

  SCF Algorithm Type is DF.
  DIIS enabled.
  MOM disabled.
  Fractional occupation disabled.
  Guess Type is SAD.
  Energy threshold   = 1.00e-06
  Density threshold  = 1.00e-06
  Integral threshold = 0.00e+00

  ==> Primary Basis <==

  Basis Set: CC-PVDZ
    Blend: CC-PVDZ
    Number of shells: 45
    Number of basis function: 91
    Number of Cartesian functions: 95
    Spherical Harmonics?: true
    Max angular momentum: 2

  ==> DFT Potential <==

   => B3LYP Composite Functional <= 

    B3LYP Hybrid-GGA Exchange-Correlation Functional (VWN1-RPA)

    P.J. Stephens et. al., J. Phys. Chem., 98, 11623-11627, 1994

    Points   =           5000
    Deriv    =              1
    GGA      =           TRUE
    Meta     =          FALSE

    X_LRC        =          FALSE
    X_Hybrid     =           TRUE
    X_Alpha      =   2.000000E-01
    X_Omega      =   0.000000E+00
    C_LRC        =          FALSE
    C_Hybrid     =          FALSE
    C_Alpha      =   0.000000E+00
    C_Omega      =   0.000000E+00

   => Exchange Functionals <=

    0.8000    B3_X
    0.2000      HF 

   => Correlation Functionals <=

    0.1900 VWN3RPA_C
    0.8100   LYP_C

   => Molecular Quadrature <=

    Radial Scheme    =       TREUTLER
    Pruning Scheme   =           FLAT
    Nuclear Scheme   =       TREUTLER

    BS radius alpha  =              1
    Pruning alpha    =              1
    Radial Points    =             75
    Spherical Points =            302
    Total Points     =         245111
    Total Blocks     =            221
    Max Points       =           4925
    Max Functions    =             91

   => -D3ZERO: Empirical Dispersion <=

    Grimme's -D3 (zero-damping) Dispersion Correction
    Grimme S.; Antony J.; Ehrlich S.; Krieg H. (2010), J. Chem. Phys., 132: 154104

        S6 =   1.000000E+00
        S8 =   1.703000E+00
       SR6 =   1.261000E+00
    ALPHA6 =   1.400000E+01

   => Loading Basis Set <=

    Name: (CC-PVDZ AUX)
    Role: JKFIT
    Keyword: DF_BASIS_SCF
    atoms 1    entry O          line   220 file /home/raimis/opt/miniconda3/envs/htmd/share/psi4/basis/cc-pvdz-jkfit.gbs 
    atoms 2-3  entry C          line   120 file /home/raimis/opt/miniconda3/envs/htmd/share/psi4/basis/cc-pvdz-jkfit.gbs 
    atoms 4    entry N          line   170 file /home/raimis/opt/miniconda3/envs/htmd/share/psi4/basis/cc-pvdz-jkfit.gbs 
    atoms 5-11 entry H          line    50 file /home/raimis/opt/miniconda3/envs/htmd/share/psi4/basis/cc-pvdz-jkfit.gbs 

  ==> Pre-Iterations <==

   -------------------------------------------------------
    Irrep   Nso     Nmo     Nalpha   Nbeta   Ndocc  Nsocc
   -------------------------------------------------------
     A         91      91       0       0       0       0
   -------------------------------------------------------
    Total      91      91      17      17      17       0
   -------------------------------------------------------

  ==> Integral Setup <==

  ==> DFJK: Density-Fitted J/K Matrices <==

    J tasked:                  Yes
    K tasked:                  Yes
    wK tasked:                  No
    OpenMP threads:              8
    Integrals threads:           8
    Memory (MB):              1430
    Algorithm:                Core
    Integral Cache:           NONE
    Schwarz Cutoff:          1E-12
    Fitting Condition:       1E-12

   => Auxiliary Basis Set <=

  Basis Set: (CC-PVDZ AUX)
    Blend: CC-PVDZ-JKFIT
    Number of shells: 159
    Number of basis function: 441
    Number of Cartesian functions: 499
    Spherical Harmonics?: true
    Max angular momentum: 3

  Minimum eigenvalue in the overlap matrix is 4.8896572005E-03.
  Using Symmetric Orthogonalization.

  SCF Guess: Superposition of Atomic Densities via on-the-fly atomic UHF.

  ==> Iterations <==

                           Total Energy        Delta E     RMS |[F,P]|

   @DF-RKS iter   0:  -210.92609499802879   -2.10926e+02   7.42732e-02 
   @DF-RKS iter   1:  -210.24095986326307    6.85135e-01   1.03682e-02 
   @DF-RKS iter   2:  -210.09897734987356    1.41983e-01   1.85065e-02 DIIS
   @DF-RKS iter   3:  -210.38684838414466   -2.87871e-01   1.28326e-03 DIIS
   @DF-RKS iter   4:  -210.38797950125721   -1.13112e-03   6.73669e-04 DIIS
   @DF-RKS iter   5:  -210.38842064651837   -4.41145e-04   9.30161e-05 DIIS
   @DF-RKS iter   6:  -210.38843442769547   -1.37812e-05   2.61581e-05 DIIS
   @DF-RKS iter   7:  -210.38843498442967   -5.56734e-07   9.07368e-06 DIIS
   @DF-RKS iter   8:  -210.38843506126454   -7.68349e-08   1.12437e-06 DIIS
   @DF-RKS iter   9:  -210.38843506258394   -1.31939e-09   3.66955e-07 DIIS

  ==> Post-Iterations <==

    Orbital Energies (a.u.)
    -----------------------

    Doubly Occupied:                                                      

       1A    -19.120450     2A    -14.297781     3A    -10.224699  
       4A    -10.203050     5A     -1.004111     6A     -0.871140  
       7A     -0.713795     8A     -0.594681     9A     -0.506045  
      10A     -0.485265    11A     -0.445364    12A     -0.411825  
      13A     -0.387255    14A     -0.368042    15A     -0.317465  
      16A     -0.257074    17A     -0.223532  

    Virtual:                                                              

      18A      0.048257    19A      0.076555    20A      0.100042  
      21A      0.105304    22A      0.134468    23A      0.148050  
      24A      0.157614    25A      0.207482    26A      0.228937  
      27A      0.251055    28A      0.436774    29A      0.468957  
      30A      0.496393    31A      0.504339    32A      0.548614  
      33A      0.558064    34A      0.608796    35A      0.622136  
      36A      0.644500    37A      0.651091    38A      0.672030  
      39A      0.677275    40A      0.701417    41A      0.819685  
      42A      0.843185    43A      0.861700    44A      0.921029  
      45A      0.970081    46A      1.000560    47A      1.005528  
      48A      1.061778    49A      1.181419    50A      1.200878  
      51A      1.226508    52A      1.285608    53A      1.307979  
      54A      1.372538    55A      1.446388    56A      1.485422  
      57A      1.537480    58A      1.579830    59A      1.605936  
      60A      1.616466    61A      1.629360    62A      1.684561  
      63A      1.702512    64A      1.707900    65A      1.744598  
      66A      1.771598    67A      1.853872    68A      1.898779  
      69A      1.920980    70A      1.936627    71A      1.974551  
      72A      2.020972    73A      2.040345    74A      2.132030  
      75A      2.183908    76A      2.217692    77A      2.289300  
      78A      2.371320    79A      2.400146    80A      2.456203  
      81A      2.471617    82A      2.555033    83A      2.614842  
      84A      2.683499    85A      2.830739    86A      2.972161  
      87A      3.019876    88A      3.051105    89A      3.121643  
      90A      3.211053    91A      3.706884  

    Final Occupation by Irrep:
              A 
    DOCC [    17 ]

  Energy converged.

  @DF-RKS Final Energy:  -210.38843506258394

   => Energetics <=

    Nuclear Repulsion Energy =            132.6149458160679160
    One-Electron Energy =                -548.2624907186299197
    Two-Electron Energy =                 228.7490624511470685
    DFT Exchange-Correlation Energy =     -23.4849585111690082
    Empirical Dispersion Energy =          -0.0049941000000000
    PCM Polarization Energy =               0.0000000000000000
    EFP Energy =                            0.0000000000000000
    Total Energy =                       -210.3884350625839375



Properties will be evaluated at   0.000000,   0.000000,   0.000000 Bohr

Properties computed using the SCF density matrix

  Nuclear Dipole Moment: (a.u.)
     X:   147.6382      Y:   -53.8207      Z:   -22.8494

  Electronic Dipole Moment: (a.u.)
     X:  -146.8707      Y:    54.1136      Z:    23.1764

  Dipole Moment: (a.u.)
     X:     0.7675      Y:     0.2929      Z:     0.3270     Total:     0.8842

  Dipole Moment: (Debye)
     X:     1.9508      Y:     0.7445      Z:     0.8313     Total:     2.2474


*** tstop() called on computer03 at Fri Sep 15 12:30:54 2017
Module time:
	user time   =      37.56 seconds =       0.63 minutes
	system time =       0.85 seconds =       0.01 minutes
	total time  =         20 seconds =       0.33 minutes
Total time:
	user time   =      37.56 seconds =       0.63 minutes
	system time =       0.85 seconds =       0.01 minutes
	total time  =         20 seconds =       0.33 minutes


Properties will be evaluated at   0.000000,   0.000000,   0.000000 Bohr

Properties computed using the  density matrix

  Nuclear Dipole Moment: (a.u.)
     X:   147.6382      Y:   -53.8207      Z:   -22.8494

  Electronic Dipole Moment: (a.u.)
     X:  -146.8707      Y:    54.1136      Z:    23.1764

  Dipole Moment: (a.u.)
     X:     0.7675      Y:     0.2929      Z:     0.3270     Total:     0.8842

  Dipole Moment: (Debye)
     X:     1.9508      Y:     0.7445      Z:     0.8313     Total:     2.2474

  Quadrupole Moment: (Debye Ang)
    XX:   -17.5492     YY:   -22.8564     ZZ:   -23.5840
    XY:    -3.7610     XZ:    -0.2400     YZ:     1.1884

  Traceless Quadrupole Moment: (Debye Ang)
    XX:     3.7807     YY:    -1.5265     ZZ:    -2.2542
    XY:    -3.7610     XZ:    -0.2400     YZ:     1.1884

  Mulliken Charges: (a.u.)
   Center  Symbol    Alpha    Beta     Spin     Total
       1     O     4.13352  4.13352  0.00000 -0.26704
       2     C     2.92928  2.92928  0.00000  0.14145
       3     C     2.98061  2.98061  0.00000  0.03878
       4     N     3.58413  3.58413  0.00000 -0.16826
       5     H     0.43249  0.43249  0.00000  0.13502
       6     H     0.50521  0.50521  0.00000 -0.01042
       7     H     0.50303  0.50303  0.00000 -0.00606
       8     H     0.50738  0.50738  0.00000 -0.01476
       9     H     0.48991  0.48991  0.00000  0.02019
      10     H     0.46803  0.46803  0.00000  0.06395
      11     H     0.46643  0.46643  0.00000  0.06715

   Total alpha = 17.00000, Total beta = 17.00000, Total charge = -0.00000


*** Psi4 exiting successfully. Buy a developer a beer!
