
    -----------------------------------------------------------------------
          Psi4: An Open-Source Ab Initio Electronic Structure Package
                               Psi4 1.1 release

                         Git: Rev {HEAD} add49b9 


    R. M. Parrish, L. A. Burns, D. G. A. Smith, A. C. Simmonett,
    A. E. DePrince III, E. G. Hohenstein, U. Bozkaya, A. Yu. Sokolov,
    R. Di Remigio, R. M. Richard, J. F. Gonthier, A. M. James,
    H. R. McAlexander, A. Kumar, M. Saitow, X. Wang, B. P. Pritchard,
    P. Verma, H. F. Schaefer III, K. Patkowski, R. A. King, E. F. Valeev,
    F. A. Evangelista, J. M. Turney, T. D. Crawford, and C. D. Sherrill,
    J. Chem. Theory Comput. in press (2017).
    (doi: 10.1021/acs.jctc.7b00174)

    -----------------------------------------------------------------------


    Psi4 started on: Tuesday, 12 December 2017 11:17AM

    Process ID:  26579
    PSIDATADIR: /shared/raimis/opt/miniconda/envs/htmd/share/psi4
    Memory:     500.0 MiB
    Threads:    1
    
  ==> Input File <==

--------------------------------------------------------------------------
set_num_threads(1)
set_memory(4203741184)

set { reference rks }
set { basis cc-pVDZ }

molecule MOL {
    0 1
    noreorient
    nocom
    symmetry c1
    O    1.050400   0.042900  -0.048100
    C    2.474100   0.047400  -0.029000
    C    3.002600  -1.068900  -0.932000
    N    2.547701  -2.389344  -0.499571
    H    0.760400   0.728400   0.578000
    H    2.809900  -0.097900   1.003200
    H    2.817400   1.026800  -0.378600
    H    4.098367  -1.043301  -0.951431
    H    2.673359  -0.888064  -1.961541
    H    2.954653  -2.605429   0.409923
    H    2.915384  -3.089980  -1.143132
}

set optking { frozen_dihedral = (" 1 2 3 4 ") }

energy, wfn = energy('B3LYP-D3', return_wfn=True)

import os
os.chdir(os.environ['HTMD_PSI4_WORKDIR'])

oeprop(wfn, 'DIPOLE', 'QUADRUPOLE', 'MULLIKEN_CHARGES')

with open('psi4out.xyz', 'w') as f:
    f.write('11 ' )
    f.write('%.12f\n' % energy)
    f.write(MOL.save_string_xyz())
--------------------------------------------------------------------------
  Threads set to 1 by Python driver.

  Memory set to   3.915 GiB by Python driver.

*** tstart() called on computer06
*** at Tue Dec 12 11:17:03 2017

   => Loading Basis Set <=

    Name: CC-PVDZ
    Role: ORBITAL
    Keyword: BASIS
    atoms 1    entry O          line   190 file /shared/raimis/opt/miniconda/envs/htmd/share/psi4/basis/cc-pvdz.gbs 
    atoms 2-3  entry C          line   130 file /shared/raimis/opt/miniconda/envs/htmd/share/psi4/basis/cc-pvdz.gbs 
    atoms 4    entry N          line   160 file /shared/raimis/opt/miniconda/envs/htmd/share/psi4/basis/cc-pvdz.gbs 
    atoms 5-11 entry H          line    20 file /shared/raimis/opt/miniconda/envs/htmd/share/psi4/basis/cc-pvdz.gbs 


         ---------------------------------------------------------
                                   SCF
            by Justin Turney, Rob Parrish, and Andy Simmonett
                              RKS Reference
                        1 Threads,   4009 MiB Core
         ---------------------------------------------------------

  ==> Geometry <==

    Molecular point group: c1
    Full point group: C1

    Geometry (in Angstrom), charge = 0, multiplicity = 1:

       Center              X                  Y                   Z               Mass       
    ------------   -----------------  -----------------  -----------------  -----------------
           O          1.050400000000     0.042900000000    -0.048100000000    15.994914619560
           C          2.474100000000     0.047400000000    -0.029000000000    12.000000000000
           C          3.002600000000    -1.068900000000    -0.932000000000    12.000000000000
           N          2.547701000000    -2.389344000000    -0.499571000000    14.003074004780
           H          0.760400000000     0.728400000000     0.578000000000     1.007825032070
           H          2.809900000000    -0.097900000000     1.003200000000     1.007825032070
           H          2.817400000000     1.026800000000    -0.378600000000     1.007825032070
           H          4.098367000000    -1.043301000000    -0.951431000000     1.007825032070
           H          2.673359000000    -0.888064000000    -1.961541000000     1.007825032070
           H          2.954653000000    -2.605429000000     0.409923000000     1.007825032070
           H          2.915384000000    -3.089980000000    -1.143132000000     1.007825032070

  Running in c1 symmetry.

  Rotational constants: A =      0.29984  B =      0.03863  C =      0.03552 [cm^-1]
  Rotational constants: A =   8988.96942  B =   1158.06271  C =   1064.79056 [MHz]
  Nuclear repulsion =  132.614945816067916

  Charge       = 0
  Multiplicity = 1
  Electrons    = 34
  Nalpha       = 17
  Nbeta        = 17

  ==> Algorithm <==

  SCF Algorithm Type is DF.
  DIIS enabled.
  MOM disabled.
  Fractional occupation disabled.
  Guess Type is SAD.
  Energy threshold   = 1.00e-06
  Density threshold  = 1.00e-06
  Integral threshold = 0.00e+00

  ==> Primary Basis <==

  Basis Set: CC-PVDZ
    Blend: CC-PVDZ
    Number of shells: 45
    Number of basis function: 91
    Number of Cartesian functions: 95
    Spherical Harmonics?: true
    Max angular momentum: 2

  ==> DFT Potential <==

   => B3LYP Composite Functional <= 

    B3LYP Hybrid-GGA Exchange-Correlation Functional (VWN1-RPA)

    P.J. Stephens et. al., J. Phys. Chem., 98, 11623-11627, 1994

    Points   =           5000
    Deriv    =              1
    GGA      =           TRUE
    Meta     =          FALSE

    X_LRC        =          FALSE
    X_Hybrid     =           TRUE
    X_Alpha      =   2.000000E-01
    X_Omega      =   0.000000E+00
    C_LRC        =          FALSE
    C_Hybrid     =          FALSE
    C_Alpha      =   0.000000E+00
    C_Omega      =   0.000000E+00

   => Exchange Functionals <=

    0.8000    B3_X
    0.2000      HF 

   => Correlation Functionals <=

    0.1900 VWN3RPA_C
    0.8100   LYP_C

   => Molecular Quadrature <=

    Radial Scheme    =       TREUTLER
    Pruning Scheme   =           FLAT
    Nuclear Scheme   =       TREUTLER

    BS radius alpha  =              1
    Pruning alpha    =              1
    Radial Points    =             75
    Spherical Points =            302
    Total Points     =         245111
    Total Blocks     =            221
    Max Points       =           4925
    Max Functions    =             91

   => -D3ZERO: Empirical Dispersion <=

    Grimme's -D3 (zero-damping) Dispersion Correction
    Grimme S.; Antony J.; Ehrlich S.; Krieg H. (2010), J. Chem. Phys., 132: 154104

        S6 =   1.000000E+00
        S8 =   1.703000E+00
       SR6 =   1.261000E+00
    ALPHA6 =   1.400000E+01

   => Loading Basis Set <=

    Name: (CC-PVDZ AUX)
    Role: JKFIT
    Keyword: DF_BASIS_SCF
    atoms 1    entry O          line   220 file /shared/raimis/opt/miniconda/envs/htmd/share/psi4/basis/cc-pvdz-jkfit.gbs 
    atoms 2-3  entry C          line   120 file /shared/raimis/opt/miniconda/envs/htmd/share/psi4/basis/cc-pvdz-jkfit.gbs 
    atoms 4    entry N          line   170 file /shared/raimis/opt/miniconda/envs/htmd/share/psi4/basis/cc-pvdz-jkfit.gbs 
    atoms 5-11 entry H          line    50 file /shared/raimis/opt/miniconda/envs/htmd/share/psi4/basis/cc-pvdz-jkfit.gbs 

  ==> Pre-Iterations <==

   -------------------------------------------------------
    Irrep   Nso     Nmo     Nalpha   Nbeta   Ndocc  Nsocc
   -------------------------------------------------------
     A         91      91       0       0       0       0
   -------------------------------------------------------
    Total      91      91      17      17      17       0
   -------------------------------------------------------

  ==> Integral Setup <==

  ==> DFJK: Density-Fitted J/K Matrices <==

    J tasked:                  Yes
    K tasked:                  Yes
    wK tasked:                  No
    OpenMP threads:              1
    Integrals threads:           1
    Memory (MB):              3006
    Algorithm:                Core
    Integral Cache:           NONE
    Schwarz Cutoff:          1E-12
    Fitting Condition:       1E-12

   => Auxiliary Basis Set <=

  Basis Set: (CC-PVDZ AUX)
    Blend: CC-PVDZ-JKFIT
    Number of shells: 159
    Number of basis function: 441
    Number of Cartesian functions: 499
    Spherical Harmonics?: true
    Max angular momentum: 3

  Minimum eigenvalue in the overlap matrix is 4.8896572005E-03.
  Using Symmetric Orthogonalization.

  SCF Guess: Superposition of Atomic Densities via on-the-fly atomic UHF.

  ==> Iterations <==

                           Total Energy        Delta E     RMS |[F,P]|

   @DF-RKS iter   0:  -210.92218549424388   -2.10922e+02   3.72809e-02 
   @DF-RKS iter   1:  -210.24206953087375    6.80116e-01   6.38892e-03 
   @DF-RKS iter   2:  -210.10220755135421    1.39862e-01   9.24641e-03 DIIS
   @DF-RKS iter   3:  -210.38685653478194   -2.84649e-01   6.43286e-04 DIIS
   @DF-RKS iter   4:  -210.38797592399760   -1.11939e-03   3.46989e-04 DIIS
   @DF-RKS iter   5:  -210.38842101248804   -4.45088e-04   6.00429e-05 DIIS
   @DF-RKS iter   6:  -210.38843448465281   -1.34722e-05   1.25504e-05 DIIS
   @DF-RKS iter   7:  -210.38843498105143   -4.96399e-07   4.76593e-06 DIIS
   @DF-RKS iter   8:  -210.38843506134265   -8.02912e-08   6.23138e-07 DIIS

  ==> Post-Iterations <==

    Orbital Energies (a.u.)
    -----------------------

    Doubly Occupied:                                                      

       1A    -19.120449     2A    -14.297780     3A    -10.224692  
       4A    -10.203064     5A     -1.004109     6A     -0.871142  
       7A     -0.713796     8A     -0.594683     9A     -0.506045  
      10A     -0.485266    11A     -0.445364    12A     -0.411827  
      13A     -0.387255    14A     -0.368044    15A     -0.317465  
      16A     -0.257073    17A     -0.223532  

    Virtual:                                                              

      18A      0.048257    19A      0.076555    20A      0.100041  
      21A      0.105304    22A      0.134467    23A      0.148049  
      24A      0.157614    25A      0.207483    26A      0.228936  
      27A      0.251053    28A      0.436773    29A      0.468956  
      30A      0.496391    31A      0.504340    32A      0.548613  
      33A      0.558064    34A      0.608796    35A      0.622135  
      36A      0.644500    37A      0.651091    38A      0.672028  
      39A      0.677275    40A      0.701416    41A      0.819684  
      42A      0.843184    43A      0.861700    44A      0.921028  
      45A      0.970080    46A      1.000561    47A      1.005527  
      48A      1.061779    49A      1.181418    50A      1.200877  
      51A      1.226508    52A      1.285608    53A      1.307978  
      54A      1.372538    55A      1.446388    56A      1.485421  
      57A      1.537480    58A      1.579828    59A      1.605935  
      60A      1.616465    61A      1.629360    62A      1.684561  
      63A      1.702512    64A      1.707898    65A      1.744597  
      66A      1.771597    67A      1.853871    68A      1.898779  
      69A      1.920979    70A      1.936627    71A      1.974551  
      72A      2.020971    73A      2.040344    74A      2.132030  
      75A      2.183907    76A      2.217691    77A      2.289300  
      78A      2.371318    79A      2.400145    80A      2.456203  
      81A      2.471616    82A      2.555032    83A      2.614840  
      84A      2.683497    85A      2.830739    86A      2.972162  
      87A      3.019877    88A      3.051106    89A      3.121644  
      90A      3.211055    91A      3.706885  

    Final Occupation by Irrep:
              A 
    DOCC [    17 ]

  Energy converged.

  @DF-RKS Final Energy:  -210.38843506134265

   => Energetics <=

    Nuclear Repulsion Energy =            132.6149458160679160
    One-Electron Energy =                -548.2624299412166238
    Two-Electron Energy =                 228.7490045116698525
    DFT Exchange-Correlation Energy =     -23.4849613478637984
    Empirical Dispersion Energy =          -0.0049941000000000
    PCM Polarization Energy =               0.0000000000000000
    EFP Energy =                            0.0000000000000000
    Total Energy =                       -210.3884350613426477



Properties will be evaluated at   0.000000,   0.000000,   0.000000 Bohr

Properties computed using the SCF density matrix

  Nuclear Dipole Moment: (a.u.)
     X:   147.6382      Y:   -53.8207      Z:   -22.8494

  Electronic Dipole Moment: (a.u.)
     X:  -146.8707      Y:    54.1136      Z:    23.1764

  Dipole Moment: (a.u.)
     X:     0.7675      Y:     0.2929      Z:     0.3271     Total:     0.8842

  Dipole Moment: (Debye)
     X:     1.9508      Y:     0.7445      Z:     0.8313     Total:     2.2474


*** tstop() called on computer06 at Tue Dec 12 11:17:27 2017
Module time:
	user time   =      23.07 seconds =       0.38 minutes
	system time =       0.16 seconds =       0.00 minutes
	total time  =         24 seconds =       0.40 minutes
Total time:
	user time   =      23.07 seconds =       0.38 minutes
	system time =       0.16 seconds =       0.00 minutes
	total time  =         24 seconds =       0.40 minutes


Properties will be evaluated at   0.000000,   0.000000,   0.000000 Bohr

Properties computed using the  density matrix

  Nuclear Dipole Moment: (a.u.)
     X:   147.6382      Y:   -53.8207      Z:   -22.8494

  Electronic Dipole Moment: (a.u.)
     X:  -146.8707      Y:    54.1136      Z:    23.1764

  Dipole Moment: (a.u.)
     X:     0.7675      Y:     0.2929      Z:     0.3271     Total:     0.8842

  Dipole Moment: (Debye)
     X:     1.9508      Y:     0.7445      Z:     0.8313     Total:     2.2474

  Quadrupole Moment: (Debye Ang)
    XX:   -17.5493     YY:   -22.8563     ZZ:   -23.5840
    XY:    -3.7610     XZ:    -0.2400     YZ:     1.1884

  Traceless Quadrupole Moment: (Debye Ang)
    XX:     3.7806     YY:    -1.5264     ZZ:    -2.2541
    XY:    -3.7610     XZ:    -0.2400     YZ:     1.1884

  Mulliken Charges: (a.u.)
   Center  Symbol    Alpha    Beta     Spin     Total
       1     O     4.13352  4.13352  0.00000 -0.26704
       2     C     2.92927  2.92927  0.00000  0.14147
       3     C     2.98062  2.98062  0.00000  0.03875
       4     N     3.58413  3.58413  0.00000 -0.16825
       5     H     0.43249  0.43249  0.00000  0.13502
       6     H     0.50521  0.50521  0.00000 -0.01042
       7     H     0.50303  0.50303  0.00000 -0.00607
       8     H     0.50737  0.50737  0.00000 -0.01475
       9     H     0.48990  0.48990  0.00000  0.02020
      10     H     0.46803  0.46803  0.00000  0.06395
      11     H     0.46643  0.46643  0.00000  0.06715

   Total alpha = 17.00000, Total beta = 17.00000, Total charge = -0.00000


*** Psi4 exiting successfully. Buy a developer a beer!
