    -----------------------------------------------------------------------
          Psi4: An Open-Source Ab Initio Electronic Structure Package
                              Psi4 (no tag) Driver

                          Git: Rev {detached?}  

    J. M. Turney, A. C. Simmonett, R. M. Parrish, E. G. Hohenstein,
    F. A. Evangelista, J. T. Fermann, B. J. Mintz, L. A. Burns, J. J. Wilke,
    M. L. Abrams, N. J. Russ, M. L. Leininger, C. L. Janssen, E. T. Seidl,
    W. D. Allen, H. F. Schaefer, R. A. King, E. F. Valeev, C. D. Sherrill,
    and T. D. Crawford, WIREs Comput. Mol. Sci. 2, 556-565 (2012)
    (doi: 10.1002/wcms.93)

                         Additional Contributions by
    A. E. DePrince, M. Saitow, U. Bozkaya, A. Yu. Sokolov
    -----------------------------------------------------------------------


    Psi4 started on: Tue Jul  5 16:35:59 2016

    Process ID:  22699
    PSI4DATADIR: /export131/home/mjharvey/miniconda3/share
    Memory level set to 256.000 MB

  ==> Input File <==

--------------------------------------------------------------------------
set {
	reference rhf
	basis 6-31G*
}


set_num_threads( 1 )
memory 2 gb

molecule MOL {
0 1

H	 -2.698709	 -0.000305	 0.034435
C	 -1.693833	 0.000034	 0.434417
O	 -0.828952	 -0.000968	 -0.659236
H	 -1.574200	 0.882896	 1.055746
H	 -1.574147	 -0.881698	 1.057355
C	 0.559449	 -0.000018	 -0.420814
C	 1.161544	 -1.403077	 -0.463503
C	 1.307561	 0.980413	 -1.321948
H	 0.634191	 0.362213	 0.597633
H	 0.576252	 -2.082325	 0.146910
H	 2.175090	 -1.383880	 -0.075441
H	 1.206287	 -1.800597	 -1.472533
H	 0.822942	 1.950649	 -1.306292
H	 2.327268	 1.103456	 -0.970490
H	 1.356457	 0.637934	 -2.350616

	symmetry c1
}
set optking {
	frozen_dihedral = ("
		6 3 2 1
	")
}

ee = energy('scf')
oeprop('DIPOLE', 'QUADRUPOLE', 'MULLIKEN_CHARGES')
f=open( 'psi4out.xyz', 'w' )
f.write( "15  " )
f.write( str(ee) + "\n" )
f.write( MOL.save_string_xyz() )
f.close()
--------------------------------------------------------------------------

  Memory set to   2.000 GiB by Python script.

*** tstart() called on cx1-3-4-2.cx1.hpc.ic.ac.uk
*** at Tue Jul  5 16:36:00 2016


         ---------------------------------------------------------
                                   SCF
            by Justin Turney, Rob Parrish, and Andy Simmonett
                              RHF Reference
                        1 Threads,   2000 MiB Core
         ---------------------------------------------------------

  ==> Geometry <==

    Molecular point group: c1
    Full point group: C1

    Geometry (in Angstrom), charge = 0, multiplicity = 1:

       Center              X                  Y                   Z               Mass       
    ------------   -----------------  -----------------  -----------------  -----------------
           H         -2.780175872558     0.084859409234     0.508501207857     1.007825032070
           C         -1.775299872558     0.085198409234     0.908483207857    12.000000000000
           O         -0.910418872558     0.084196409234    -0.185169792143    15.994914619560
           H         -1.655666872558     0.968060409234     1.529812207857     1.007825032070
           H         -1.655613872558    -0.796533590766     1.531421207857     1.007825032070
           C          0.477982127442     0.085146409234     0.053252207857    12.000000000000
           C          1.080077127442    -1.317912590766     0.010563207857    12.000000000000
           C          1.226094127442     1.065577409234    -0.847881792143    12.000000000000
           H          0.552724127442     0.447377409234     1.071699207857     1.007825032070
           H          0.494785127442    -1.997160590766     0.620976207857     1.007825032070
           H          2.093623127442    -1.298715590766     0.398625207857     1.007825032070
           H          1.124820127442    -1.715432590766    -0.998466792143     1.007825032070
           H          0.741475127442     2.035813409234    -0.832225792143     1.007825032070
           H          2.245801127442     1.188620409234    -0.496423792143     1.007825032070
           H          1.274990127442     0.723098409234    -1.876549792143     1.007825032070

  Running in c1 symmetry.

  Rotational constants: A =      0.25102  B =      0.12116  C =      0.09140 [cm^-1]
  Rotational constants: A =   7525.49247  B =   3632.28015  C =   2740.18956 [MHz]
  Nuclear repulsion =  195.658006151727534

  Charge       = 0
  Multiplicity = 1
  Electrons    = 42
  Nalpha       = 21
  Nbeta        = 21

  ==> Algorithm <==

  SCF Algorithm Type is DF.
  DIIS enabled.
  MOM disabled.
  Fractional occupation disabled.
  Guess Type is CORE.
  Energy threshold   = 1.00e-06
  Density threshold  = 1.00e-06
  Integral threshold = 0.00e+00

  ==> Primary Basis <==

  Basis Set: 6-31G*
    Number of shells: 50
    Number of basis function: 95
    Number of Cartesian functions: 95
    Spherical Harmonics?: false
    Max angular momentum: 2

  ==> Pre-Iterations <==

   -------------------------------------------------------
    Irrep   Nso     Nmo     Nalpha   Nbeta   Ndocc  Nsocc
   -------------------------------------------------------
     A         95      95       0       0       0       0
   -------------------------------------------------------
    Total      95      95      21      21      21       0
   -------------------------------------------------------

 OEINTS: Overlap, kinetic, potential, dipole, and quadrupole integrals
         stored in file 35.

  ==> Integral Setup <==

  ==> DFJK: Density-Fitted J/K Matrices <==

    J tasked:                  Yes
    K tasked:                  Yes
    wK tasked:                  No
    OpenMP threads:              1
    Integrals threads:           1
    Memory (MB):              1430
    Algorithm:                Core
    Integral Cache:           NONE
    Schwarz Cutoff:          1E-12
    Fitting Condition:       1E-12

   => Auxiliary Basis Set <=

  Basis Set: 
    Number of shells: 210
    Number of basis function: 655
    Number of Cartesian functions: 655
    Spherical Harmonics?: false
    Max angular momentum: 3

  Minimum eigenvalue in the overlap matrix is 4.2750985094E-03.
  Using Symmetric Orthogonalization.
  SCF Guess: Core (One-Electron) Hamiltonian.

  ==> Iterations <==

                           Total Energy        Delta E     RMS |[F,P]|

   @DF-RHF iter   1:  -175.36551707260600   -1.75366e+02   9.27824e-02 
   @DF-RHF iter   2:  -187.71424445982643   -1.23487e+01   5.00345e-02 DIIS
   @DF-RHF iter   3:  -202.38704188960332   -1.46728e+01   6.64132e-02 DIIS
   @DF-RHF iter   4:  -223.27010806818606   -2.08831e+01   4.20642e-02 DIIS
   @DF-RHF iter   5:  -228.34437075915150   -5.07426e+00   2.80924e-02 DIIS
   @DF-RHF iter   6:  -231.27694440129329   -2.93257e+00   1.31077e-02 DIIS
   @DF-RHF iter   7:  -232.07050455662284   -7.93560e-01   3.39630e-03 DIIS
   @DF-RHF iter   8:  -232.13053726998714   -6.00327e-02   9.81097e-04 DIIS
   @DF-RHF iter   9:  -232.13629236244947   -5.75509e-03   1.77541e-04 DIIS
   @DF-RHF iter  10:  -232.13656567479700   -2.73312e-04   6.86921e-05 DIIS
   @DF-RHF iter  11:  -232.13660159733701   -3.59225e-05   1.89243e-05 DIIS
   @DF-RHF iter  12:  -232.13660498324930   -3.38591e-06   8.44695e-06 DIIS
   @DF-RHF iter  13:  -232.13660531308381   -3.29835e-07   1.62269e-06 DIIS
   @DF-RHF iter  14:  -232.13660533221093   -1.91271e-08   4.82912e-07 DIIS

  ==> Post-Iterations <==

    Orbital Energies (a.u.)
    -----------------------

    Doubly Occupied:                                                      

       1A    -20.545861     2A    -11.274962     3A    -11.264841  
       4A    -11.209494     5A    -11.208705     6A     -1.369342  
       7A     -1.051760     8A     -0.936939     9A     -0.921290  
      10A     -0.794528    11A     -0.664850    12A     -0.639440  
      13A     -0.636514    14A     -0.582286    15A     -0.555012  
      16A     -0.541330    17A     -0.536666    18A     -0.497373  
      19A     -0.494319    20A     -0.445033    21A     -0.404580  

    Virtual:                                                              

      22A      0.225596    23A      0.265444    24A      0.279965  
      25A      0.295932    26A      0.312830    27A      0.321564  
      28A      0.336588    29A      0.340931    30A      0.351769  
      31A      0.357321    32A      0.371249    33A      0.397965  
      34A      0.454779    35A      0.472409    36A      0.706401  
      37A      0.719601    38A      0.759866    39A      0.777717  
      40A      0.785504    41A      0.806136    42A      0.841638  
      43A      0.897242    44A      0.932996    45A      0.978138  
      46A      0.995748    47A      1.006975    48A      1.105971  
      49A      1.133858    50A      1.143928    51A      1.171360  
      52A      1.181625    53A      1.193586    54A      1.201347  
      55A      1.214772    56A      1.242909    57A      1.243372  
      58A      1.271442    59A      1.294997    60A      1.387652  
      61A      1.439362    62A      1.580552    63A      1.618255  
      64A      1.694947    65A      1.706702    66A      1.844971  
      67A      1.894011    68A      1.953845    69A      2.040443  
      70A      2.095245    71A      2.123373    72A      2.232545  
      73A      2.269183    74A      2.340297    75A      2.394712  
      76A      2.459369    77A      2.464298    78A      2.501175  
      79A      2.531653    80A      2.583097    81A      2.601510  
      82A      2.613399    83A      2.703732    84A      2.732588  
      85A      2.851391    86A      2.928044    87A      2.947856  
      88A      3.116017    89A      3.222632    90A      3.306372  
      91A      4.376089    92A      4.609146    93A      4.691970  
      94A      4.720481    95A      4.958250  

    Final Occupation by Irrep:
              A 
    DOCC [    21 ]

  Energy converged.

  @DF-RHF Final Energy:  -232.13660533221093

   => Energetics <=

    Nuclear Repulsion Energy =            195.6580061517275340
    One-Electron Energy =                -702.4389379591814304
    Two-Electron Energy =                 274.6443264752430196
    DFT Exchange-Correlation Energy =       0.0000000000000000
    Empirical Dispersion Energy =           0.0000000000000000
    PCM Polarization Energy =               0.0000000000000000
    EFP Energy =                            0.0000000000000000
    Total Energy =                       -232.1366053322108769

    Alert: EFP and PCM quantities not currently incorporated into SCF psivars.

Properties will be evaluated at   0.000000,   0.000000,   0.000000 Bohr
  ==> Properties <==


Properties computed using the SCF density matrix

  Nuclear Dipole Moment: (a.u.)
     X:     2.2800      Y:    -0.3371      Z:     1.3653

  Electronic Dipole Moment: (a.u.)
     X:    -2.0882      Y:     0.3519      Z:    -0.8620

  Dipole Moment: (a.u.)
     X:     0.1918      Y:     0.0148      Z:     0.5034     Total:     0.5389

  Dipole Moment: (Debye)
     X:     0.4876      Y:     0.0375      Z:     1.2795     Total:     1.3698


  Saving occupied orbitals to File 180.

*** tstop() called on cx1-3-4-2.cx1.hpc.ic.ac.uk at Tue Jul  5 16:36:06 2016
Module time:
	user time   =       5.38 seconds =       0.09 minutes
	system time =       0.05 seconds =       0.00 minutes
	total time  =          6 seconds =       0.10 minutes
Total time:
	user time   =       5.38 seconds =       0.09 minutes
	system time =       0.05 seconds =       0.00 minutes
	total time  =          6 seconds =       0.10 minutes


Properties will be evaluated at   0.000000,   0.000000,   0.000000 Bohr

Properties computed using the  density matrix

  Nuclear Dipole Moment: (a.u.)
     X:     2.2800      Y:    -0.3371      Z:     1.3653

  Electronic Dipole Moment: (a.u.)
     X:    -2.0882      Y:     0.3519      Z:    -0.8620

  Dipole Moment: (a.u.)
     X:     0.1918      Y:     0.0148      Z:     0.5034     Total:     0.5389

  Dipole Moment: (Debye)
     X:     0.4876      Y:     0.0375      Z:     1.2795     Total:     1.3698

  Quadrupole Moment: (Debye Ang)
    XX:   -31.4717     YY:   -33.4331     ZZ:   -32.8801
    XY:     0.0921     XZ:    -2.2313     YZ:     0.1803

  Traceless Quadrupole Moment: (Debye Ang)
    XX:     1.1232     YY:    -0.8381     ZZ:    -0.2851
    XY:     0.0921     XZ:    -2.2313     YZ:     0.1803

  Mulliken Charges: (a.u.)
   Center  Symbol    Alpha    Beta     Spin     Total
       1     H     0.41209  0.41209  0.00000  0.17581
       2     C     3.07769  3.07769  0.00000 -0.15538
       3     O     4.31706  4.31706  0.00000 -0.63412
       4     H     0.42968  0.42968  0.00000  0.14064
       5     H     0.43084  0.43084  0.00000  0.13831
       6     C     2.90374  2.90374  0.00000  0.19252
       7     C     3.24357  3.24357  0.00000 -0.48713
       8     C     3.24260  3.24260  0.00000 -0.48520
       9     H     0.43452  0.43452  0.00000  0.13096
      10     H     0.41771  0.41771  0.00000  0.16459
      11     H     0.42275  0.42275  0.00000  0.15451
      12     H     0.41626  0.41626  0.00000  0.16748
      13     H     0.41365  0.41365  0.00000  0.17269
      14     H     0.42155  0.42155  0.00000  0.15690
      15     H     0.41630  0.41630  0.00000  0.16740

   Total alpha = 21.00000, Total beta = 21.00000, Total charge = -0.00000


*** PSI4 exiting successfully. Buy a developer a beer!
