    -----------------------------------------------------------------------
          Psi4: An Open-Source Ab Initio Electronic Structure Package
                              Psi4 (no tag) Driver

                          Git: Rev {detached?}  

    J. M. Turney, A. C. Simmonett, R. M. Parrish, E. G. Hohenstein,
    F. A. Evangelista, J. T. Fermann, B. J. Mintz, L. A. Burns, J. J. Wilke,
    M. L. Abrams, N. J. Russ, M. L. Leininger, C. L. Janssen, E. T. Seidl,
    W. D. Allen, H. F. Schaefer, R. A. King, E. F. Valeev, C. D. Sherrill,
    and T. D. Crawford, WIREs Comput. Mol. Sci. 2, 556-565 (2012)
    (doi: 10.1002/wcms.93)

                         Additional Contributions by
    A. E. DePrince, M. Saitow, U. Bozkaya, A. Yu. Sokolov
    -----------------------------------------------------------------------


    Psi4 started on: Tue Jul  5 17:15:32 2016

    Process ID:  19307
    PSI4DATADIR: /export131/home/mjharvey/miniconda3/share
    Memory level set to 256.000 MB

  ==> Input File <==

--------------------------------------------------------------------------
set {
	reference rhf
	basis 6-31G*
}


set_num_threads( 1 )
memory 2 gb

molecule MOL {
0 1

H	 -2.646374	 -0.642757	 1.268656
C	 -2.083525	 -0.384536	 0.393091
O	 -0.807605	 -0.127164	 0.768327
F	 -2.118945	 -1.383102	 -0.486752
F	 -2.621877	 0.670592	 -0.209486
C	 -0.236951	 -0.950939	 1.721446
C	 -0.446142	 -2.384990	 1.252515
Cl	 -0.986854	 -0.697026	 3.305866
H	 0.820050	 -0.781166	 1.829609
F	 -1.721230	 -2.705903	 1.310021
F	 0.216177	 -3.194586	 2.054591
F	 -0.018379	 -2.572421	 0.027827

	symmetry c1
}
set optking {
	frozen_dihedral = ("
		10 7 6 9,
		9 6 3 2
	")
}

ee = energy('scf')
oeprop('DIPOLE', 'QUADRUPOLE', 'MULLIKEN_CHARGES')
f=open( 'psi4out.xyz', 'w' )
f.write( "12  " )
f.write( str(ee) + "\n" )
f.write( MOL.save_string_xyz() )
f.close()
--------------------------------------------------------------------------

  Memory set to   2.000 GiB by Python script.

*** tstart() called on cx1-3-4-4.cx1.hpc.ic.ac.uk
*** at Tue Jul  5 17:15:32 2016


         ---------------------------------------------------------
                                   SCF
            by Justin Turney, Rob Parrish, and Andy Simmonett
                              RHF Reference
                        1 Threads,   2000 MiB Core
         ---------------------------------------------------------

  ==> Geometry <==

    Molecular point group: c1
    Full point group: C1

    Geometry (in Angstrom), charge = 0, multiplicity = 1:

       Center              X                  Y                   Z               Mass       
    ------------   -----------------  -----------------  -----------------  -----------------
           H         -1.551217128186     0.699827173734     0.058455543979     1.007825032070
           C         -0.988368128186     0.958048173734    -0.817109456021    12.000000000000
           O          0.287551871814     1.215420173734    -0.441873456021    15.994914619560
           F         -1.023788128186    -0.040517826266    -1.696952456021    18.998403224000
           F         -1.526720128186     2.013176173734    -1.419686456021    18.998403224000
           C          0.858205871814     0.391645173734     0.511245543979    12.000000000000
           C          0.649014871814    -1.042405826266     0.042314543979    12.000000000000
          CL          0.108302871814     0.645558173734     2.095665543979    34.968852682000
           H          1.915206871814     0.561418173734     0.619408543979     1.007825032070
           F         -0.626073128186    -1.363318826266     0.099820543979    18.998403224000
           F          1.311333871814    -1.852001826266     0.844390543979    18.998403224000
           F          1.076777871814    -1.229836826266    -1.182373456021    18.998403224000

  Running in c1 symmetry.

  Rotational constants: A =      0.05140  B =      0.03593  C =      0.02524 [cm^-1]
  Rotational constants: A =   1540.89550  B =   1077.25682  C =    756.65969 [MHz]
  Nuclear repulsion =  764.663606978609664

  Charge       = 0
  Multiplicity = 1
  Electrons    = 90
  Nalpha       = 45
  Nbeta        = 45

  ==> Algorithm <==

  SCF Algorithm Type is DF.
  DIIS enabled.
  MOM disabled.
  Fractional occupation disabled.
  Guess Type is CORE.
  Energy threshold   = 1.00e-06
  Density threshold  = 1.00e-06
  Integral threshold = 0.00e+00

  ==> Primary Basis <==

  Basis Set: 6-31G*
    Number of shells: 66
    Number of basis function: 158
    Number of Cartesian functions: 158
    Spherical Harmonics?: false
    Max angular momentum: 2

  ==> Pre-Iterations <==

   -------------------------------------------------------
    Irrep   Nso     Nmo     Nalpha   Nbeta   Ndocc  Nsocc
   -------------------------------------------------------
     A        158     158       0       0       0       0
   -------------------------------------------------------
    Total     158     158      45      45      45       0
   -------------------------------------------------------

 OEINTS: Overlap, kinetic, potential, dipole, and quadrupole integrals
         stored in file 35.

  ==> Integral Setup <==

  ==> DFJK: Density-Fitted J/K Matrices <==

    J tasked:                  Yes
    K tasked:                  Yes
    wK tasked:                  No
    OpenMP threads:              1
    Integrals threads:           1
    Memory (MB):              1430
    Algorithm:                Core
    Integral Cache:           NONE
    Schwarz Cutoff:          1E-12
    Fitting Condition:       1E-12

   => Auxiliary Basis Set <=

  Basis Set: 
    Number of shells: 270
    Number of basis function: 909
    Number of Cartesian functions: 909
    Spherical Harmonics?: false
    Max angular momentum: 3

  Minimum eigenvalue in the overlap matrix is 1.7590286916E-03.
  Using Symmetric Orthogonalization.
  SCF Guess: Core (One-Electron) Hamiltonian.

  ==> Iterations <==

                           Total Energy        Delta E     RMS |[F,P]|

   @DF-RHF iter   1: -1056.06233972356176   -1.05606e+03   7.33616e-02 
   @DF-RHF iter   2:  -898.04368705349737    1.58019e+02   8.03828e-02 DIIS
   @DF-RHF iter   3: -1059.73630569936040   -1.61693e+02   5.80514e-02 DIIS
   @DF-RHF iter   4: -1104.65088559271999   -4.49146e+01   4.01385e-02 DIIS
   @DF-RHF iter   5: -1119.77889393009673   -1.51280e+01   3.73803e-02 DIIS
   @DF-RHF iter   6: -1144.92249383747594   -2.51436e+01   1.18609e-02 DIIS
   @DF-RHF iter   7: -1146.04585809063110   -1.12336e+00   4.59670e-03 DIIS
   @DF-RHF iter   8: -1146.21391120981025   -1.68053e-01   2.54932e-03 DIIS
   @DF-RHF iter   9: -1146.26884330040093   -5.49321e-02   1.27950e-03 DIIS
   @DF-RHF iter  10: -1146.28703346967177   -1.81902e-02   4.57899e-04 DIIS
   @DF-RHF iter  11: -1146.28955524645698   -2.52178e-03   1.44030e-04 DIIS
   @DF-RHF iter  12: -1146.28985817907324   -3.02933e-04   2.75799e-05 DIIS
   @DF-RHF iter  13: -1146.28987411351500   -1.59344e-05   8.74939e-06 DIIS
   @DF-RHF iter  14: -1146.28987566665592   -1.55314e-06   2.27709e-06 DIIS
   @DF-RHF iter  15: -1146.28987579847444   -1.31819e-07   7.09497e-07 DIIS

  ==> Post-Iterations <==

    Orbital Energies (a.u.)
    -----------------------

    Doubly Occupied:                                                      

       1A   -104.858022     2A    -26.366695     3A    -26.364989  
       4A    -26.364618     5A    -26.336817     6A    -26.327697  
       7A    -20.647552     8A    -11.534111     9A    -11.478094  
      10A    -11.412167    11A    -10.592992    12A     -8.062307  
      13A     -8.058828    14A     -8.058724    15A     -1.770835  
      16A     -1.703554    17A     -1.667267    18A     -1.664042  
      19A     -1.624122    20A     -1.489600    21A     -1.188305  
      22A     -1.057517    23A     -0.990747    24A     -0.928961  
      25A     -0.867115    26A     -0.860733    27A     -0.848217  
      28A     -0.828144    29A     -0.800033    30A     -0.765703  
      31A     -0.735053    32A     -0.728486    33A     -0.704415  
      34A     -0.698375    35A     -0.688517    36A     -0.679787  
      37A     -0.663806    38A     -0.661645    39A     -0.647199  
      40A     -0.630442    41A     -0.611122    42A     -0.555040  
      43A     -0.522508    44A     -0.492216    45A     -0.480859  

    Virtual:                                                              

      46A      0.161275    47A      0.229988    48A      0.269495  
      49A      0.283784    50A      0.363479    51A      0.379179  
      52A      0.391208    53A      0.414123    54A      0.423556  
      55A      0.463638    56A      0.510873    57A      0.554513  
      58A      0.611919    59A      0.619832    60A      0.647783  
      61A      0.676174    62A      0.703700    63A      0.718428  
      64A      0.745193    65A      0.756318    66A      0.762076  
      67A      0.783874    68A      0.833332    69A      0.889314  
      70A      0.962962    71A      1.053183    72A      1.060196  
      73A      1.095823    74A      1.114688    75A      1.133277  
      76A      1.158892    77A      1.192165    78A      1.253230  
      79A      1.265160    80A      1.294609    81A      1.310423  
      82A      1.353711    83A      1.370229    84A      1.406481  
      85A      1.413518    86A      1.438685    87A      1.465710  
      88A      1.510594    89A      1.532834    90A      1.556118  
      91A      1.580827    92A      1.602693    93A      1.612308  
      94A      1.642013    95A      1.651860    96A      1.659477  
      97A      1.674104    98A      1.695239    99A      1.732073  
     100A      1.790862   101A      1.818249   102A      1.858002  
     103A      1.920252   104A      1.944477   105A      1.954612  
     106A      1.993918   107A      2.051071   108A      2.075832  
     109A      2.079917   110A      2.103744   111A      2.105454  
     112A      2.111608   113A      2.158093   114A      2.214517  
     115A      2.247517   116A      2.251165   117A      2.278175  
     118A      2.300793   119A      2.320039   120A      2.330834  
     121A      2.381766   122A      2.401484   123A      2.401851  
     124A      2.422019   125A      2.423942   126A      2.452565  
     127A      2.490515   128A      2.523783   129A      2.565059  
     130A      2.600344   131A      2.638809   132A      2.667352  
     133A      2.745130   134A      2.783216   135A      2.845130  
     136A      2.938142   137A      3.049595   138A      3.097831  
     139A      3.127860   140A      3.139947   141A      3.179200  
     142A      3.225257   143A      3.384599   144A      3.389790  
     145A      3.410172   146A      3.429958   147A      3.474876  
     148A      3.525773   149A      4.378010   150A      4.539109  
     151A      4.707151   152A      4.759308   153A      4.821972  
     154A      4.957874   155A      5.153503   156A      5.244209  
     157A      5.784154   158A      5.881333  

    Final Occupation by Irrep:
              A 
    DOCC [    45 ]

  Energy converged.

  @DF-RHF Final Energy: -1146.28987579847444

   => Energetics <=

    Nuclear Repulsion Energy =            764.6636069786096641
    One-Electron Energy =               -3111.8707761886767003
    Two-Electron Energy =                1200.9172934115949829
    DFT Exchange-Correlation Energy =       0.0000000000000000
    Empirical Dispersion Energy =           0.0000000000000000
    PCM Polarization Energy =               0.0000000000000000
    EFP Energy =                            0.0000000000000000
    Total Energy =                      -1146.2898757984721669

    Alert: EFP and PCM quantities not currently incorporated into SCF psivars.

Properties will be evaluated at   0.000000,   0.000000,   0.000000 Bohr
  ==> Properties <==


Properties computed using the SCF density matrix

  Nuclear Dipole Moment: (a.u.)
     X:     0.9873      Y:     2.9297      Z:     1.8797

  Electronic Dipole Moment: (a.u.)
     X:    -0.5726      Y:    -2.8820      Z:    -1.3122

  Dipole Moment: (a.u.)
     X:     0.4147      Y:     0.0477      Z:     0.5675     Total:     0.7045

  Dipole Moment: (Debye)
     X:     1.0540      Y:     0.1212      Z:     1.4424     Total:     1.7906


  Saving occupied orbitals to File 180.

*** tstop() called on cx1-3-4-4.cx1.hpc.ic.ac.uk at Tue Jul  5 17:15:51 2016
Module time:
	user time   =      18.30 seconds =       0.30 minutes
	system time =       0.23 seconds =       0.00 minutes
	total time  =         19 seconds =       0.32 minutes
Total time:
	user time   =      18.30 seconds =       0.30 minutes
	system time =       0.23 seconds =       0.00 minutes
	total time  =         19 seconds =       0.32 minutes


Properties will be evaluated at   0.000000,   0.000000,   0.000000 Bohr

Properties computed using the  density matrix

  Nuclear Dipole Moment: (a.u.)
     X:     0.9873      Y:     2.9297      Z:     1.8797

  Electronic Dipole Moment: (a.u.)
     X:    -0.5726      Y:    -2.8820      Z:    -1.3122

  Dipole Moment: (a.u.)
     X:     0.4147      Y:     0.0477      Z:     0.5675     Total:     0.7045

  Dipole Moment: (Debye)
     X:     1.0540      Y:     0.1212      Z:     1.4424     Total:     1.7906

  Quadrupole Moment: (Debye Ang)
    XX:   -56.1645     YY:   -64.4538     ZZ:   -64.2085
    XY:     1.3518     XZ:    -1.0683     YZ:     1.8413

  Traceless Quadrupole Moment: (Debye Ang)
    XX:     5.4444     YY:    -2.8449     ZZ:    -2.5996
    XY:     1.3518     XZ:    -1.0683     YZ:     1.8413

  Mulliken Charges: (a.u.)
   Center  Symbol    Alpha    Beta     Spin     Total
       1     H     0.40862  0.40862  0.00000  0.18277
       2     C     2.57177  2.57177  0.00000  0.85646
       3     O     4.29949  4.29949  0.00000 -0.59898
       4     F     4.68239  4.68239  0.00000 -0.36477
       5     F     4.67710  4.67710  0.00000 -0.35420
       6     C     3.03410  3.03410  0.00000 -0.06820
       7     C     2.44600  2.44600  0.00000  1.10801
       8    CL     8.50316  8.50316  0.00000 -0.00633
       9     H     0.35875  0.35875  0.00000  0.28250
      10     F     4.67350  4.67350  0.00000 -0.34700
      11     F     4.67640  4.67640  0.00000 -0.35281
      12     F     4.66872  4.66872  0.00000 -0.33744

   Total alpha = 45.00000, Total beta = 45.00000, Total charge =  0.00000


*** PSI4 exiting successfully. Buy a developer a beer!
