
    -----------------------------------------------------------------------
          Psi4: An Open-Source Ab Initio Electronic Structure Package
                               Psi4 1.1 release

                         Git: Rev {HEAD} add49b9 


    R. M. Parrish, L. A. Burns, D. G. A. Smith, A. C. Simmonett,
    A. E. DePrince III, E. G. Hohenstein, U. Bozkaya, A. Yu. Sokolov,
    R. Di Remigio, R. M. Richard, J. F. Gonthier, A. M. James,
    H. R. McAlexander, A. Kumar, M. Saitow, X. Wang, B. P. Pritchard,
    P. Verma, H. F. Schaefer III, K. Patkowski, R. A. King, E. F. Valeev,
    F. A. Evangelista, J. M. Turney, T. D. Crawford, and C. D. Sherrill,
    J. Chem. Theory Comput. in press (2017).
    (doi: 10.1021/acs.jctc.7b00174)

    -----------------------------------------------------------------------


    Psi4 started on: Friday, 15 September 2017 01:00PM

    Process ID:  14751
    PSIDATADIR: /home/raimis/opt/miniconda3/envs/htmd/share/psi4
    Memory:     500.0 MiB
    Threads:    1
    
  ==> Input File <==

--------------------------------------------------------------------------
set_num_threads( 8 )
memory 2.000000 gb

set { reference rks }
set { basis cc-pVDZ }

molecule MOL {
    0 1
    noreorient
    nocom
    symmetry c1
    O    1.050400   0.042900  -0.048100
    C    2.474100   0.047400  -0.029000
    C    3.002600  -1.068900  -0.932000
    N    4.462700  -1.072400  -1.006800
    H    0.758191   0.217446   0.863031
    H    2.809900  -0.097900   1.003200
    H    2.817400   1.026800  -0.378600
    H    2.581000  -0.963300  -1.938400
    H    2.653800  -2.036400  -0.553400
    H    4.779000  -0.221000  -1.470000
    H    4.758600  -1.842500  -1.606500
}

set optking { frozen_dihedral = (" 3 2 1 5 ") }

energy, wfn = energy('B3LYP-D3', return_wfn=True)

import os
os.chdir(os.environ['HTMD_PSI4_WORKDIR'])

oeprop(wfn, 'DIPOLE', 'QUADRUPOLE', 'MULLIKEN_CHARGES')

with open('psi4out.xyz', 'w') as f:
    f.write('11 ' )
    f.write('%.12f\n' % energy)
    f.write(MOL.save_string_xyz())
--------------------------------------------------------------------------
  Threads set to 8 by Python driver.

  Memory set to   1.863 GiB by Python driver.

*** tstart() called on computer03
*** at Fri Sep 15 13:00:49 2017

   => Loading Basis Set <=

    Name: CC-PVDZ
    Role: ORBITAL
    Keyword: BASIS
    atoms 1    entry O          line   190 file /home/raimis/opt/miniconda3/envs/htmd/share/psi4/basis/cc-pvdz.gbs 
    atoms 2-3  entry C          line   130 file /home/raimis/opt/miniconda3/envs/htmd/share/psi4/basis/cc-pvdz.gbs 
    atoms 4    entry N          line   160 file /home/raimis/opt/miniconda3/envs/htmd/share/psi4/basis/cc-pvdz.gbs 
    atoms 5-11 entry H          line    20 file /home/raimis/opt/miniconda3/envs/htmd/share/psi4/basis/cc-pvdz.gbs 


         ---------------------------------------------------------
                                   SCF
            by Justin Turney, Rob Parrish, and Andy Simmonett
                              RKS Reference
                        8 Threads,   1907 MiB Core
         ---------------------------------------------------------

  ==> Geometry <==

    Molecular point group: c1
    Full point group: C1

    Geometry (in Angstrom), charge = 0, multiplicity = 1:

       Center              X                  Y                   Z               Mass       
    ------------   -----------------  -----------------  -----------------  -----------------
           O          1.050400000000     0.042900000000    -0.048100000000    15.994914619560
           C          2.474100000000     0.047400000000    -0.029000000000    12.000000000000
           C          3.002600000000    -1.068900000000    -0.932000000000    12.000000000000
           N          4.462700000000    -1.072400000000    -1.006800000000    14.003074004780
           H          0.758191000000     0.217446000000     0.863031000000     1.007825032070
           H          2.809900000000    -0.097900000000     1.003200000000     1.007825032070
           H          2.817400000000     1.026800000000    -0.378600000000     1.007825032070
           H          2.581000000000    -0.963300000000    -1.938400000000     1.007825032070
           H          2.653800000000    -2.036400000000    -0.553400000000     1.007825032070
           H          4.779000000000    -0.221000000000    -1.470000000000     1.007825032070
           H          4.758600000000    -1.842500000000    -1.606500000000     1.007825032070

  Running in c1 symmetry.

  Rotational constants: A =      0.72523  B =      0.02762  C =      0.02697 [cm^-1]
  Rotational constants: A =  21741.90113  B =    827.94554  C =    808.45436 [MHz]
  Nuclear repulsion =  130.463516135269941

  Charge       = 0
  Multiplicity = 1
  Electrons    = 34
  Nalpha       = 17
  Nbeta        = 17

  ==> Algorithm <==

  SCF Algorithm Type is DF.
  DIIS enabled.
  MOM disabled.
  Fractional occupation disabled.
  Guess Type is SAD.
  Energy threshold   = 1.00e-06
  Density threshold  = 1.00e-06
  Integral threshold = 0.00e+00

  ==> Primary Basis <==

  Basis Set: CC-PVDZ
    Blend: CC-PVDZ
    Number of shells: 45
    Number of basis function: 91
    Number of Cartesian functions: 95
    Spherical Harmonics?: true
    Max angular momentum: 2

  ==> DFT Potential <==

   => B3LYP Composite Functional <= 

    B3LYP Hybrid-GGA Exchange-Correlation Functional (VWN1-RPA)

    P.J. Stephens et. al., J. Phys. Chem., 98, 11623-11627, 1994

    Points   =           5000
    Deriv    =              1
    GGA      =           TRUE
    Meta     =          FALSE

    X_LRC        =          FALSE
    X_Hybrid     =           TRUE
    X_Alpha      =   2.000000E-01
    X_Omega      =   0.000000E+00
    C_LRC        =          FALSE
    C_Hybrid     =          FALSE
    C_Alpha      =   0.000000E+00
    C_Omega      =   0.000000E+00

   => Exchange Functionals <=

    0.8000    B3_X
    0.2000      HF 

   => Correlation Functionals <=

    0.1900 VWN3RPA_C
    0.8100   LYP_C

   => Molecular Quadrature <=

    Radial Scheme    =       TREUTLER
    Pruning Scheme   =           FLAT
    Nuclear Scheme   =       TREUTLER

    BS radius alpha  =              1
    Pruning alpha    =              1
    Radial Points    =             75
    Spherical Points =            302
    Total Points     =         245079
    Total Blocks     =            223
    Max Points       =           4789
    Max Functions    =             91

   => -D3ZERO: Empirical Dispersion <=

    Grimme's -D3 (zero-damping) Dispersion Correction
    Grimme S.; Antony J.; Ehrlich S.; Krieg H. (2010), J. Chem. Phys., 132: 154104

        S6 =   1.000000E+00
        S8 =   1.703000E+00
       SR6 =   1.261000E+00
    ALPHA6 =   1.400000E+01

   => Loading Basis Set <=

    Name: (CC-PVDZ AUX)
    Role: JKFIT
    Keyword: DF_BASIS_SCF
    atoms 1    entry O          line   220 file /home/raimis/opt/miniconda3/envs/htmd/share/psi4/basis/cc-pvdz-jkfit.gbs 
    atoms 2-3  entry C          line   120 file /home/raimis/opt/miniconda3/envs/htmd/share/psi4/basis/cc-pvdz-jkfit.gbs 
    atoms 4    entry N          line   170 file /home/raimis/opt/miniconda3/envs/htmd/share/psi4/basis/cc-pvdz-jkfit.gbs 
    atoms 5-11 entry H          line    50 file /home/raimis/opt/miniconda3/envs/htmd/share/psi4/basis/cc-pvdz-jkfit.gbs 

  ==> Pre-Iterations <==

   -------------------------------------------------------
    Irrep   Nso     Nmo     Nalpha   Nbeta   Ndocc  Nsocc
   -------------------------------------------------------
     A         91      91       0       0       0       0
   -------------------------------------------------------
    Total      91      91      17      17      17       0
   -------------------------------------------------------

  ==> Integral Setup <==

  ==> DFJK: Density-Fitted J/K Matrices <==

    J tasked:                  Yes
    K tasked:                  Yes
    wK tasked:                  No
    OpenMP threads:              8
    Integrals threads:           8
    Memory (MB):              1430
    Algorithm:                Core
    Integral Cache:           NONE
    Schwarz Cutoff:          1E-12
    Fitting Condition:       1E-12

   => Auxiliary Basis Set <=

  Basis Set: (CC-PVDZ AUX)
    Blend: CC-PVDZ-JKFIT
    Number of shells: 159
    Number of basis function: 441
    Number of Cartesian functions: 499
    Spherical Harmonics?: true
    Max angular momentum: 3

  Minimum eigenvalue in the overlap matrix is 4.5953459192E-03.
  Using Symmetric Orthogonalization.

  SCF Guess: Superposition of Atomic Densities via on-the-fly atomic UHF.

  ==> Iterations <==

                           Total Energy        Delta E     RMS |[F,P]|

   @DF-RKS iter   0:  -210.77003274161703   -2.10770e+02   7.06380e-02 
   @DF-RKS iter   1:  -210.20618965210832    5.63843e-01   1.43471e-02 
   @DF-RKS iter   2:  -210.05454620087190    1.51643e-01   1.84425e-02 DIIS
   @DF-RKS iter   3:  -210.38962606914220   -3.35080e-01   8.52518e-04 DIIS
   @DF-RKS iter   4:  -210.39028832612669   -6.62257e-04   6.60880e-04 DIIS
   @DF-RKS iter   5:  -210.39076794491783   -4.79619e-04   7.46833e-05 DIIS
   @DF-RKS iter   6:  -210.39077411733382   -6.17242e-06   4.59175e-05 DIIS
   @DF-RKS iter   7:  -210.39077614562643   -2.02829e-06   3.80664e-06 DIIS
   @DF-RKS iter   8:  -210.39077615840040   -1.27740e-08   1.26249e-06 DIIS
   @DF-RKS iter   9:  -210.39077615984243   -1.44203e-09   2.84454e-07 DIIS

  ==> Post-Iterations <==

    Orbital Energies (a.u.)
    -----------------------

    Doubly Occupied:                                                      

       1A    -19.127550     2A    -14.304028     3A    -10.224040  
       4A    -10.200235     5A     -1.010060     6A     -0.875981  
       7A     -0.711386     8A     -0.598092     9A     -0.509164  
      10A     -0.484960    11A     -0.446278    12A     -0.422510  
      13A     -0.387999    14A     -0.361188    15A     -0.323257  
      16A     -0.262622    17A     -0.230251  

    Virtual:                                                              

      18A      0.048865    19A      0.057924    20A      0.099720  
      21A      0.121844    22A      0.126625    23A      0.151830  
      24A      0.168779    25A      0.207430    26A      0.245744  
      27A      0.259815    28A      0.437251    29A      0.449460  
      30A      0.484468    31A      0.503466    32A      0.573021  
      33A      0.583011    34A      0.603420    35A      0.613455  
      36A      0.638438    37A      0.643280    38A      0.658992  
      39A      0.678611    40A      0.701543    41A      0.814276  
      42A      0.833730    43A      0.846751    44A      0.918697  
      45A      0.964223    46A      1.000309    47A      1.018189  
      48A      1.060792    49A      1.164399    50A      1.211404  
      51A      1.212193    52A      1.260241    53A      1.305884  
      54A      1.390517    55A      1.428021    56A      1.483131  
      57A      1.514607    58A      1.603635    59A      1.621516  
      60A      1.630494    61A      1.655710    62A      1.677764  
      63A      1.709243    64A      1.734834    65A      1.749122  
      66A      1.775950    67A      1.800071    68A      1.858513  
      69A      1.869034    70A      1.964773    71A      1.993083  
      72A      2.030208    73A      2.041607    74A      2.125824  
      75A      2.164076    76A      2.246375    77A      2.272671  
      78A      2.367741    79A      2.400432    80A      2.443463  
      81A      2.474873    82A      2.553071    83A      2.604204  
      84A      2.687652    85A      2.826519    86A      2.939005  
      87A      3.021465    88A      3.046920    89A      3.118250  
      90A      3.213195    91A      3.684983  

    Final Occupation by Irrep:
              A 
    DOCC [    17 ]

  Energy converged.

  @DF-RKS Final Energy:  -210.39077615984243

   => Energetics <=

    Nuclear Repulsion Energy =            130.4635161352699413
    One-Electron Energy =                -543.8672269301545157
    Two-Electron Energy =                 226.5046091464670326
    DFT Exchange-Correlation Energy =     -23.4867465114249008
    Empirical Dispersion Energy =          -0.0049280000000000
    PCM Polarization Energy =               0.0000000000000000
    EFP Energy =                            0.0000000000000000
    Total Energy =                       -210.3907761598424315



Properties will be evaluated at   0.000000,   0.000000,   0.000000 Bohr

Properties computed using the SCF density matrix

  Nuclear Dipole Moment: (a.u.)
     X:   176.9921      Y:   -32.5212      Z:   -32.6527

  Electronic Dipole Moment: (a.u.)
     X:  -176.8214      Y:    32.6126      Z:    32.7004

  Dipole Moment: (a.u.)
     X:     0.1707      Y:     0.0915      Z:     0.0477     Total:     0.1995

  Dipole Moment: (Debye)
     X:     0.4339      Y:     0.2325      Z:     0.1212     Total:     0.5070


*** tstop() called on computer03 at Fri Sep 15 13:01:08 2017
Module time:
	user time   =      35.82 seconds =       0.60 minutes
	system time =       0.76 seconds =       0.01 minutes
	total time  =         19 seconds =       0.32 minutes
Total time:
	user time   =      35.82 seconds =       0.60 minutes
	system time =       0.76 seconds =       0.01 minutes
	total time  =         19 seconds =       0.32 minutes


Properties will be evaluated at   0.000000,   0.000000,   0.000000 Bohr

Properties computed using the  density matrix

  Nuclear Dipole Moment: (a.u.)
     X:   176.9921      Y:   -32.5212      Z:   -32.6527

  Electronic Dipole Moment: (a.u.)
     X:  -176.8214      Y:    32.6126      Z:    32.7004

  Dipole Moment: (a.u.)
     X:     0.1707      Y:     0.0915      Z:     0.0477     Total:     0.1995

  Dipole Moment: (Debye)
     X:     0.4339      Y:     0.2325      Z:     0.1212     Total:     0.5070

  Quadrupole Moment: (Debye Ang)
    XX:   -25.3906     YY:   -24.4594     ZZ:   -21.5771
    XY:     0.6620     XZ:    -5.8079     YZ:     1.8113

  Traceless Quadrupole Moment: (Debye Ang)
    XX:    -1.5816     YY:    -0.6504     ZZ:     2.2320
    XY:     0.6620     XZ:    -5.8079     YZ:     1.8113

  Mulliken Charges: (a.u.)
   Center  Symbol    Alpha    Beta     Spin     Total
       1     O     4.13941  4.13941  0.00000 -0.27881
       2     C     2.93072  2.93072  0.00000  0.13857
       3     C     2.98404  2.98404  0.00000  0.03193
       4     N     3.59432  3.59432  0.00000 -0.18864
       5     H     0.42896  0.42896  0.00000  0.14208
       6     H     0.49804  0.49804  0.00000  0.00392
       7     H     0.50136  0.50136  0.00000 -0.00272
       8     H     0.50048  0.50048  0.00000 -0.00096
       9     H     0.49333  0.49333  0.00000  0.01333
      10     H     0.46559  0.46559  0.00000  0.06881
      11     H     0.46375  0.46375  0.00000  0.07250

   Total alpha = 17.00000, Total beta = 17.00000, Total charge =  0.00000


*** Psi4 exiting successfully. Buy a developer a beer!
