    -----------------------------------------------------------------------
          Psi4: An Open-Source Ab Initio Electronic Structure Package
                              Psi4 (no tag) Driver

                          Git: Rev {detached?}  

    J. M. Turney, A. C. Simmonett, R. M. Parrish, E. G. Hohenstein,
    F. A. Evangelista, J. T. Fermann, B. J. Mintz, L. A. Burns, J. J. Wilke,
    M. L. Abrams, N. J. Russ, M. L. Leininger, C. L. Janssen, E. T. Seidl,
    W. D. Allen, H. F. Schaefer, R. A. King, E. F. Valeev, C. D. Sherrill,
    and T. D. Crawford, WIREs Comput. Mol. Sci. 2, 556-565 (2012)
    (doi: 10.1002/wcms.93)

                         Additional Contributions by
    A. E. DePrince, M. Saitow, U. Bozkaya, A. Yu. Sokolov
    -----------------------------------------------------------------------


    Psi4 started on: Tue Jul  5 16:39:52 2016

    Process ID:  23290
    PSI4DATADIR: /export131/home/mjharvey/miniconda3/share
    Memory level set to 256.000 MB

  ==> Input File <==

--------------------------------------------------------------------------
set {
	reference rhf
	basis 6-31G*
}


set_num_threads( 1 )
memory 2 gb

molecule MOL {
0 1

H	 -2.644160	 0.037386	 0.290061
C	 -1.656947	 -0.409750	 0.300221
C	 -0.603454	 0.661669	 0.000000
H	 -1.630871	 -1.198272	 -0.442069
H	 -1.492352	 -0.853437	 1.274639
C	 0.763625	 0.112519	 0.000000
H	 -0.780661	 1.113028	 -0.969248
H	 -0.643020	 1.455678	 0.736582
N	 1.813038	 -0.320305	 0.000000

	symmetry c1
}
ee = energy('scf')
oeprop('DIPOLE', 'QUADRUPOLE', 'MULLIKEN_CHARGES')
f=open( 'psi4out.xyz', 'w' )
f.write( "9  " )
f.write( str(ee) + "\n" )
f.write( MOL.save_string_xyz() )
f.close()
--------------------------------------------------------------------------

  Memory set to   2.000 GiB by Python script.

*** tstart() called on cx1-3-16-4.cx1.hpc.ic.ac.uk
*** at Tue Jul  5 16:39:53 2016


         ---------------------------------------------------------
                                   SCF
            by Justin Turney, Rob Parrish, and Andy Simmonett
                              RHF Reference
                        1 Threads,   2000 MiB Core
         ---------------------------------------------------------

  ==> Geometry <==

    Molecular point group: c1
    Full point group: C1

    Geometry (in Angstrom), charge = 0, multiplicity = 1:

       Center              X                  Y                   Z               Mass       
    ------------   -----------------  -----------------  -----------------  -----------------
           H         -2.647420389007     0.029270000777     0.208313157928     1.007825032070
           C         -1.660207389007    -0.417865999223     0.218473157928    12.000000000000
           C         -0.606714389007     0.653553000777    -0.081747842072    12.000000000000
           H         -1.634131389007    -1.206387999223    -0.523816842072     1.007825032070
           H         -1.495612389007    -0.861552999223     1.192891157928     1.007825032070
           C          0.760364610993     0.104403000777    -0.081747842072    12.000000000000
           H         -0.783921389007     1.104912000777    -1.050995842072     1.007825032070
           H         -0.646280389007     1.447562000777     0.654834157928     1.007825032070
           N          1.809777610993    -0.328420999223    -0.081747842072    14.003074004780

  Running in c1 symmetry.

  Rotational constants: A =      0.94167  B =      0.15743  C =      0.14190 [cm^-1]
  Rotational constants: A =  28230.45162  B =   4719.69784  C =   4253.98946 [MHz]
  Nuclear repulsion =  103.404930491432850

  Charge       = 0
  Multiplicity = 1
  Electrons    = 30
  Nalpha       = 15
  Nbeta        = 15

  ==> Algorithm <==

  SCF Algorithm Type is DF.
  DIIS enabled.
  MOM disabled.
  Fractional occupation disabled.
  Guess Type is CORE.
  Energy threshold   = 1.00e-06
  Density threshold  = 1.00e-06
  Integral threshold = 0.00e+00

  ==> Primary Basis <==

  Basis Set: 6-31G*
    Number of shells: 34
    Number of basis function: 70
    Number of Cartesian functions: 70
    Spherical Harmonics?: false
    Max angular momentum: 2

  ==> Pre-Iterations <==

   -------------------------------------------------------
    Irrep   Nso     Nmo     Nalpha   Nbeta   Ndocc  Nsocc
   -------------------------------------------------------
     A         70      70       0       0       0       0
   -------------------------------------------------------
    Total      70      70      15      15      15       0
   -------------------------------------------------------

 OEINTS: Overlap, kinetic, potential, dipole, and quadrupole integrals
         stored in file 35.

  ==> Integral Setup <==

  ==> DFJK: Density-Fitted J/K Matrices <==

    J tasked:                  Yes
    K tasked:                  Yes
    wK tasked:                  No
    OpenMP threads:              1
    Integrals threads:           1
    Memory (MB):              1430
    Algorithm:                Core
    Integral Cache:           NONE
    Schwarz Cutoff:          1E-12
    Fitting Condition:       1E-12

   => Auxiliary Basis Set <=

  Basis Set: 
    Number of shells: 141
    Number of basis function: 449
    Number of Cartesian functions: 449
    Spherical Harmonics?: false
    Max angular momentum: 3

  Minimum eigenvalue in the overlap matrix is 1.3865960911E-03.
  Using Symmetric Orthogonalization.
  SCF Guess: Core (One-Electron) Hamiltonian.

  ==> Iterations <==

                           Total Energy        Delta E     RMS |[F,P]|

   @DF-RHF iter   1:  -133.96616178015816   -1.33966e+02   8.77680e-02 
   @DF-RHF iter   2:  -110.01608672927085    2.39501e+01   8.02030e-02 DIIS
   @DF-RHF iter   3:  -154.25446090966139   -4.42384e+01   4.91981e-02 DIIS
   @DF-RHF iter   4:  -159.46853818784351   -5.21408e+00   4.62893e-02 DIIS
   @DF-RHF iter   5:  -170.63845934676183   -1.11699e+01   1.15799e-02 DIIS
   @DF-RHF iter   6:  -170.89838477900841   -2.59925e-01   5.66761e-03 DIIS
   @DF-RHF iter   7:  -170.96013084953458   -6.17461e-02   7.29810e-04 DIIS
   @DF-RHF iter   8:  -170.96208204028258   -1.95119e-03   3.25772e-04 DIIS
   @DF-RHF iter   9:  -170.96238695862897   -3.04918e-04   6.86643e-05 DIIS
   @DF-RHF iter  10:  -170.96241917316590   -3.22145e-05   2.85622e-05 DIIS
   @DF-RHF iter  11:  -170.96242893102342   -9.75786e-06   1.36609e-05 DIIS
   @DF-RHF iter  12:  -170.96243190622536   -2.97520e-06   4.13520e-06 DIIS
   @DF-RHF iter  13:  -170.96243214197111   -2.35746e-07   1.17994e-06 DIIS
   @DF-RHF iter  14:  -170.96243215533960   -1.33685e-08   3.48398e-07 DIIS

  ==> Post-Iterations <==

    Orbital Energies (a.u.)
    -----------------------

    Doubly Occupied:                                                      

       1A    -15.567050     2A    -11.283666     3A    -11.269387  
       4A    -11.245863     5A     -1.224548     6A     -1.082257  
       7A     -0.911761     8A     -0.699354     9A     -0.659434  
      10A     -0.587723    11A     -0.560806    12A     -0.543902  
      13A     -0.536576    14A     -0.458571    15A     -0.458482  

    Virtual:                                                              

      16A      0.195416    17A      0.215154    18A      0.243199  
      19A      0.279581    20A      0.286958    21A      0.308392  
      22A      0.350141    23A      0.362905    24A      0.412379  
      25A      0.462020    26A      0.716576    27A      0.717670  
      28A      0.741106    29A      0.788410    30A      0.805113  
      31A      0.864270    32A      0.892701    33A      0.947509  
      34A      0.978530    35A      1.064276    36A      1.100456  
      37A      1.118124    38A      1.123856    39A      1.148230  
      40A      1.176576    41A      1.177573    42A      1.225111  
      43A      1.345613    44A      1.516904    45A      1.657296  
      46A      1.681467    47A      1.707709    48A      1.789520  
      49A      1.810763    50A      1.919945    51A      1.991411  
      52A      2.132564    53A      2.204206    54A      2.274468  
      55A      2.285861    56A      2.313984    57A      2.339475  
      58A      2.543201    59A      2.580209    60A      2.643716  
      61A      2.663415    62A      2.850108    63A      3.128453  
      64A      3.140357    65A      3.205719    66A      3.643864  
      67A      4.466633    68A      4.528474    69A      4.703982  
      70A      5.070527  

    Final Occupation by Irrep:
              A 
    DOCC [    15 ]

  Energy converged.

  @DF-RHF Final Energy:  -170.96243215533960

   => Energetics <=

    Nuclear Repulsion Energy =            103.4049304914328502
    One-Electron Energy =                -434.5559576197552474
    Two-Electron Energy =                 160.1885949729826564
    DFT Exchange-Correlation Energy =       0.0000000000000000
    Empirical Dispersion Energy =           0.0000000000000000
    PCM Polarization Energy =               0.0000000000000000
    EFP Energy =                            0.0000000000000000
    Total Energy =                       -170.9624321553397692

    Alert: EFP and PCM quantities not currently incorporated into SCF psivars.

Properties will be evaluated at   0.000000,   0.000000,   0.000000 Bohr
  ==> Properties <==


Properties computed using the SCF density matrix

  Nuclear Dipole Moment: (a.u.)
     X:    -6.7619      Y:     0.4826      Z:     0.4514

  Electronic Dipole Moment: (a.u.)
     X:     5.2194      Y:     0.0561      Z:    -0.4336

  Dipole Moment: (a.u.)
     X:    -1.5425      Y:     0.5387      Z:     0.0178     Total:     1.6340

  Dipole Moment: (Debye)
     X:    -3.9207      Y:     1.3693      Z:     0.0452     Total:     4.1532


  Saving occupied orbitals to File 180.

*** tstop() called on cx1-3-16-4.cx1.hpc.ic.ac.uk at Tue Jul  5 16:39:56 2016
Module time:
	user time   =       2.57 seconds =       0.04 minutes
	system time =       0.03 seconds =       0.00 minutes
	total time  =          3 seconds =       0.05 minutes
Total time:
	user time   =       2.57 seconds =       0.04 minutes
	system time =       0.03 seconds =       0.00 minutes
	total time  =          3 seconds =       0.05 minutes


Properties will be evaluated at   0.000000,   0.000000,   0.000000 Bohr

Properties computed using the  density matrix

  Nuclear Dipole Moment: (a.u.)
     X:    -6.7619      Y:     0.4826      Z:     0.4514

  Electronic Dipole Moment: (a.u.)
     X:     5.2194      Y:     0.0561      Z:    -0.4336

  Dipole Moment: (a.u.)
     X:    -1.5425      Y:     0.5387      Z:     0.0178     Total:     1.6340

  Dipole Moment: (Debye)
     X:    -3.9207      Y:     1.3693      Z:     0.0452     Total:     4.1532

  Quadrupole Moment: (Debye Ang)
    XX:   -30.4165     YY:   -23.9509     ZZ:   -23.9204
    XY:     1.2026     XZ:     0.2897     YZ:    -0.0911

  Traceless Quadrupole Moment: (Debye Ang)
    XX:    -4.3206     YY:     2.1451     ZZ:     2.1756
    XY:     1.2026     XZ:     0.2897     YZ:    -0.0911

  Mulliken Charges: (a.u.)
   Center  Symbol    Alpha    Beta     Spin     Total
       1     H     0.40907  0.40907  0.00000  0.18187
       2     C     3.24294  3.24294  0.00000 -0.48587
       3     C     3.18197  3.18197  0.00000 -0.36395
       4     H     0.40537  0.40537  0.00000  0.18925
       5     H     0.40539  0.40539  0.00000  0.18922
       6     C     2.84850  2.84850  0.00000  0.30300
       7     H     0.38853  0.38853  0.00000  0.22294
       8     H     0.38858  0.38858  0.00000  0.22284
       9     N     3.72965  3.72965  0.00000 -0.45930

   Total alpha = 15.00000, Total beta = 15.00000, Total charge =  0.00000


*** PSI4 exiting successfully. Buy a developer a beer!
