    -----------------------------------------------------------------------
          Psi4: An Open-Source Ab Initio Electronic Structure Package
                              Psi4 (no tag) Driver

                          Git: Rev {detached?}  

    J. M. Turney, A. C. Simmonett, R. M. Parrish, E. G. Hohenstein,
    F. A. Evangelista, J. T. Fermann, B. J. Mintz, L. A. Burns, J. J. Wilke,
    M. L. Abrams, N. J. Russ, M. L. Leininger, C. L. Janssen, E. T. Seidl,
    W. D. Allen, H. F. Schaefer, R. A. King, E. F. Valeev, C. D. Sherrill,
    and T. D. Crawford, WIREs Comput. Mol. Sci. 2, 556-565 (2012)
    (doi: 10.1002/wcms.93)

                         Additional Contributions by
    A. E. DePrince, M. Saitow, U. Bozkaya, A. Yu. Sokolov
    -----------------------------------------------------------------------


    Psi4 started on: Tue Jul  5 16:51:58 2016

    Process ID:  22930
    PSI4DATADIR: /export131/home/mjharvey/miniconda3/share
    Memory level set to 256.000 MB

  ==> Input File <==

--------------------------------------------------------------------------
set {
	reference rhf
	basis 6-31G*
}


set_num_threads( 1 )
memory 2 gb

molecule MOL {
0 1

O	 0.354191	 2.655869	 -0.735387
C	 0.140502	 1.681556	 -1.381988
C	 -1.132561	 0.871331	 -1.354793
O	 1.018978	 1.167898	 -2.233698
C	 -1.412532	 0.227344	 -0.000452
H	 -1.943418	 1.530676	 -1.652331
H	 -1.057793	 0.122680	 -2.138812
C	 -2.706999	 -0.587347	 -0.000541
H	 -1.464140	 1.000268	 0.760093
H	 -0.576961	 -0.409417	 0.273154
C	 -3.956778	 0.291888	 0.000910
H	 -2.726114	 -1.239230	 -0.871609
H	 -2.725217	 -1.240844	 0.869333
H	 -3.985213	 0.933254	 -0.875158
H	 -4.860123	 -0.309979	 0.000519
H	 -3.984618	 0.931166	 0.878514
C	 2.261658	 1.835683	 -2.355978
H	 2.115769	 2.850551	 -2.696929
H	 2.827858	 1.274678	 -3.083054
H	 2.780001	 1.850502	 -1.408029

	symmetry c1
}
set optking {
	frozen_dihedral = ("
		9 5 8 12,
		9 5 3 6,
		1 2 4 17
	")
}

ee = energy('scf')
oeprop('DIPOLE', 'QUADRUPOLE', 'MULLIKEN_CHARGES')
f=open( 'psi4out.xyz', 'w' )
f.write( "20  " )
f.write( str(ee) + "\n" )
f.write( MOL.save_string_xyz() )
f.close()
--------------------------------------------------------------------------

  Memory set to   2.000 GiB by Python script.

*** tstart() called on cx1-3-16-2.cx1.hpc.ic.ac.uk
*** at Tue Jul  5 16:51:59 2016


         ---------------------------------------------------------
                                   SCF
            by Justin Turney, Rob Parrish, and Andy Simmonett
                              RHF Reference
                        1 Threads,   2000 MiB Core
         ---------------------------------------------------------

  ==> Geometry <==

    Molecular point group: c1
    Full point group: C1

    Geometry (in Angstrom), charge = 0, multiplicity = 1:

       Center              X                  Y                   Z               Mass       
    ------------   -----------------  -----------------  -----------------  -----------------
           O          1.004056735611     1.619051262919     0.286517525245    15.994914619560
           C          0.790367735611     0.644738262919    -0.360083474755    12.000000000000
           C         -0.482695264389    -0.165486737081    -0.332888474755    12.000000000000
           O          1.668843735611     0.131080262919    -1.211793474755    15.994914619560
           C         -0.762666264389    -0.809473737081     1.021452525245    12.000000000000
           H         -1.293552264389     0.493858262919    -0.630426474755     1.007825032070
           H         -0.407927264389    -0.914137737081    -1.116907474755     1.007825032070
           C         -2.057133264389    -1.624164737081     1.021363525245    12.000000000000
           H         -0.814274264389    -0.036549737081     1.781997525245     1.007825032070
           H          0.072904735611    -1.446234737081     1.295058525245     1.007825032070
           C         -3.306912264389    -0.744929737081     1.022814525245    12.000000000000
           H         -2.076248264389    -2.276047737081     0.150295525245     1.007825032070
           H         -2.075351264389    -2.277661737081     1.891237525245     1.007825032070
           H         -3.335347264389    -0.103563737081     0.146746525245     1.007825032070
           H         -4.210257264389    -1.346796737081     1.022423525245     1.007825032070
           H         -3.334752264389    -0.105651737081     1.900418525245     1.007825032070
           C          2.911523735611     0.798865262919    -1.334073474755    12.000000000000
           H          2.765634735611     1.813733262919    -1.675024474755     1.007825032070
           H          3.477723735611     0.237860262919    -2.061149474755     1.007825032070
           H          3.429866735611     0.813684262919    -0.386124474755     1.007825032070

  Running in c1 symmetry.

  Rotational constants: A =      0.19757  B =      0.02735  C =      0.02604 [cm^-1]
  Rotational constants: A =   5922.85040  B =    819.89530  C =    780.52170 [MHz]
  Nuclear repulsion =  385.400437997652773

  Charge       = 0
  Multiplicity = 1
  Electrons    = 64
  Nalpha       = 32
  Nbeta        = 32

  ==> Algorithm <==

  SCF Algorithm Type is DF.
  DIIS enabled.
  MOM disabled.
  Fractional occupation disabled.
  Guess Type is CORE.
  Energy threshold   = 1.00e-06
  Density threshold  = 1.00e-06
  Integral threshold = 0.00e+00

  ==> Primary Basis <==

  Basis Set: 6-31G*
    Number of shells: 72
    Number of basis function: 144
    Number of Cartesian functions: 144
    Spherical Harmonics?: false
    Max angular momentum: 2

  ==> Pre-Iterations <==

   -------------------------------------------------------
    Irrep   Nso     Nmo     Nalpha   Nbeta   Ndocc  Nsocc
   -------------------------------------------------------
     A        144     144       0       0       0       0
   -------------------------------------------------------
    Total     144     144      32      32      32       0
   -------------------------------------------------------

 OEINTS: Overlap, kinetic, potential, dipole, and quadrupole integrals
         stored in file 35.

  ==> Integral Setup <==

  ==> DFJK: Density-Fitted J/K Matrices <==

    J tasked:                  Yes
    K tasked:                  Yes
    wK tasked:                  No
    OpenMP threads:              1
    Integrals threads:           1
    Memory (MB):              1430
    Algorithm:                Core
    Integral Cache:           NONE
    Schwarz Cutoff:          1E-12
    Fitting Condition:       1E-12

   => Auxiliary Basis Set <=

  Basis Set: 
    Number of shells: 300
    Number of basis function: 948
    Number of Cartesian functions: 948
    Spherical Harmonics?: false
    Max angular momentum: 3

  Minimum eigenvalue in the overlap matrix is 2.7381632548E-03.
  Using Symmetric Orthogonalization.
  SCF Guess: Core (One-Electron) Hamiltonian.

  ==> Iterations <==

                           Total Energy        Delta E     RMS |[F,P]|

   @DF-RHF iter   1:  -251.65784600642104   -2.51658e+02   7.43011e-02 
   @DF-RHF iter   2:   -30.80722300492954    2.20851e+02   8.54136e-02 DIIS
   @DF-RHF iter   3:  -190.61754797407724   -1.59810e+02   6.87073e-02 DIIS
   @DF-RHF iter   4:  -277.06805921573670   -8.64505e+01   6.08089e-02 DIIS
   @DF-RHF iter   5:  -360.49868221771948   -8.34306e+01   3.80826e-02 DIIS
   @DF-RHF iter   6:  -383.34562109645441   -2.28469e+01   7.62086e-03 DIIS
   @DF-RHF iter   7:  -383.81200548808766   -4.66384e-01   3.94931e-03 DIIS
   @DF-RHF iter   8:  -383.91520268436369   -1.03197e-01   1.29614e-03 DIIS
   @DF-RHF iter   9:  -383.93535682543455   -2.01541e-02   3.73365e-04 DIIS
   @DF-RHF iter  10:  -383.93703906466050   -1.68224e-03   1.42540e-04 DIIS
   @DF-RHF iter  11:  -383.93731571492532   -2.76650e-04   5.23975e-05 DIIS
   @DF-RHF iter  12:  -383.93735471516965   -3.90002e-05   1.33986e-05 DIIS
   @DF-RHF iter  13:  -383.93735823220919   -3.51704e-06   4.37493e-06 DIIS
   @DF-RHF iter  14:  -383.93735867671734   -4.44508e-07   1.10699e-06 DIIS
   @DF-RHF iter  15:  -383.93735871102416   -3.43068e-08   4.11417e-07 DIIS

  ==> Post-Iterations <==

    Orbital Energies (a.u.)
    -----------------------

    Doubly Occupied:                                                      

       1A    -20.605018     2A    -20.543114     3A    -11.371478  
       4A    -11.280293     5A    -11.233263     6A    -11.227190  
       7A    -11.223301     8A    -11.213311     9A     -1.469062  
      10A     -1.361655    11A     -1.093488    12A     -1.023063  
      13A     -0.967209    14A     -0.895716    15A     -0.802379  
      16A     -0.770660    17A     -0.699272    18A     -0.680035  
      19A     -0.672621    20A     -0.632818    21A     -0.613828  
      22A     -0.594466    23A     -0.565943    24A     -0.558662  
      25A     -0.527437    26A     -0.522371    27A     -0.516140  
      28A     -0.481643    29A     -0.475634    30A     -0.469284  
      31A     -0.453708    32A     -0.432130  

    Virtual:                                                              

      33A      0.193291    34A      0.235694    35A      0.260355  
      36A      0.264155    37A      0.274679    38A      0.294092  
      39A      0.302207    40A      0.314260    41A      0.322217  
      42A      0.331161    43A      0.332876    44A      0.338959  
      45A      0.347343    46A      0.378559    47A      0.393215  
      48A      0.438445    49A      0.446035    50A      0.464250  
      51A      0.529347    52A      0.575897    53A      0.705409  
      54A      0.711442    55A      0.734403    56A      0.741608  
      57A      0.754941    58A      0.759602    59A      0.774352  
      60A      0.806678    61A      0.835465    62A      0.884398  
      63A      0.912872    64A      0.928786    65A      0.961855  
      66A      0.966094    67A      0.990156    68A      1.012375  
      69A      1.078508    70A      1.097123    71A      1.104484  
      72A      1.126194    73A      1.136287    74A      1.140863  
      75A      1.148142    76A      1.153746    77A      1.189076  
      78A      1.192095    79A      1.212225    80A      1.219659  
      81A      1.222681    82A      1.237882    83A      1.247648  
      84A      1.271088    85A      1.303365    86A      1.333136  
      87A      1.354412    88A      1.386306    89A      1.405907  
      90A      1.466580    91A      1.536182    92A      1.637268  
      93A      1.659519    94A      1.686831    95A      1.757315  
      96A      1.796802    97A      1.837127    98A      1.846146  
      99A      1.924772   100A      1.932735   101A      1.986222  
     102A      2.039188   103A      2.063375   104A      2.098287  
     105A      2.142497   106A      2.173420   107A      2.184376  
     108A      2.214377   109A      2.240404   110A      2.264718  
     111A      2.319191   112A      2.349980   113A      2.374347  
     114A      2.401580   115A      2.430516   116A      2.440404  
     117A      2.461247   118A      2.515067   119A      2.615335  
     120A      2.650608   121A      2.655684   122A      2.678921  
     123A      2.698658   124A      2.732259   125A      2.762900  
     126A      2.782906   127A      2.859752   128A      2.904915  
     129A      2.965749   130A      3.008257   131A      3.062768  
     132A      3.141622   133A      3.155172   134A      3.351983  
     135A      3.415539   136A      3.558580   137A      4.443161  
     138A      4.540476   139A      4.627344   140A      4.662739  
     141A      4.701999   142A      4.803535   143A      4.904004  
     144A      5.029854  

    Final Occupation by Irrep:
              A 
    DOCC [    32 ]

  Energy converged.

  @DF-RHF Final Energy:  -383.93735871102416

   => Energetics <=

    Nuclear Repulsion Energy =            385.4004379976527730
    One-Electron Energy =               -1286.7233250424333164
    Two-Electron Energy =                 517.3855283337558149
    DFT Exchange-Correlation Energy =       0.0000000000000000
    Empirical Dispersion Energy =           0.0000000000000000
    PCM Polarization Energy =               0.0000000000000000
    EFP Energy =                            0.0000000000000000
    Total Energy =                       -383.9373587110247854

    Alert: EFP and PCM quantities not currently incorporated into SCF psivars.

Properties will be evaluated at   0.000000,   0.000000,   0.000000 Bohr
  ==> Properties <==


Properties computed using the SCF density matrix

  Nuclear Dipole Moment: (a.u.)
     X:    -7.3009      Y:    -4.8172      Z:     2.1691

  Electronic Dipole Moment: (a.u.)
     X:     7.3341      Y:     4.1969      Z:    -2.5740

  Dipole Moment: (a.u.)
     X:     0.0332      Y:    -0.6204      Z:    -0.4049     Total:     0.7416

  Dipole Moment: (Debye)
     X:     0.0845      Y:    -1.5768      Z:    -1.0292     Total:     1.8848


  Saving occupied orbitals to File 180.

*** tstop() called on cx1-3-16-2.cx1.hpc.ic.ac.uk at Tue Jul  5 16:52:14 2016
Module time:
	user time   =      15.08 seconds =       0.25 minutes
	system time =       0.17 seconds =       0.00 minutes
	total time  =         15 seconds =       0.25 minutes
Total time:
	user time   =      15.08 seconds =       0.25 minutes
	system time =       0.17 seconds =       0.00 minutes
	total time  =         15 seconds =       0.25 minutes


Properties will be evaluated at   0.000000,   0.000000,   0.000000 Bohr

Properties computed using the  density matrix

  Nuclear Dipole Moment: (a.u.)
     X:    -7.3009      Y:    -4.8172      Z:     2.1691

  Electronic Dipole Moment: (a.u.)
     X:     7.3341      Y:     4.1969      Z:    -2.5740

  Dipole Moment: (a.u.)
     X:     0.0332      Y:    -0.6204      Z:    -0.4049     Total:     0.7416

  Dipole Moment: (Debye)
     X:     0.0845      Y:    -1.5768      Z:    -1.0292     Total:     1.8848

  Quadrupole Moment: (Debye Ang)
    XX:   -43.9119     YY:   -54.2057     ZZ:   -49.3301
    XY:     0.3032     XZ:    -2.9860     YZ:    -3.6458

  Traceless Quadrupole Moment: (Debye Ang)
    XX:     5.2374     YY:    -5.0565     ZZ:    -0.1808
    XY:     0.3032     XZ:    -2.9860     YZ:    -3.6458

  Mulliken Charges: (a.u.)
   Center  Symbol    Alpha    Beta     Spin     Total
       1     O     4.28589  4.28589  0.00000 -0.57178
       2     C     2.60957  2.60957  0.00000  0.78085
       3     C     3.20611  3.20611  0.00000 -0.41222
       4     O     4.30317  4.30317  0.00000 -0.60634
       5     C     3.16233  3.16233  0.00000 -0.32467
       6     H     0.40040  0.40040  0.00000  0.19919
       7     H     0.40075  0.40075  0.00000  0.19849
       8     C     3.15592  3.15592  0.00000 -0.31185
       9     H     0.40598  0.40598  0.00000  0.18803
      10     H     0.41399  0.41399  0.00000  0.17203
      11     C     3.24185  3.24185  0.00000 -0.48370
      12     H     0.42123  0.42123  0.00000  0.15754
      13     H     0.41665  0.41665  0.00000  0.16670
      14     H     0.42100  0.42100  0.00000  0.15799
      15     H     0.41730  0.41730  0.00000  0.16539
      16     H     0.41825  0.41825  0.00000  0.16350
      17     C     3.09335  3.09335  0.00000 -0.18671
      18     H     0.40877  0.40877  0.00000  0.18247
      19     H     0.40858  0.40858  0.00000  0.18285
      20     H     0.40888  0.40888  0.00000  0.18223

   Total alpha = 32.00000, Total beta = 32.00000, Total charge = -0.00000


*** PSI4 exiting successfully. Buy a developer a beer!
