
    -----------------------------------------------------------------------
          Psi4: An Open-Source Ab Initio Electronic Structure Package
                               Psi4 1.1 release

                         Git: Rev {HEAD} add49b9 


    R. M. Parrish, L. A. Burns, D. G. A. Smith, A. C. Simmonett,
    A. E. DePrince III, E. G. Hohenstein, U. Bozkaya, A. Yu. Sokolov,
    R. Di Remigio, R. M. Richard, J. F. Gonthier, A. M. James,
    H. R. McAlexander, A. Kumar, M. Saitow, X. Wang, B. P. Pritchard,
    P. Verma, H. F. Schaefer III, K. Patkowski, R. A. King, E. F. Valeev,
    F. A. Evangelista, J. M. Turney, T. D. Crawford, and C. D. Sherrill,
    J. Chem. Theory Comput. in press (2017).
    (doi: 10.1021/acs.jctc.7b00174)

    -----------------------------------------------------------------------


    Psi4 started on: Tuesday, 12 December 2017 11:18AM

    Process ID:  27522
    PSIDATADIR: /shared/raimis/opt/miniconda/envs/htmd/share/psi4
    Memory:     500.0 MiB
    Threads:    1
    
  ==> Input File <==

--------------------------------------------------------------------------
set_num_threads(1)
set_memory(4203741184)

set { reference rks }
set { basis cc-pVDZ }

molecule MOL {
    0 1
    noreorient
    nocom
    symmetry c1
    O    1.050400   0.042900  -0.048100
    C    2.474100   0.047400  -0.029000
    C    3.002600  -1.068900  -0.932000
    N    4.462700  -1.072400  -1.006800
    H    0.774901   0.841802  -0.529627
    H    2.809900  -0.097900   1.003200
    H    2.817400   1.026800  -0.378600
    H    2.581000  -0.963300  -1.938400
    H    2.653800  -2.036400  -0.553400
    H    4.779000  -0.221000  -1.470000
    H    4.758600  -1.842500  -1.606500
}

set optking { frozen_dihedral = (" 3 2 1 5 ") }

energy, wfn = energy('B3LYP-D3', return_wfn=True)

import os
os.chdir(os.environ['HTMD_PSI4_WORKDIR'])

oeprop(wfn, 'DIPOLE', 'QUADRUPOLE', 'MULLIKEN_CHARGES')

with open('psi4out.xyz', 'w') as f:
    f.write('11 ' )
    f.write('%.12f\n' % energy)
    f.write(MOL.save_string_xyz())
--------------------------------------------------------------------------
  Threads set to 1 by Python driver.

  Memory set to   3.915 GiB by Python driver.

*** tstart() called on computer06
*** at Tue Dec 12 11:18:46 2017

   => Loading Basis Set <=

    Name: CC-PVDZ
    Role: ORBITAL
    Keyword: BASIS
    atoms 1    entry O          line   190 file /shared/raimis/opt/miniconda/envs/htmd/share/psi4/basis/cc-pvdz.gbs 
    atoms 2-3  entry C          line   130 file /shared/raimis/opt/miniconda/envs/htmd/share/psi4/basis/cc-pvdz.gbs 
    atoms 4    entry N          line   160 file /shared/raimis/opt/miniconda/envs/htmd/share/psi4/basis/cc-pvdz.gbs 
    atoms 5-11 entry H          line    20 file /shared/raimis/opt/miniconda/envs/htmd/share/psi4/basis/cc-pvdz.gbs 


         ---------------------------------------------------------
                                   SCF
            by Justin Turney, Rob Parrish, and Andy Simmonett
                              RKS Reference
                        1 Threads,   4009 MiB Core
         ---------------------------------------------------------

  ==> Geometry <==

    Molecular point group: c1
    Full point group: C1

    Geometry (in Angstrom), charge = 0, multiplicity = 1:

       Center              X                  Y                   Z               Mass       
    ------------   -----------------  -----------------  -----------------  -----------------
           O          1.050400000000     0.042900000000    -0.048100000000    15.994914619560
           C          2.474100000000     0.047400000000    -0.029000000000    12.000000000000
           C          3.002600000000    -1.068900000000    -0.932000000000    12.000000000000
           N          4.462700000000    -1.072400000000    -1.006800000000    14.003074004780
           H          0.774901000000     0.841802000000    -0.529627000000     1.007825032070
           H          2.809900000000    -0.097900000000     1.003200000000     1.007825032070
           H          2.817400000000     1.026800000000    -0.378600000000     1.007825032070
           H          2.581000000000    -0.963300000000    -1.938400000000     1.007825032070
           H          2.653800000000    -2.036400000000    -0.553400000000     1.007825032070
           H          4.779000000000    -0.221000000000    -1.470000000000     1.007825032070
           H          4.758600000000    -1.842500000000    -1.606500000000     1.007825032070

  Running in c1 symmetry.

  Rotational constants: A =      0.72466  B =      0.02759  C =      0.02698 [cm^-1]
  Rotational constants: A =  21724.76932  B =    827.05808  C =    808.74484 [MHz]
  Nuclear repulsion =  130.589316628225788

  Charge       = 0
  Multiplicity = 1
  Electrons    = 34
  Nalpha       = 17
  Nbeta        = 17

  ==> Algorithm <==

  SCF Algorithm Type is DF.
  DIIS enabled.
  MOM disabled.
  Fractional occupation disabled.
  Guess Type is SAD.
  Energy threshold   = 1.00e-06
  Density threshold  = 1.00e-06
  Integral threshold = 0.00e+00

  ==> Primary Basis <==

  Basis Set: CC-PVDZ
    Blend: CC-PVDZ
    Number of shells: 45
    Number of basis function: 91
    Number of Cartesian functions: 95
    Spherical Harmonics?: true
    Max angular momentum: 2

  ==> DFT Potential <==

   => B3LYP Composite Functional <= 

    B3LYP Hybrid-GGA Exchange-Correlation Functional (VWN1-RPA)

    P.J. Stephens et. al., J. Phys. Chem., 98, 11623-11627, 1994

    Points   =           5000
    Deriv    =              1
    GGA      =           TRUE
    Meta     =          FALSE

    X_LRC        =          FALSE
    X_Hybrid     =           TRUE
    X_Alpha      =   2.000000E-01
    X_Omega      =   0.000000E+00
    C_LRC        =          FALSE
    C_Hybrid     =          FALSE
    C_Alpha      =   0.000000E+00
    C_Omega      =   0.000000E+00

   => Exchange Functionals <=

    0.8000    B3_X
    0.2000      HF 

   => Correlation Functionals <=

    0.1900 VWN3RPA_C
    0.8100   LYP_C

   => Molecular Quadrature <=

    Radial Scheme    =       TREUTLER
    Pruning Scheme   =           FLAT
    Nuclear Scheme   =       TREUTLER

    BS radius alpha  =              1
    Pruning alpha    =              1
    Radial Points    =             75
    Spherical Points =            302
    Total Points     =         245082
    Total Blocks     =            222
    Max Points       =           4837
    Max Functions    =             91

   => -D3ZERO: Empirical Dispersion <=

    Grimme's -D3 (zero-damping) Dispersion Correction
    Grimme S.; Antony J.; Ehrlich S.; Krieg H. (2010), J. Chem. Phys., 132: 154104

        S6 =   1.000000E+00
        S8 =   1.703000E+00
       SR6 =   1.261000E+00
    ALPHA6 =   1.400000E+01

   => Loading Basis Set <=

    Name: (CC-PVDZ AUX)
    Role: JKFIT
    Keyword: DF_BASIS_SCF
    atoms 1    entry O          line   220 file /shared/raimis/opt/miniconda/envs/htmd/share/psi4/basis/cc-pvdz-jkfit.gbs 
    atoms 2-3  entry C          line   120 file /shared/raimis/opt/miniconda/envs/htmd/share/psi4/basis/cc-pvdz-jkfit.gbs 
    atoms 4    entry N          line   170 file /shared/raimis/opt/miniconda/envs/htmd/share/psi4/basis/cc-pvdz-jkfit.gbs 
    atoms 5-11 entry H          line    50 file /shared/raimis/opt/miniconda/envs/htmd/share/psi4/basis/cc-pvdz-jkfit.gbs 

  ==> Pre-Iterations <==

   -------------------------------------------------------
    Irrep   Nso     Nmo     Nalpha   Nbeta   Ndocc  Nsocc
   -------------------------------------------------------
     A         91      91       0       0       0       0
   -------------------------------------------------------
    Total      91      91      17      17      17       0
   -------------------------------------------------------

  ==> Integral Setup <==

  ==> DFJK: Density-Fitted J/K Matrices <==

    J tasked:                  Yes
    K tasked:                  Yes
    wK tasked:                  No
    OpenMP threads:              1
    Integrals threads:           1
    Memory (MB):              3006
    Algorithm:                Core
    Integral Cache:           NONE
    Schwarz Cutoff:          1E-12
    Fitting Condition:       1E-12

   => Auxiliary Basis Set <=

  Basis Set: (CC-PVDZ AUX)
    Blend: CC-PVDZ-JKFIT
    Number of shells: 159
    Number of basis function: 441
    Number of Cartesian functions: 499
    Spherical Harmonics?: true
    Max angular momentum: 3

  Minimum eigenvalue in the overlap matrix is 4.5828600901E-03.
  Using Symmetric Orthogonalization.

  SCF Guess: Superposition of Atomic Densities via on-the-fly atomic UHF.

  ==> Iterations <==

                           Total Energy        Delta E     RMS |[F,P]|

   @DF-RKS iter   0:  -210.83154711012898   -2.10832e+02   3.62166e-02 
   @DF-RKS iter   1:  -210.19318759233397    6.38360e-01   7.43721e-03 
   @DF-RKS iter   2:  -210.03106723008486    1.62120e-01   1.01884e-02 DIIS
   @DF-RKS iter   3:  -210.38918413954016   -3.58117e-01   6.11750e-04 DIIS
   @DF-RKS iter   4:  -210.38992028036606   -7.36141e-04   4.01964e-04 DIIS
   @DF-RKS iter   5:  -210.39049873801119   -5.78458e-04   5.08585e-05 DIIS
   @DF-RKS iter   6:  -210.39050576540549   -7.02739e-06   2.46538e-05 DIIS
   @DF-RKS iter   7:  -210.39050797867486   -2.21327e-06   1.95332e-06 DIIS
   @DF-RKS iter   8:  -210.39050799287773   -1.42029e-08   5.94155e-07 DIIS

  ==> Post-Iterations <==

    Orbital Energies (a.u.)
    -----------------------

    Doubly Occupied:                                                      

       1A    -19.128861     2A    -14.304198     3A    -10.224605  
       4A    -10.199464     5A     -1.011422     6A     -0.876206  
       7A     -0.710997     8A     -0.600759     9A     -0.514105  
      10A     -0.474319    11A     -0.459921    12A     -0.407836  
      13A     -0.394154    14A     -0.367198    15A     -0.320742  
      16A     -0.264291    17A     -0.230967  

    Virtual:                                                              

      18A      0.046208    19A      0.055557    20A      0.102126  
      21A      0.111271    22A      0.132148    23A      0.157364  
      24A      0.165500    25A      0.204087    26A      0.248882  
      27A      0.262442    28A      0.434420    29A      0.446304  
      30A      0.492496    31A      0.502761    32A      0.552386  
      33A      0.584591    34A      0.598537    35A      0.615915  
      36A      0.641808    37A      0.650709    38A      0.660950  
      39A      0.675172    40A      0.696357    41A      0.815630  
      42A      0.830331    43A      0.844540    44A      0.924477  
      45A      0.957035    46A      1.008666    47A      1.022596  
      48A      1.062390    49A      1.120012    50A      1.207277  
      51A      1.226153    52A      1.267074    53A      1.322213  
      54A      1.407371    55A      1.419283    56A      1.472242  
      57A      1.515830    58A      1.591851    59A      1.631992  
      60A      1.642606    61A      1.654090    62A      1.685178  
      63A      1.709517    64A      1.715352    65A      1.748216  
      66A      1.780158    67A      1.809418    68A      1.837155  
      69A      1.858593    70A      1.957088    71A      2.007349  
      72A      2.021527    73A      2.079422    74A      2.129108  
      75A      2.162252    76A      2.243034    77A      2.263746  
      78A      2.368796    79A      2.400105    80A      2.443036  
      81A      2.471469    82A      2.543293    83A      2.601339  
      84A      2.683665    85A      2.821171    86A      2.937851  
      87A      3.014042    88A      3.054719    89A      3.110740  
      90A      3.225055    91A      3.673794  

    Final Occupation by Irrep:
              A 
    DOCC [    17 ]

  Energy converged.

  @DF-RKS Final Energy:  -210.39050799287773

   => Energetics <=

    Nuclear Repulsion Energy =            130.5893166282257880
    One-Electron Energy =                -544.0972811570121621
    Two-Electron Energy =                 226.6092469500813422
    DFT Exchange-Correlation Energy =     -23.4867928241727100
    Empirical Dispersion Energy =          -0.0049975900000000
    PCM Polarization Energy =               0.0000000000000000
    EFP Energy =                            0.0000000000000000
    Total Energy =                       -210.3905079928777297



Properties will be evaluated at   0.000000,   0.000000,   0.000000 Bohr

Properties computed using the SCF density matrix

  Nuclear Dipole Moment: (a.u.)
     X:   177.0237      Y:   -31.3413      Z:   -35.2845

  Electronic Dipole Moment: (a.u.)
     X:  -176.8448      Y:    31.8216      Z:    34.5244

  Dipole Moment: (a.u.)
     X:     0.1789      Y:     0.4803      Z:    -0.7601     Total:     0.9167

  Dipole Moment: (Debye)
     X:     0.4547      Y:     1.2209      Z:    -1.9319     Total:     2.3301


*** tstop() called on computer06 at Tue Dec 12 11:19:10 2017
Module time:
	user time   =      23.15 seconds =       0.39 minutes
	system time =       0.18 seconds =       0.00 minutes
	total time  =         24 seconds =       0.40 minutes
Total time:
	user time   =      23.15 seconds =       0.39 minutes
	system time =       0.18 seconds =       0.00 minutes
	total time  =         24 seconds =       0.40 minutes


Properties will be evaluated at   0.000000,   0.000000,   0.000000 Bohr

Properties computed using the  density matrix

  Nuclear Dipole Moment: (a.u.)
     X:   177.0237      Y:   -31.3413      Z:   -35.2845

  Electronic Dipole Moment: (a.u.)
     X:  -176.8448      Y:    31.8216      Z:    34.5244

  Dipole Moment: (a.u.)
     X:     0.1789      Y:     0.4803      Z:    -0.7601     Total:     0.9167

  Dipole Moment: (Debye)
     X:     0.4547      Y:     1.2209      Z:    -1.9319     Total:     2.3301

  Quadrupole Moment: (Debye Ang)
    XX:   -25.4455     YY:   -22.9322     ZZ:   -22.9131
    XY:     1.2612     XZ:    -6.5903     YZ:     0.3618

  Traceless Quadrupole Moment: (Debye Ang)
    XX:    -1.6819     YY:     0.8314     ZZ:     0.8505
    XY:     1.2612     XZ:    -6.5903     YZ:     0.3618

  Mulliken Charges: (a.u.)
   Center  Symbol    Alpha    Beta     Spin     Total
       1     O     4.13927  4.13927  0.00000 -0.27854
       2     C     2.92972  2.92972  0.00000  0.14056
       3     C     2.98353  2.98353  0.00000  0.03293
       4     N     3.59359  3.59359  0.00000 -0.18718
       5     H     0.42977  0.42977  0.00000  0.14046
       6     H     0.49024  0.49024  0.00000  0.01952
       7     H     0.50426  0.50426  0.00000 -0.00852
       8     H     0.50875  0.50875  0.00000 -0.01749
       9     H     0.48959  0.48959  0.00000  0.02082
      10     H     0.46717  0.46717  0.00000  0.06567
      11     H     0.46411  0.46411  0.00000  0.07177

   Total alpha = 17.00000, Total beta = 17.00000, Total charge =  0.00000


*** Psi4 exiting successfully. Buy a developer a beer!
