    -----------------------------------------------------------------------
          Psi4: An Open-Source Ab Initio Electronic Structure Package
                              Psi4 (no tag) Driver

                          Git: Rev {detached?}  

    J. M. Turney, A. C. Simmonett, R. M. Parrish, E. G. Hohenstein,
    F. A. Evangelista, J. T. Fermann, B. J. Mintz, L. A. Burns, J. J. Wilke,
    M. L. Abrams, N. J. Russ, M. L. Leininger, C. L. Janssen, E. T. Seidl,
    W. D. Allen, H. F. Schaefer, R. A. King, E. F. Valeev, C. D. Sherrill,
    and T. D. Crawford, WIREs Comput. Mol. Sci. 2, 556-565 (2012)
    (doi: 10.1002/wcms.93)

                         Additional Contributions by
    A. E. DePrince, M. Saitow, U. Bozkaya, A. Yu. Sokolov
    -----------------------------------------------------------------------


    Psi4 started on: Tue Jul  5 16:27:18 2016

    Process ID:  20338
    PSI4DATADIR: /export131/home/mjharvey/miniconda3/share
    Memory level set to 256.000 MB

  ==> Input File <==

--------------------------------------------------------------------------
set {
	reference rhf
	basis 6-31G*
}


set_num_threads( 1 )
memory 2 gb

molecule MOL {
0 1

H	 1.265709	 -2.294013	 -2.136956
C	 1.247992	 -1.333874	 -1.628963
C	 0.094065	 -1.281286	 -0.632566
H	 1.134589	 -0.552320	 -2.371982
H	 2.211668	 -1.200038	 -1.149432
N	 -0.000257	 -0.000071	 0.054619
H	 -0.827189	 -1.445278	 -1.177338
H	 0.175844	 -2.106578	 0.080800
C	 -1.363055	 0.315058	 0.462241
C	 0.950973	 0.115288	 1.152121
C	 -2.412078	 -0.285320	 -0.468531
H	 -1.482241	 1.391144	 0.451970
H	 -1.549931	 -0.001174	 1.492681
C	 1.369056	 1.557206	 1.422894
H	 1.838803	 -0.448416	 0.894925
H	 0.556728	 -0.339486	 2.065653
H	 -2.262839	 0.075384	 -1.480151
H	 -2.369300	 -1.368867	 -0.491760
H	 -3.410332	 -0.003975	 -0.144961
H	 1.814604	 1.989242	 0.533812
H	 0.530202	 2.181284	 1.711687
H	 2.097584	 1.595069	 2.227966

	symmetry c1
}
ee = energy('scf')
oeprop('DIPOLE', 'QUADRUPOLE', 'MULLIKEN_CHARGES')
f=open( 'psi4out.xyz', 'w' )
f.write( "22  " )
f.write( str(ee) + "\n" )
f.write( MOL.save_string_xyz() )
f.close()
--------------------------------------------------------------------------

  Memory set to   2.000 GiB by Python script.

*** tstart() called on cx1-3-15-2.cx1.hpc.ic.ac.uk
*** at Tue Jul  5 16:27:19 2016


         ---------------------------------------------------------
                                   SCF
            by Justin Turney, Rob Parrish, and Andy Simmonett
                              RHF Reference
                        1 Threads,   2000 MiB Core
         ---------------------------------------------------------

  ==> Geometry <==

    Molecular point group: c1
    Full point group: C1

    Geometry (in Angstrom), charge = 0, multiplicity = 1:

       Center              X                  Y                   Z               Mass       
    ------------   -----------------  -----------------  -----------------  -----------------
           H          1.281911699825    -2.160469941794    -2.186026851075     1.007825032070
           C          1.264194699825    -1.200330941794    -1.678033851075    12.000000000000
           C          0.110267699825    -1.147742941794    -0.681636851075    12.000000000000
           H          1.150791699825    -0.418776941794    -2.421052851075     1.007825032070
           H          2.227870699825    -1.066494941794    -1.198502851075     1.007825032070
           N          0.015945699825     0.133472058206     0.005548148925    14.003074004780
           H         -0.810986300175    -1.311734941794    -1.226408851075     1.007825032070
           H          0.192046699825    -1.973034941794     0.031729148925     1.007825032070
           C         -1.346852300175     0.448601058206     0.413170148925    12.000000000000
           C          0.967175699825     0.248831058206     1.103050148925    12.000000000000
           C         -2.395875300175    -0.151776941794    -0.517601851075    12.000000000000
           H         -1.466038300175     1.524687058206     0.402899148925     1.007825032070
           H         -1.533728300175     0.132369058206     1.443610148925     1.007825032070
           C          1.385258699825     1.690749058206     1.373823148925    12.000000000000
           H          1.855005699825    -0.314872941794     0.845854148925     1.007825032070
           H          0.572930699825    -0.205942941794     2.016582148925     1.007825032070
           H         -2.246636300175     0.208927058206    -1.529221851075     1.007825032070
           H         -2.353097300175    -1.235323941794    -0.540830851075     1.007825032070
           H         -3.394129300175     0.129568058206    -0.194031851075     1.007825032070
           H          1.830806699825     2.122785058206     0.484741148925     1.007825032070
           H          0.546404699825     2.314827058206     1.662616148925     1.007825032070
           H          2.113786699825     1.728612058206     2.178895148925     1.007825032070

  Running in c1 symmetry.

  Rotational constants: A =      0.08928  B =      0.07139  C =      0.04385 [cm^-1]
  Rotational constants: A =   2676.63693  B =   2140.12659  C =   1314.63385 [MHz]
  Nuclear repulsion =  339.202525383406794

  Charge       = 0
  Multiplicity = 1
  Electrons    = 58
  Nalpha       = 29
  Nbeta        = 29

  ==> Algorithm <==

  SCF Algorithm Type is DF.
  DIIS enabled.
  MOM disabled.
  Fractional occupation disabled.
  Guess Type is CORE.
  Energy threshold   = 1.00e-06
  Density threshold  = 1.00e-06
  Integral threshold = 0.00e+00

  ==> Primary Basis <==

  Basis Set: 6-31G*
    Number of shells: 72
    Number of basis function: 135
    Number of Cartesian functions: 135
    Spherical Harmonics?: false
    Max angular momentum: 2

  ==> Pre-Iterations <==

   -------------------------------------------------------
    Irrep   Nso     Nmo     Nalpha   Nbeta   Ndocc  Nsocc
   -------------------------------------------------------
     A        135     135       0       0       0       0
   -------------------------------------------------------
    Total     135     135      29      29      29       0
   -------------------------------------------------------

 OEINTS: Overlap, kinetic, potential, dipole, and quadrupole integrals
         stored in file 35.

  ==> Integral Setup <==

  ==> DFJK: Density-Fitted J/K Matrices <==

    J tasked:                  Yes
    K tasked:                  Yes
    wK tasked:                  No
    OpenMP threads:              1
    Integrals threads:           1
    Memory (MB):              1430
    Algorithm:                Core
    Integral Cache:           NONE
    Schwarz Cutoff:          1E-12
    Fitting Condition:       1E-12

   => Auxiliary Basis Set <=

  Basis Set: 
    Number of shells: 303
    Number of basis function: 942
    Number of Cartesian functions: 942
    Spherical Harmonics?: false
    Max angular momentum: 3

  Minimum eigenvalue in the overlap matrix is 3.8745859372E-03.
  Using Symmetric Orthogonalization.
  SCF Guess: Core (One-Electron) Hamiltonian.

  ==> Iterations <==

                           Total Energy        Delta E     RMS |[F,P]|

   @DF-RHF iter   1:  -152.08612987178469   -1.52086e+02   8.80737e-02 
   @DF-RHF iter   2:  -197.81480387336961   -4.57287e+01   5.32740e-02 DIIS
   @DF-RHF iter   3:  -240.63453030469447   -4.28197e+01   5.16346e-02 DIIS
   @DF-RHF iter   4:  -281.21016222060626   -4.05756e+01   2.81480e-02 DIIS
   @DF-RHF iter   5:  -289.20715043450201   -7.99699e+00   1.10676e-02 DIIS
   @DF-RHF iter   6:  -290.29113812626730   -1.08399e+00   2.18124e-03 DIIS
   @DF-RHF iter   7:  -290.35130003616354   -6.01619e-02   6.59883e-04 DIIS
   @DF-RHF iter   8:  -290.35665251198151   -5.35248e-03   2.36344e-04 DIIS
   @DF-RHF iter   9:  -290.35733946311240   -6.86951e-04   6.91371e-05 DIIS
   @DF-RHF iter  10:  -290.35740139961155   -6.19365e-05   2.79700e-05 DIIS
   @DF-RHF iter  11:  -290.35741158666025   -1.01870e-05   6.23696e-06 DIIS
   @DF-RHF iter  12:  -290.35741211350972   -5.26849e-07   1.40908e-06 DIIS
   @DF-RHF iter  13:  -290.35741214061380   -2.71041e-08   3.46258e-07 DIIS

  ==> Post-Iterations <==

    Orbital Energies (a.u.)
    -----------------------

    Doubly Occupied:                                                      

       1A    -15.536493     2A    -11.240279     3A    -11.239282  
       4A    -11.234207     5A    -11.212021     6A    -11.203993  
       7A    -11.202728     8A     -1.224120     9A     -1.028513  
      10A     -1.018641    11A     -0.956898    12A     -0.859694  
      13A     -0.840728    14A     -0.762600    15A     -0.656997  
      16A     -0.639702    17A     -0.627484    18A     -0.595253  
      19A     -0.589731    20A     -0.547184    21A     -0.531735  
      22A     -0.524811    23A     -0.511001    24A     -0.503342  
      25A     -0.492832    26A     -0.481245    27A     -0.462105  
      28A     -0.455121    29A     -0.339329  

    Virtual:                                                              

      30A      0.236218    31A      0.252951    32A      0.255291  
      33A      0.284061    34A      0.299443    35A      0.306512  
      36A      0.312215    37A      0.316916    38A      0.328204  
      39A      0.342393    40A      0.344574    41A      0.347883  
      42A      0.355984    43A      0.368487    44A      0.383381  
      45A      0.395591    46A      0.426591    47A      0.438183  
      48A      0.447418    49A      0.472564    50A      0.484218  
      51A      0.694169    52A      0.730109    53A      0.734568  
      54A      0.749178    55A      0.760308    56A      0.779199  
      57A      0.796999    58A      0.821395    59A      0.845667  
      60A      0.887020    61A      0.910633    62A      0.936604  
      63A      0.949433    64A      0.974546    65A      1.014612  
      66A      1.053706    67A      1.073382    68A      1.111625  
      69A      1.128228    70A      1.146853    71A      1.156217  
      72A      1.157273    73A      1.171412    74A      1.181693  
      75A      1.187520    76A      1.199656    77A      1.207730  
      78A      1.208410    79A      1.232550    80A      1.243693  
      81A      1.256959    82A      1.283546    83A      1.286420  
      84A      1.293225    85A      1.331919    86A      1.351043  
      87A      1.390448    88A      1.523638    89A      1.569886  
      90A      1.592818    91A      1.656967    92A      1.720178  
      93A      1.814851    94A      1.861573    95A      1.880809  
      96A      1.911536    97A      1.998781    98A      2.082128  
      99A      2.093460   100A      2.144973   101A      2.218513  
     102A      2.245879   103A      2.271508   104A      2.285693  
     105A      2.308343   106A      2.327530   107A      2.354060  
     108A      2.359629   109A      2.391580   110A      2.477322  
     111A      2.532687   112A      2.545082   113A      2.597017  
     114A      2.643433   115A      2.666447   116A      2.675018  
     117A      2.676641   118A      2.699386   119A      2.708628  
     120A      2.730471   121A      2.828708   122A      2.841282  
     123A      2.889272   124A      3.013921   125A      3.105357  
     126A      3.132874   127A      3.241247   128A      3.258082  
     129A      4.503110   130A      4.633322   131A      4.643438  
     132A      4.673289   133A      4.853228   134A      4.872868  
     135A      4.956925  

    Final Occupation by Irrep:
              A 
    DOCC [    29 ]

  Energy converged.

  @DF-RHF Final Energy:  -290.35741214061380

   => Energetics <=

    Nuclear Repulsion Energy =            339.2025253834067939
    One-Electron Energy =               -1064.0837053665823078
    Two-Electron Energy =                 434.5237678425613694
    DFT Exchange-Correlation Energy =       0.0000000000000000
    Empirical Dispersion Energy =           0.0000000000000000
    PCM Polarization Energy =               0.0000000000000000
    EFP Energy =                            0.0000000000000000
    Total Energy =                       -290.3574121406142012

    Alert: EFP and PCM quantities not currently incorporated into SCF psivars.

Properties will be evaluated at   0.000000,   0.000000,   0.000000 Bohr
  ==> Properties <==


Properties computed using the SCF density matrix

  Nuclear Dipole Moment: (a.u.)
     X:    -0.0310      Y:    -0.4924      Z:    -0.2148

  Electronic Dipole Moment: (a.u.)
     X:    -0.1363      Y:     0.2723      Z:     0.3698

  Dipole Moment: (a.u.)
     X:    -0.1673      Y:    -0.2202      Z:     0.1549     Total:     0.3170

  Dipole Moment: (Debye)
     X:    -0.4253      Y:    -0.5596      Z:     0.3938     Total:     0.8057


  Saving occupied orbitals to File 180.

*** tstop() called on cx1-3-15-2.cx1.hpc.ic.ac.uk at Tue Jul  5 16:27:33 2016
Module time:
	user time   =      14.23 seconds =       0.24 minutes
	system time =       0.06 seconds =       0.00 minutes
	total time  =         14 seconds =       0.23 minutes
Total time:
	user time   =      14.23 seconds =       0.24 minutes
	system time =       0.06 seconds =       0.00 minutes
	total time  =         14 seconds =       0.23 minutes


Properties will be evaluated at   0.000000,   0.000000,   0.000000 Bohr

Properties computed using the  density matrix

  Nuclear Dipole Moment: (a.u.)
     X:    -0.0310      Y:    -0.4924      Z:    -0.2148

  Electronic Dipole Moment: (a.u.)
     X:    -0.1363      Y:     0.2723      Z:     0.3698

  Dipole Moment: (a.u.)
     X:    -0.1673      Y:    -0.2202      Z:     0.1549     Total:     0.3170

  Dipole Moment: (Debye)
     X:    -0.4253      Y:    -0.5596      Z:     0.3938     Total:     0.8057

  Quadrupole Moment: (Debye Ang)
    XX:   -46.5679     YY:   -48.0076     ZZ:   -47.7648
    XY:    -0.3298     XZ:     0.7302     YZ:     0.7299

  Traceless Quadrupole Moment: (Debye Ang)
    XX:     0.8789     YY:    -0.5608     ZZ:    -0.3181
    XY:    -0.3298     XZ:     0.7302     YZ:     0.7299

  Mulliken Charges: (a.u.)
   Center  Symbol    Alpha    Beta     Spin     Total
       1     H     0.42460  0.42460  0.00000  0.15080
       2     C     3.23343  3.23343  0.00000 -0.46686
       3     C     3.06141  3.06141  0.00000 -0.12282
       4     H     0.41667  0.41667  0.00000  0.16665
       5     H     0.42249  0.42249  0.00000  0.15501
       6     N     3.79031  3.79031  0.00000 -0.58062
       7     H     0.41138  0.41138  0.00000  0.17724
       8     H     0.43523  0.43523  0.00000  0.12953
       9     C     3.04075  3.04075  0.00000 -0.08150
      10     C     3.05791  3.05791  0.00000 -0.11582
      11     C     3.26757  3.26757  0.00000 -0.53514
      12     H     0.41729  0.41729  0.00000  0.16543
      13     H     0.43361  0.43361  0.00000  0.13277
      14     C     3.23646  3.23646  0.00000 -0.47292
      15     H     0.41818  0.41818  0.00000  0.16364
      16     H     0.43183  0.43183  0.00000  0.13634
      17     H     0.41200  0.41200  0.00000  0.17600
      18     H     0.41370  0.41370  0.00000  0.17260
      19     H     0.41557  0.41557  0.00000  0.16885
      20     H     0.41522  0.41522  0.00000  0.16955
      21     H     0.42055  0.42055  0.00000  0.15891
      22     H     0.42382  0.42382  0.00000  0.15236

   Total alpha = 29.00000, Total beta = 29.00000, Total charge =  0.00000


*** PSI4 exiting successfully. Buy a developer a beer!
