    -----------------------------------------------------------------------
          Psi4: An Open-Source Ab Initio Electronic Structure Package
                              Psi4 (no tag) Driver

                          Git: Rev {detached?}  

    J. M. Turney, A. C. Simmonett, R. M. Parrish, E. G. Hohenstein,
    F. A. Evangelista, J. T. Fermann, B. J. Mintz, L. A. Burns, J. J. Wilke,
    M. L. Abrams, N. J. Russ, M. L. Leininger, C. L. Janssen, E. T. Seidl,
    W. D. Allen, H. F. Schaefer, R. A. King, E. F. Valeev, C. D. Sherrill,
    and T. D. Crawford, WIREs Comput. Mol. Sci. 2, 556-565 (2012)
    (doi: 10.1002/wcms.93)

                         Additional Contributions by
    A. E. DePrince, M. Saitow, U. Bozkaya, A. Yu. Sokolov
    -----------------------------------------------------------------------


    Psi4 started on: Tue Jul  5 16:22:45 2016

    Process ID:  24146
    PSI4DATADIR: /export131/home/mjharvey/miniconda3/share
    Memory level set to 256.000 MB

  ==> Input File <==

--------------------------------------------------------------------------
set {
	reference rhf
	basis 6-31G*
}


set_num_threads( 1 )
memory 2 gb

molecule MOL {
0 1

H	 2.365902	 -0.207477	 0.313151
O	 1.499460	 -0.065305	 0.666115
C	 0.702312	 0.627605	 -0.264544
C	 -0.714990	 0.596302	 0.266387
H	 0.736288	 0.142532	 -1.236349
H	 1.039400	 1.655764	 -0.377608
O	 -1.405996	 -0.526611	 -0.195820
H	 -1.257453	 1.468809	 -0.075599
H	 -0.688972	 0.618407	 1.353696
H	 -0.890587	 -1.292708	 0.022039

	symmetry c1
}
set optking {
	frozen_dihedral = ("
		10 7 4 3
	")
}

ee = energy('scf')
oeprop('DIPOLE', 'QUADRUPOLE', 'MULLIKEN_CHARGES')
f=open( 'psi4out.xyz', 'w' )
f.write( "10  " )
f.write( str(ee) + "\n" )
f.write( MOL.save_string_xyz() )
f.close()
--------------------------------------------------------------------------

  Memory set to   2.000 GiB by Python script.

*** tstart() called on cx1-49-4-2.cx1.hpc.ic.ac.uk
*** at Tue Jul  5 16:22:45 2016


         ---------------------------------------------------------
                                   SCF
            by Justin Turney, Rob Parrish, and Andy Simmonett
                              RHF Reference
                        1 Threads,   2000 MiB Core
         ---------------------------------------------------------

  ==> Geometry <==

    Molecular point group: c1
    Full point group: C1

    Geometry (in Angstrom), charge = 0, multiplicity = 1:

       Center              X                  Y                   Z               Mass       
    ------------   -----------------  -----------------  -----------------  -----------------
           H          2.323062911816    -0.330359432779     0.191549440452     1.007825032070
           O          1.456620911816    -0.188187432779     0.544513440452    15.994914619560
           C          0.659472911816     0.504722567221    -0.386145559548    12.000000000000
           C         -0.757829088184     0.473419567221     0.144785440452    12.000000000000
           H          0.693448911816     0.019649567221    -1.357950559548     1.007825032070
           H          0.996560911816     1.532881567221    -0.499209559548     1.007825032070
           O         -1.448835088184    -0.649493432779    -0.317421559548    15.994914619560
           H         -1.300292088184     1.345926567221    -0.197200559548     1.007825032070
           H         -0.731811088184     0.495524567221     1.232094440452     1.007825032070
           H         -0.933426088184    -1.415590432779    -0.099562559548     1.007825032070

  Running in c1 symmetry.

  Rotational constants: A =      0.60483  B =      0.16408  C =      0.15020 [cm^-1]
  Rotational constants: A =  18132.23775  B =   4919.10235  C =   4502.96693 [MHz]
  Nuclear repulsion =  133.430864539936323

  Charge       = 0
  Multiplicity = 1
  Electrons    = 34
  Nalpha       = 17
  Nbeta        = 17

  ==> Algorithm <==

  SCF Algorithm Type is DF.
  DIIS enabled.
  MOM disabled.
  Fractional occupation disabled.
  Guess Type is CORE.
  Energy threshold   = 1.00e-06
  Density threshold  = 1.00e-06
  Integral threshold = 0.00e+00

  ==> Primary Basis <==

  Basis Set: 6-31G*
    Number of shells: 36
    Number of basis function: 72
    Number of Cartesian functions: 72
    Spherical Harmonics?: false
    Max angular momentum: 2

  ==> Pre-Iterations <==

   -------------------------------------------------------
    Irrep   Nso     Nmo     Nalpha   Nbeta   Ndocc  Nsocc
   -------------------------------------------------------
     A         72      72       0       0       0       0
   -------------------------------------------------------
    Total      72      72      17      17      17       0
   -------------------------------------------------------

 OEINTS: Overlap, kinetic, potential, dipole, and quadrupole integrals
         stored in file 35.

  ==> Integral Setup <==

  ==> DFJK: Density-Fitted J/K Matrices <==

    J tasked:                  Yes
    K tasked:                  Yes
    wK tasked:                  No
    OpenMP threads:              1
    Integrals threads:           1
    Memory (MB):              1430
    Algorithm:                Core
    Integral Cache:           NONE
    Schwarz Cutoff:          1E-12
    Fitting Condition:       1E-12

   => Auxiliary Basis Set <=

  Basis Set: 
    Number of shells: 150
    Number of basis function: 474
    Number of Cartesian functions: 474
    Spherical Harmonics?: false
    Max angular momentum: 3

  Minimum eigenvalue in the overlap matrix is 4.9211888170E-03.
  Using Symmetric Orthogonalization.
  SCF Guess: Core (One-Electron) Hamiltonian.

  ==> Iterations <==

                           Total Energy        Delta E     RMS |[F,P]|

   @DF-RHF iter   1:  -201.05768875758147   -2.01058e+02   8.38537e-02 
   @DF-RHF iter   2:  -196.95342469224070    4.10426e+00   7.26087e-02 DIIS
   @DF-RHF iter   3:  -223.60225506452278   -2.66488e+01   3.83417e-02 DIIS
   @DF-RHF iter   4:  -228.34254621887558   -4.74029e+00   1.50274e-02 DIIS
   @DF-RHF iter   5:  -228.88289119098445   -5.40345e-01   3.95451e-03 DIIS
   @DF-RHF iter   6:  -228.91721520903846   -3.43240e-02   1.00075e-03 DIIS
   @DF-RHF iter   7:  -228.91990425470604   -2.68905e-03   3.79621e-04 DIIS
   @DF-RHF iter   8:  -228.92032917570194   -4.24921e-04   1.00133e-04 DIIS
   @DF-RHF iter   9:  -228.92036309190487   -3.39162e-05   2.86316e-05 DIIS
   @DF-RHF iter  10:  -228.92036657542067   -3.48352e-06   7.89583e-06 DIIS
   @DF-RHF iter  11:  -228.92036685995080   -2.84530e-07   2.48687e-06 DIIS
   @DF-RHF iter  12:  -228.92036688463182   -2.46810e-08   6.71052e-07 DIIS

  ==> Post-Iterations <==

    Orbital Energies (a.u.)
    -----------------------

    Doubly Occupied:                                                      

       1A    -20.565958     2A    -20.552566     3A    -11.274739  
       4A    -11.267046     5A     -1.378876     6A     -1.356095  
       7A     -1.000456     8A     -0.845613     9A     -0.728582  
      10A     -0.668643    11A     -0.654591    12A     -0.608754  
      13A     -0.572469    14A     -0.531393    15A     -0.486350  
      16A     -0.457769    17A     -0.430766  

    Virtual:                                                              

      18A      0.216751    19A      0.256580    20A      0.277700  
      21A      0.296135    22A      0.315665    23A      0.347821  
      24A      0.386494    25A      0.413030    26A      0.444224  
      27A      0.758325    28A      0.798485    29A      0.821813  
      30A      0.845463    31A      0.880665    32A      0.925514  
      33A      1.070580    34A      1.091538    35A      1.120234  
      36A      1.138878    37A      1.161303    38A      1.192822  
      39A      1.201929    40A      1.235724    41A      1.252073  
      42A      1.272107    43A      1.328307    44A      1.406163  
      45A      1.491135    46A      1.552242    47A      1.657423  
      48A      1.758783    49A      1.843410    50A      1.874812  
      51A      1.991524    52A      2.035192    53A      2.112067  
      54A      2.162544    55A      2.274039    56A      2.362481  
      57A      2.388450    58A      2.444809    59A      2.522528  
      60A      2.646556    61A      2.694065    62A      2.738266  
      63A      2.825000    64A      2.873200    65A      2.958590  
      66A      3.011144    67A      3.215311    68A      3.220148  
      69A      4.094632    70A      4.286479    71A      4.638035  
      72A      4.867334  

    Final Occupation by Irrep:
              A 
    DOCC [    17 ]

  Energy converged.

  @DF-RHF Final Energy:  -228.92036688463182

   => Energetics <=

    Nuclear Repulsion Energy =            133.4308645399363229
    One-Electron Energy =                -577.9411652910793009
    Two-Electron Energy =                 215.5899338665112168
    DFT Exchange-Correlation Energy =       0.0000000000000000
    Empirical Dispersion Energy =           0.0000000000000000
    PCM Polarization Energy =               0.0000000000000000
    EFP Energy =                            0.0000000000000000
    Total Energy =                       -228.9203668846317328

    Alert: EFP and PCM quantities not currently incorporated into SCF psivars.

Properties will be evaluated at   0.000000,   0.000000,   0.000000 Bohr
  ==> Properties <==


Properties computed using the SCF density matrix

  Nuclear Dipole Moment: (a.u.)
     X:     0.9821      Y:     1.5410      Z:    -0.6835

  Electronic Dipole Moment: (a.u.)
     X:    -0.0785      Y:    -1.3691      Z:     0.3882

  Dipole Moment: (a.u.)
     X:     0.9036      Y:     0.1719      Z:    -0.2953     Total:     0.9661

  Dipole Moment: (Debye)
     X:     2.2968      Y:     0.4368      Z:    -0.7507     Total:     2.4555


  Saving occupied orbitals to File 180.

*** tstop() called on cx1-49-4-2.cx1.hpc.ic.ac.uk at Tue Jul  5 16:22:48 2016
Module time:
	user time   =       2.36 seconds =       0.04 minutes
	system time =       0.04 seconds =       0.00 minutes
	total time  =          3 seconds =       0.05 minutes
Total time:
	user time   =       2.36 seconds =       0.04 minutes
	system time =       0.04 seconds =       0.00 minutes
	total time  =          3 seconds =       0.05 minutes


Properties will be evaluated at   0.000000,   0.000000,   0.000000 Bohr

Properties computed using the  density matrix

  Nuclear Dipole Moment: (a.u.)
     X:     0.9821      Y:     1.5410      Z:    -0.6835

  Electronic Dipole Moment: (a.u.)
     X:    -0.0785      Y:    -1.3691      Z:     0.3882

  Dipole Moment: (a.u.)
     X:     0.9036      Y:     0.1719      Z:    -0.2953     Total:     0.9661

  Dipole Moment: (Debye)
     X:     2.2968      Y:     0.4368      Z:    -0.7507     Total:     2.4555

  Quadrupole Moment: (Debye Ang)
    XX:   -25.0387     YY:   -22.0144     ZZ:   -26.3818
    XY:    -1.6257     XZ:    -3.5555     YZ:    -0.3078

  Traceless Quadrupole Moment: (Debye Ang)
    XX:    -0.5604     YY:     2.4639     ZZ:    -1.9035
    XY:    -1.6257     XZ:    -3.5555     YZ:    -0.3078

  Mulliken Charges: (a.u.)
   Center  Symbol    Alpha    Beta     Spin     Total
       1     H     0.27898  0.27898  0.00000  0.44205
       2     O     4.37408  4.37408  0.00000 -0.74816
       3     C     3.02084  3.02084  0.00000 -0.04168
       4     C     2.99759  2.99759  0.00000  0.00481
       5     H     0.42038  0.42038  0.00000  0.15925
       6     H     0.42675  0.42675  0.00000  0.14651
       7     O     4.36988  4.36988  0.00000 -0.73976
       8     H     0.41674  0.41674  0.00000  0.16651
       9     H     0.41594  0.41594  0.00000  0.16812
      10     H     0.27882  0.27882  0.00000  0.44235

   Total alpha = 17.00000, Total beta = 17.00000, Total charge = -0.00000


*** PSI4 exiting successfully. Buy a developer a beer!
