    -----------------------------------------------------------------------
          Psi4: An Open-Source Ab Initio Electronic Structure Package
                              Psi4 (no tag) Driver

                          Git: Rev {detached?}  

    J. M. Turney, A. C. Simmonett, R. M. Parrish, E. G. Hohenstein,
    F. A. Evangelista, J. T. Fermann, B. J. Mintz, L. A. Burns, J. J. Wilke,
    M. L. Abrams, N. J. Russ, M. L. Leininger, C. L. Janssen, E. T. Seidl,
    W. D. Allen, H. F. Schaefer, R. A. King, E. F. Valeev, C. D. Sherrill,
    and T. D. Crawford, WIREs Comput. Mol. Sci. 2, 556-565 (2012)
    (doi: 10.1002/wcms.93)

                         Additional Contributions by
    A. E. DePrince, M. Saitow, U. Bozkaya, A. Yu. Sokolov
    -----------------------------------------------------------------------


    Psi4 started on: Tue Jul  5 16:36:34 2016

    Process ID:  27690
    PSI4DATADIR: /export131/home/mjharvey/miniconda3/share
    Memory level set to 256.000 MB

  ==> Input File <==

--------------------------------------------------------------------------
set {
	reference rhf
	basis 6-31G*
}


set_num_threads( 1 )
memory 2 gb

molecule MOL {
0 1

H	 -1.748661	 -2.220942	 -0.005015
C	 -1.343207	 -1.225221	 -0.013879
N	 -0.055091	 -1.100174	 -0.261126
C	 -2.150779	 -0.125890	 0.222726
C	 0.449969	 0.122615	 -0.277109
H	 -3.200618	 -0.238980	 0.422496
N	 -1.660212	 1.097703	 0.209594
C	 -0.371804	 1.219904	 -0.038265
C	 1.928147	 0.267347	 -0.541394
H	 0.029131	 2.217482	 -0.051283
C	 2.775543	 -0.629721	 0.367011
H	 2.115364	 0.010199	 -1.578548
H	 2.219543	 1.304705	 -0.410431
H	 3.829771	 -0.521771	 0.132602
H	 2.502610	 -1.670297	 0.235904
H	 2.635504	 -0.371863	 1.412099

	symmetry c1
}
ee = energy('scf')
oeprop('DIPOLE', 'QUADRUPOLE', 'MULLIKEN_CHARGES')
f=open( 'psi4out.xyz', 'w' )
f.write( "16  " )
f.write( str(ee) + "\n" )
f.write( MOL.save_string_xyz() )
f.close()
--------------------------------------------------------------------------

  Memory set to   2.000 GiB by Python script.

*** tstart() called on cx1-3-6-2.cx1.hpc.ic.ac.uk
*** at Tue Jul  5 16:36:34 2016


         ---------------------------------------------------------
                                   SCF
            by Justin Turney, Rob Parrish, and Andy Simmonett
                              RHF Reference
                        1 Threads,   2000 MiB Core
         ---------------------------------------------------------

  ==> Geometry <==

    Molecular point group: c1
    Full point group: C1

    Geometry (in Angstrom), charge = 0, multiplicity = 1:

       Center              X                  Y                   Z               Mass       
    ------------   -----------------  -----------------  -----------------  -----------------
           H         -1.747579758722    -2.165520507024     0.031382825411     1.007825032070
           C         -1.342125758722    -1.169799507024     0.022518825411    12.000000000000
           N         -0.054009758722    -1.044752507024    -0.224728174589    14.003074004780
           C         -2.149697758722    -0.070468507024     0.259123825411    12.000000000000
           C          0.451050241278     0.178036492976    -0.240711174589    12.000000000000
           H         -3.199536758722    -0.183558507024     0.458893825411     1.007825032070
           N         -1.659130758722     1.153124492976     0.245991825411    14.003074004780
           C         -0.370722758722     1.275325492976    -0.001867174589    12.000000000000
           C          1.929228241278     0.322768492976    -0.504996174589    12.000000000000
           H          0.030212241278     2.272903492976    -0.014885174589     1.007825032070
           C          2.776624241278    -0.574299507024     0.403408825411    12.000000000000
           H          2.116445241278     0.065620492976    -1.542150174589     1.007825032070
           H          2.220624241278     1.360126492976    -0.374033174589     1.007825032070
           H          3.830852241278    -0.466349507024     0.168999825411     1.007825032070
           H          2.503691241278    -1.614875507024     0.272301825411     1.007825032070
           H          2.636585241278    -0.316441507024     1.448496825411     1.007825032070

  Running in c1 symmetry.

  Rotational constants: A =      0.16719  B =      0.05221  C =      0.04228 [cm^-1]
  Rotational constants: A =   5012.35112  B =   1565.13087  C =   1267.39805 [MHz]
  Nuclear repulsion =  350.089435230302286

  Charge       = 0
  Multiplicity = 1
  Electrons    = 58
  Nalpha       = 29
  Nbeta        = 29

  ==> Algorithm <==

  SCF Algorithm Type is DF.
  DIIS enabled.
  MOM disabled.
  Fractional occupation disabled.
  Guess Type is CORE.
  Energy threshold   = 1.00e-06
  Density threshold  = 1.00e-06
  Integral threshold = 0.00e+00

  ==> Primary Basis <==

  Basis Set: 6-31G*
    Number of shells: 64
    Number of basis function: 136
    Number of Cartesian functions: 136
    Spherical Harmonics?: false
    Max angular momentum: 2

  ==> Pre-Iterations <==

   -------------------------------------------------------
    Irrep   Nso     Nmo     Nalpha   Nbeta   Ndocc  Nsocc
   -------------------------------------------------------
     A        136     136       0       0       0       0
   -------------------------------------------------------
    Total     136     136      29      29      29       0
   -------------------------------------------------------

 OEINTS: Overlap, kinetic, potential, dipole, and quadrupole integrals
         stored in file 35.

  ==> Integral Setup <==

  ==> DFJK: Density-Fitted J/K Matrices <==

    J tasked:                  Yes
    K tasked:                  Yes
    wK tasked:                  No
    OpenMP threads:              1
    Integrals threads:           1
    Memory (MB):              1430
    Algorithm:                Core
    Integral Cache:           NONE
    Schwarz Cutoff:          1E-12
    Fitting Condition:       1E-12

   => Auxiliary Basis Set <=

  Basis Set: 
    Number of shells: 264
    Number of basis function: 848
    Number of Cartesian functions: 848
    Spherical Harmonics?: false
    Max angular momentum: 3

  Minimum eigenvalue in the overlap matrix is 1.1604263345E-03.
  Using Symmetric Orthogonalization.
  SCF Guess: Core (One-Electron) Hamiltonian.

  ==> Iterations <==

                           Total Energy        Delta E     RMS |[F,P]|

   @DF-RHF iter   1:  -252.44770122780898   -2.52448e+02   6.94488e-02 
   @DF-RHF iter   2:  -127.56738125908686    1.24880e+02   8.09379e-02 DIIS
   @DF-RHF iter   3:  -231.79354925701278   -1.04226e+02   6.27463e-02 DIIS
   @DF-RHF iter   4:  -279.64009264136217   -4.78465e+01   5.80156e-02 DIIS
   @DF-RHF iter   5:  -339.83390149744565   -6.01938e+01   9.48430e-03 DIIS
   @DF-RHF iter   6:  -340.50796729520692   -6.74066e-01   5.42536e-03 DIIS
   @DF-RHF iter   7:  -340.74680171260189   -2.38834e-01   8.68929e-04 DIIS
   @DF-RHF iter   8:  -340.75510264294491   -8.30093e-03   4.34196e-04 DIIS
   @DF-RHF iter   9:  -340.75740965308552   -2.30701e-03   1.21958e-04 DIIS
   @DF-RHF iter  10:  -340.75780844213551   -3.98789e-04   6.33690e-05 DIIS
   @DF-RHF iter  11:  -340.75796079996945   -1.52358e-04   3.05653e-05 DIIS
   @DF-RHF iter  12:  -340.75800630312591   -4.55032e-05   1.15628e-05 DIIS
   @DF-RHF iter  13:  -340.75801280590900   -6.50278e-06   4.09143e-06 DIIS
   @DF-RHF iter  14:  -340.75801334553529   -5.39626e-07   1.73249e-06 DIIS
   @DF-RHF iter  15:  -340.75801344601149   -1.00476e-07   4.77951e-07 DIIS

  ==> Post-Iterations <==

    Orbital Energies (a.u.)
    -----------------------

    Doubly Occupied:                                                      

       1A    -15.586987     2A    -15.582316     3A    -11.281377  
       4A    -11.276815     5A    -11.272242     6A    -11.271964  
       7A    -11.233126     8A    -11.214728     9A     -1.313591  
      10A     -1.222290    11A     -1.084052    12A     -1.012924  
      13A     -0.906824    14A     -0.891116    15A     -0.826474  
      16A     -0.717278    17A     -0.708525    18A     -0.658932  
      19A     -0.618531    20A     -0.602214    21A     -0.574686  
      22A     -0.559319    23A     -0.521008    24A     -0.504305  
      25A     -0.500457    26A     -0.486064    27A     -0.428891  
      28A     -0.395000    29A     -0.345184  

    Virtual:                                                              

      30A      0.103122    31A      0.134966    32A      0.246657  
      33A      0.271886    34A      0.277224    35A      0.300975  
      36A      0.316795    37A      0.324239    38A      0.327943  
      39A      0.336382    40A      0.360818    41A      0.380736  
      42A      0.413030    43A      0.433215    44A      0.502729  
      45A      0.512035    46A      0.555195    47A      0.631524  
      48A      0.665559    49A      0.718207    50A      0.722864  
      51A      0.745270    52A      0.747182    53A      0.764501  
      54A      0.793742    55A      0.799746    56A      0.827599  
      57A      0.838757    58A      0.862741    59A      0.882386  
      60A      0.921673    61A      0.949907    62A      0.982854  
      63A      1.003356    64A      1.029699    65A      1.058026  
      66A      1.078968    67A      1.082475    68A      1.093786  
      69A      1.108174    70A      1.133998    71A      1.137353  
      72A      1.157151    73A      1.170057    74A      1.189973  
      75A      1.214636    76A      1.231359    77A      1.243960  
      78A      1.258275    79A      1.273377    80A      1.333190  
      81A      1.367861    82A      1.390656    83A      1.480440  
      84A      1.522816    85A      1.557733    86A      1.612891  
      87A      1.646368    88A      1.709907    89A      1.760950  
      90A      1.775152    91A      1.787415    92A      1.796462  
      93A      1.826354    94A      1.944909    95A      1.982974  
      96A      2.051251    97A      2.099350    98A      2.138927  
      99A      2.153572   100A      2.188684   101A      2.240888  
     102A      2.284296   103A      2.307661   104A      2.320727  
     105A      2.422501   106A      2.490838   107A      2.495217  
     108A      2.559363   109A      2.573196   110A      2.599977  
     111A      2.619227   112A      2.642016   113A      2.683023  
     114A      2.703270   115A      2.721024   116A      2.726519  
     117A      2.806187   118A      2.878285   119A      2.922337  
     120A      2.963825   121A      3.023927   122A      3.103252  
     123A      3.139000   124A      3.172394   125A      3.220338  
     126A      3.268239   127A      3.504112   128A      3.842697  
     129A      4.367097   130A      4.501464   131A      4.557596  
     132A      4.617640   133A      4.712113   134A      4.797974  
     135A      4.879759   136A      4.986167  

    Final Occupation by Irrep:
              A 
    DOCC [    29 ]

  Energy converged.

  @DF-RHF Final Energy:  -340.75801344601149

   => Energetics <=

    Nuclear Repulsion Energy =            350.0894352303022856
    One-Electron Energy =               -1154.5003492049936540
    Two-Electron Energy =                 463.6529005286801635
    DFT Exchange-Correlation Energy =       0.0000000000000000
    Empirical Dispersion Energy =           0.0000000000000000
    PCM Polarization Energy =               0.0000000000000000
    EFP Energy =                            0.0000000000000000
    Total Energy =                       -340.7580134460111481

    Alert: EFP and PCM quantities not currently incorporated into SCF psivars.

Properties will be evaluated at   0.000000,   0.000000,   0.000000 Bohr
  ==> Properties <==


Properties computed using the SCF density matrix

  Nuclear Dipole Moment: (a.u.)
     X:     7.8716      Y:    -0.9829      Z:     0.4209

  Electronic Dipole Moment: (a.u.)
     X:    -7.6845      Y:     0.8990      Z:    -0.4601

  Dipole Moment: (a.u.)
     X:     0.1871      Y:    -0.0839      Z:    -0.0393     Total:     0.2087

  Dipole Moment: (Debye)
     X:     0.4755      Y:    -0.2132      Z:    -0.0998     Total:     0.5306


  Saving occupied orbitals to File 180.

*** tstop() called on cx1-3-6-2.cx1.hpc.ic.ac.uk at Tue Jul  5 16:36:48 2016
Module time:
	user time   =      13.48 seconds =       0.22 minutes
	system time =       0.07 seconds =       0.00 minutes
	total time  =         14 seconds =       0.23 minutes
Total time:
	user time   =      13.48 seconds =       0.22 minutes
	system time =       0.07 seconds =       0.00 minutes
	total time  =         14 seconds =       0.23 minutes


Properties will be evaluated at   0.000000,   0.000000,   0.000000 Bohr

Properties computed using the  density matrix

  Nuclear Dipole Moment: (a.u.)
     X:     7.8716      Y:    -0.9829      Z:     0.4209

  Electronic Dipole Moment: (a.u.)
     X:    -7.6845      Y:     0.8990      Z:    -0.4601

  Dipole Moment: (a.u.)
     X:     0.1871      Y:    -0.0839      Z:    -0.0393     Total:     0.2087

  Dipole Moment: (Debye)
     X:     0.4755      Y:    -0.2132      Z:    -0.0998     Total:     0.5306

  Quadrupole Moment: (Debye Ang)
    XX:   -44.8043     YY:   -49.0684     ZZ:   -48.9730
    XY:     6.6473     XZ:    -0.5621     YZ:    -1.1928

  Traceless Quadrupole Moment: (Debye Ang)
    XX:     2.8109     YY:    -1.4531     ZZ:    -1.3578
    XY:     6.6473     XZ:    -0.5621     YZ:    -1.1928

  Mulliken Charges: (a.u.)
   Center  Symbol    Alpha    Beta     Spin     Total
       1     H     0.39384  0.39384  0.00000  0.21232
       2     C     2.98930  2.98930  0.00000  0.02141
       3     N     3.75475  3.75475  0.00000 -0.50949
       4     C     2.99823  2.99823  0.00000  0.00354
       5     C     2.87258  2.87258  0.00000  0.25484
       6     H     0.39425  0.39425  0.00000  0.21150
       7     N     3.72858  3.72858  0.00000 -0.45716
       8     C     3.00138  3.00138  0.00000 -0.00277
       9     C     3.16907  3.16907  0.00000 -0.33813
      10     H     0.39497  0.39497  0.00000  0.21006
      11     C     3.24246  3.24246  0.00000 -0.48491
      12     H     0.40561  0.40561  0.00000  0.18877
      13     H     0.41434  0.41434  0.00000  0.17133
      14     H     0.41831  0.41831  0.00000  0.16338
      15     H     0.40364  0.40364  0.00000  0.19271
      16     H     0.41869  0.41869  0.00000  0.16261

   Total alpha = 29.00000, Total beta = 29.00000, Total charge = -0.00000


*** PSI4 exiting successfully. Buy a developer a beer!
