    -----------------------------------------------------------------------
          Psi4: An Open-Source Ab Initio Electronic Structure Package
                              Psi4 (no tag) Driver

                          Git: Rev {detached?}  

    J. M. Turney, A. C. Simmonett, R. M. Parrish, E. G. Hohenstein,
    F. A. Evangelista, J. T. Fermann, B. J. Mintz, L. A. Burns, J. J. Wilke,
    M. L. Abrams, N. J. Russ, M. L. Leininger, C. L. Janssen, E. T. Seidl,
    W. D. Allen, H. F. Schaefer, R. A. King, E. F. Valeev, C. D. Sherrill,
    and T. D. Crawford, WIREs Comput. Mol. Sci. 2, 556-565 (2012)
    (doi: 10.1002/wcms.93)

                         Additional Contributions by
    A. E. DePrince, M. Saitow, U. Bozkaya, A. Yu. Sokolov
    -----------------------------------------------------------------------


    Psi4 started on: Tue Jul  5 16:28:16 2016

    Process ID:  32244
    PSI4DATADIR: /export131/home/mjharvey/miniconda3/share
    Memory level set to 256.000 MB

  ==> Input File <==

--------------------------------------------------------------------------
set {
	reference rhf
	basis 6-31G*
}


set_num_threads( 1 )
memory 2 gb

molecule MOL {
0 1

H	 1.148083	 -1.049780	 0.784252
O	 1.319262	 -0.618148	 -0.041729
C	 0.709265	 0.639550	 -0.033818
C	 0.834474	 1.377999	 1.272932
H	 -0.337829	 0.469188	 -0.256920
H	 1.100424	 1.264426	 -0.836034
C	 1.315321	 0.871865	 2.390688
H	 0.489086	 2.400149	 1.252957
H	 1.651215	 -0.147386	 2.451763
H	 1.376339	 1.458544	 3.289611

	symmetry c1
}
set optking {
	frozen_dihedral = ("
		5 3 4 7,
		3 4 7 9
	")
}

ee = energy('scf')
oeprop('DIPOLE', 'QUADRUPOLE', 'MULLIKEN_CHARGES')
f=open( 'psi4out.xyz', 'w' )
f.write( "10  " )
f.write( str(ee) + "\n" )
f.write( MOL.save_string_xyz() )
f.close()
--------------------------------------------------------------------------

  Memory set to   2.000 GiB by Python script.

*** tstart() called on cx1-3-5-2.cx1.hpc.ic.ac.uk
*** at Tue Jul  5 16:28:16 2016


         ---------------------------------------------------------
                                   SCF
            by Justin Turney, Rob Parrish, and Andy Simmonett
                              RHF Reference
                        1 Threads,   2000 MiB Core
         ---------------------------------------------------------

  ==> Geometry <==

    Molecular point group: c1
    Full point group: C1

    Geometry (in Angstrom), charge = 0, multiplicity = 1:

       Center              X                  Y                   Z               Mass       
    ------------   -----------------  -----------------  -----------------  -----------------
           H          0.099185102156    -1.553128345744    -0.070788006553     1.007825032070
           O          0.270364102156    -1.121496345744    -0.896769006553    15.994914619560
           C         -0.339632897844     0.136201654256    -0.888858006553    12.000000000000
           C         -0.214423897844     0.874650654256     0.417891993447    12.000000000000
           H         -1.386726897844    -0.034160345744    -1.111960006553     1.007825032070
           H          0.051526102156     0.761077654256    -1.691074006553     1.007825032070
           C          0.266423102156     0.368516654256     1.535647993447    12.000000000000
           H         -0.559811897844     1.896800654256     0.397916993447     1.007825032070
           H          0.602317102156    -0.650734345744     1.596722993447     1.007825032070
           H          0.327441102156     0.955195654256     2.434570993447     1.007825032070

  Running in c1 symmetry.

  Rotational constants: A =      0.57710  B =      0.20062  C =      0.15384 [cm^-1]
  Rotational constants: A =  17301.07051  B =   6014.43265  C =   4611.95473 [MHz]
  Nuclear repulsion =  119.672422195086114

  Charge       = 0
  Multiplicity = 1
  Electrons    = 32
  Nalpha       = 16
  Nbeta        = 16

  ==> Algorithm <==

  SCF Algorithm Type is DF.
  DIIS enabled.
  MOM disabled.
  Fractional occupation disabled.
  Guess Type is CORE.
  Energy threshold   = 1.00e-06
  Density threshold  = 1.00e-06
  Integral threshold = 0.00e+00

  ==> Primary Basis <==

  Basis Set: 6-31G*
    Number of shells: 36
    Number of basis function: 72
    Number of Cartesian functions: 72
    Spherical Harmonics?: false
    Max angular momentum: 2

  ==> Pre-Iterations <==

   -------------------------------------------------------
    Irrep   Nso     Nmo     Nalpha   Nbeta   Ndocc  Nsocc
   -------------------------------------------------------
     A         72      72       0       0       0       0
   -------------------------------------------------------
    Total      72      72      16      16      16       0
   -------------------------------------------------------

 OEINTS: Overlap, kinetic, potential, dipole, and quadrupole integrals
         stored in file 35.

  ==> Integral Setup <==

  ==> DFJK: Density-Fitted J/K Matrices <==

    J tasked:                  Yes
    K tasked:                  Yes
    wK tasked:                  No
    OpenMP threads:              1
    Integrals threads:           1
    Memory (MB):              1430
    Algorithm:                Core
    Integral Cache:           NONE
    Schwarz Cutoff:          1E-12
    Fitting Condition:       1E-12

   => Auxiliary Basis Set <=

  Basis Set: 
    Number of shells: 150
    Number of basis function: 474
    Number of Cartesian functions: 474
    Spherical Harmonics?: false
    Max angular momentum: 3

  Minimum eigenvalue in the overlap matrix is 3.7044002421E-03.
  Using Symmetric Orthogonalization.
  SCF Guess: Core (One-Electron) Hamiltonian.

  ==> Iterations <==

                           Total Energy        Delta E     RMS |[F,P]|

   @DF-RHF iter   1:  -158.42078427956554   -1.58421e+02   8.89518e-02 
   @DF-RHF iter   2:  -125.07537112820293    3.33454e+01   8.16603e-02 DIIS
   @DF-RHF iter   3:  -168.89623425431787   -4.38209e+01   5.71656e-02 DIIS
   @DF-RHF iter   4:  -187.93130537752111   -1.90351e+01   3.50867e-02 DIIS
   @DF-RHF iter   5:  -191.70710416201624   -3.77580e+00   9.58296e-03 DIIS
   @DF-RHF iter   6:  -191.86869379242162   -1.61590e-01   3.95250e-03 DIIS
   @DF-RHF iter   7:  -191.90533379414356   -3.66400e-02   1.55501e-03 DIIS
   @DF-RHF iter   8:  -191.91169035100600   -6.35656e-03   4.52767e-04 DIIS
   @DF-RHF iter   9:  -191.91235681099559   -6.66460e-04   1.21259e-04 DIIS
   @DF-RHF iter  10:  -191.91241843713911   -6.16261e-05   3.51110e-05 DIIS
   @DF-RHF iter  11:  -191.91242474794515   -6.31081e-06   1.44884e-05 DIIS
   @DF-RHF iter  12:  -191.91242598154932   -1.23360e-06   4.27366e-06 DIIS
   @DF-RHF iter  13:  -191.91242608191786   -1.00369e-07   1.01145e-06 DIIS
   @DF-RHF iter  14:  -191.91242608862544   -6.70758e-09   1.64019e-07 DIIS

  ==> Post-Iterations <==

    Orbital Energies (a.u.)
    -----------------------

    Doubly Occupied:                                                      

       1A    -20.557506     2A    -11.279062     3A    -11.238191  
       4A    -11.227045     5A     -1.368307     6A     -1.063270  
       7A     -0.933217     8A     -0.771145     9A     -0.692118  
      10A     -0.657933    11A     -0.631405    12A     -0.569007  
      13A     -0.544364    14A     -0.492115    15A     -0.447214  
      16A     -0.369861  

    Virtual:                                                              

      17A      0.178816    18A      0.229637    19A      0.255731  
      20A      0.293005    21A      0.330328    22A      0.336633  
      23A      0.355112    24A      0.394720    25A      0.465994  
      26A      0.552598    27A      0.730504    28A      0.765145  
      29A      0.773953    30A      0.819745    31A      0.853155  
      32A      0.898585    33A      0.906848    34A      0.918189  
      35A      1.012965    36A      1.069511    37A      1.125236  
      38A      1.155988    39A      1.168709    40A      1.198725  
      41A      1.223230    42A      1.258258    43A      1.346721  
      44A      1.355721    45A      1.411385    46A      1.457179  
      47A      1.513146    48A      1.672613    49A      1.762533  
      50A      1.830451    51A      1.950918    52A      1.979930  
      53A      2.024562    54A      2.181073    55A      2.267703  
      56A      2.273653    57A      2.369724    58A      2.483593  
      59A      2.521551    60A      2.525374    61A      2.682817  
      62A      2.750798    63A      2.785872    64A      2.825603  
      65A      2.879016    66A      3.088343    67A      3.221035  
      68A      3.322270    69A      4.198041    70A      4.533852  
      71A      4.636683    72A      4.853161  

    Final Occupation by Irrep:
              A 
    DOCC [    16 ]

  Energy converged.

  @DF-RHF Final Energy:  -191.91242608862544

   => Energetics <=

    Nuclear Repulsion Energy =            119.6724221950861136
    One-Electron Energy =                -497.4861904290816028
    Two-Electron Energy =                 185.9013421453700516
    DFT Exchange-Correlation Energy =       0.0000000000000000
    Empirical Dispersion Energy =           0.0000000000000000
    PCM Polarization Energy =               0.0000000000000000
    EFP Energy =                            0.0000000000000000
    Total Energy =                       -191.9124260886254092

    Alert: EFP and PCM quantities not currently incorporated into SCF psivars.

Properties will be evaluated at   0.000000,   0.000000,   0.000000 Bohr
  ==> Properties <==


Properties computed using the SCF density matrix

  Nuclear Dipole Moment: (a.u.)
     X:    -0.8106      Y:     1.2837      Z:     1.4538

  Electronic Dipole Moment: (a.u.)
     X:     0.3988      Y:    -0.9555      Z:    -0.9630

  Dipole Moment: (a.u.)
     X:    -0.4118      Y:     0.3282      Z:     0.4908     Total:     0.7199

  Dipole Moment: (Debye)
     X:    -1.0467      Y:     0.8342      Z:     1.2476     Total:     1.8297


  Saving occupied orbitals to File 180.

*** tstop() called on cx1-3-5-2.cx1.hpc.ic.ac.uk at Tue Jul  5 16:28:19 2016
Module time:
	user time   =       2.40 seconds =       0.04 minutes
	system time =       0.04 seconds =       0.00 minutes
	total time  =          3 seconds =       0.05 minutes
Total time:
	user time   =       2.40 seconds =       0.04 minutes
	system time =       0.04 seconds =       0.00 minutes
	total time  =          3 seconds =       0.05 minutes


Properties will be evaluated at   0.000000,   0.000000,   0.000000 Bohr

Properties computed using the  density matrix

  Nuclear Dipole Moment: (a.u.)
     X:    -0.8106      Y:     1.2837      Z:     1.4538

  Electronic Dipole Moment: (a.u.)
     X:     0.3988      Y:    -0.9555      Z:    -0.9630

  Dipole Moment: (a.u.)
     X:    -0.4118      Y:     0.3282      Z:     0.4908     Total:     0.7199

  Dipole Moment: (Debye)
     X:    -1.0467      Y:     0.8342      Z:     1.2476     Total:     1.8297

  Quadrupole Moment: (Debye Ang)
    XX:   -26.7329     YY:   -23.5303     ZZ:   -25.3399
    XY:     0.0492     XZ:     1.6725     YZ:    -3.3372

  Traceless Quadrupole Moment: (Debye Ang)
    XX:    -1.5319     YY:     1.6707     ZZ:    -0.1389
    XY:     0.0492     XZ:     1.6725     YZ:    -3.3372

  Mulliken Charges: (a.u.)
   Center  Symbol    Alpha    Beta     Spin     Total
       1     H     0.27710  0.27710  0.00000  0.44579
       2     O     4.37065  4.37065  0.00000 -0.74131
       3     C     2.99837  2.99837  0.00000  0.00326
       4     C     3.08541  3.08541  0.00000 -0.17081
       5     H     0.42177  0.42177  0.00000  0.15646
       6     H     0.41102  0.41102  0.00000  0.17796
       7     C     3.20276  3.20276  0.00000 -0.40551
       8     H     0.40710  0.40710  0.00000  0.18579
       9     H     0.41917  0.41917  0.00000  0.16166
      10     H     0.40665  0.40665  0.00000  0.18671

   Total alpha = 16.00000, Total beta = 16.00000, Total charge = -0.00000


*** PSI4 exiting successfully. Buy a developer a beer!
