    -----------------------------------------------------------------------
          Psi4: An Open-Source Ab Initio Electronic Structure Package
                              Psi4 (no tag) Driver

                          Git: Rev {detached?}  

    J. M. Turney, A. C. Simmonett, R. M. Parrish, E. G. Hohenstein,
    F. A. Evangelista, J. T. Fermann, B. J. Mintz, L. A. Burns, J. J. Wilke,
    M. L. Abrams, N. J. Russ, M. L. Leininger, C. L. Janssen, E. T. Seidl,
    W. D. Allen, H. F. Schaefer, R. A. King, E. F. Valeev, C. D. Sherrill,
    and T. D. Crawford, WIREs Comput. Mol. Sci. 2, 556-565 (2012)
    (doi: 10.1002/wcms.93)

                         Additional Contributions by
    A. E. DePrince, M. Saitow, U. Bozkaya, A. Yu. Sokolov
    -----------------------------------------------------------------------


    Psi4 started on: Tue Jul  5 16:34:17 2016

    Process ID:  11298
    PSI4DATADIR: /export131/home/mjharvey/miniconda3/share
    Memory level set to 256.000 MB

  ==> Input File <==

--------------------------------------------------------------------------
set {
	reference rhf
	basis 6-31G*
}


set_num_threads( 1 )
memory 2 gb

molecule MOL {
0 1

O	 0.179989	 1.101947	 0.578823
C	 0.028650	 0.075053	 -0.000277
C	 -1.233602	 -0.752807	 0.000328
O	 0.974377	 -0.489651	 -0.739608
C	 -2.501530	 0.091881	 0.000126
H	 -1.193807	 -1.406641	 -0.865785
H	 -1.193516	 -1.405779	 0.867015
H	 -2.545121	 0.729328	 -0.874513
H	 -3.377167	 -0.548497	 0.000561
H	 -2.544818	 0.730135	 0.874258
C	 2.214928	 0.188265	 -0.823585
H	 2.082743	 1.169968	 -1.255092
H	 2.840340	 -0.418708	 -1.459436
H	 2.660643	 0.287592	 0.155672

	symmetry c1
}
set optking {
	frozen_dihedral = ("
		11 4 2 3
	")
}

ee = energy('scf')
oeprop('DIPOLE', 'QUADRUPOLE', 'MULLIKEN_CHARGES')
f=open( 'psi4out.xyz', 'w' )
f.write( "14  " )
f.write( str(ee) + "\n" )
f.write( MOL.save_string_xyz() )
f.close()
--------------------------------------------------------------------------

  Memory set to   2.000 GiB by Python script.

*** tstart() called on cx1-1-4-4.cx1.hpc.ic.ac.uk
*** at Tue Jul  5 16:34:18 2016


         ---------------------------------------------------------
                                   SCF
            by Justin Turney, Rob Parrish, and Andy Simmonett
                              RHF Reference
                        1 Threads,   2000 MiB Core
         ---------------------------------------------------------

  ==> Geometry <==

    Molecular point group: c1
    Full point group: C1

    Geometry (in Angstrom), charge = 0, multiplicity = 1:

       Center              X                  Y                   Z               Mass       
    ------------   -----------------  -----------------  -----------------  -----------------
           O          0.211004143611     1.054782209916     0.749516410099    15.994914619560
           C          0.059665143611     0.027888209916     0.170416410099    12.000000000000
           C         -1.202586856389    -0.799971790084     0.171021410099    12.000000000000
           O          1.005392143611    -0.536815790084    -0.568914589901    15.994914619560
           C         -2.470514856389     0.044716209916     0.170819410099    12.000000000000
           H         -1.162791856389    -1.453805790084    -0.695091589901     1.007825032070
           H         -1.162500856389    -1.452943790084     1.037708410099     1.007825032070
           H         -2.514105856389     0.682163209916    -0.703819589901     1.007825032070
           H         -3.346151856389    -0.595661790084     0.171254410099     1.007825032070
           H         -2.513802856389     0.682970209916     1.044951410099     1.007825032070
           C          2.245943143611     0.141100209916    -0.652891589901    12.000000000000
           H          2.113758143611     1.122803209916    -1.084398589901     1.007825032070
           H          2.871355143611    -0.465872790084    -1.288742589901     1.007825032070
           H          2.691658143611     0.240427209916     0.326365410099     1.007825032070

  Running in c1 symmetry.

  Rotational constants: A =      0.30191  B =      0.07253  C =      0.06256 [cm^-1]
  Rotational constants: A =   9051.13249  B =   2174.41689  C =   1875.43342 [MHz]
  Nuclear repulsion =  247.125507025514622

  Charge       = 0
  Multiplicity = 1
  Electrons    = 48
  Nalpha       = 24
  Nbeta        = 24

  ==> Algorithm <==

  SCF Algorithm Type is DF.
  DIIS enabled.
  MOM disabled.
  Fractional occupation disabled.
  Guess Type is CORE.
  Energy threshold   = 1.00e-06
  Density threshold  = 1.00e-06
  Integral threshold = 0.00e+00

  ==> Primary Basis <==

  Basis Set: 6-31G*
    Number of shells: 52
    Number of basis function: 106
    Number of Cartesian functions: 106
    Spherical Harmonics?: false
    Max angular momentum: 2

  ==> Pre-Iterations <==

   -------------------------------------------------------
    Irrep   Nso     Nmo     Nalpha   Nbeta   Ndocc  Nsocc
   -------------------------------------------------------
     A        106     106       0       0       0       0
   -------------------------------------------------------
    Total     106     106      24      24      24       0
   -------------------------------------------------------

 OEINTS: Overlap, kinetic, potential, dipole, and quadrupole integrals
         stored in file 35.

  ==> Integral Setup <==

  ==> DFJK: Density-Fitted J/K Matrices <==

    J tasked:                  Yes
    K tasked:                  Yes
    wK tasked:                  No
    OpenMP threads:              1
    Integrals threads:           1
    Memory (MB):              1430
    Algorithm:                Core
    Integral Cache:           NONE
    Schwarz Cutoff:          1E-12
    Fitting Condition:       1E-12

   => Auxiliary Basis Set <=

  Basis Set: 
    Number of shells: 216
    Number of basis function: 686
    Number of Cartesian functions: 686
    Spherical Harmonics?: false
    Max angular momentum: 3

  Minimum eigenvalue in the overlap matrix is 3.0532700948E-03.
  Using Symmetric Orthogonalization.
  SCF Guess: Core (One-Electron) Hamiltonian.

  ==> Iterations <==

                           Total Energy        Delta E     RMS |[F,P]|

   @DF-RHF iter   1:  -226.08929151028391   -2.26089e+02   8.43125e-02 
   @DF-RHF iter   2:  -203.91910743587576    2.21702e+01   6.83598e-02 DIIS
   @DF-RHF iter   3:  -278.29393067080434   -7.43748e+01   4.57084e-02 DIIS
   @DF-RHF iter   4:  -283.45247356564676   -5.15854e+00   4.90593e-02 DIIS
   @DF-RHF iter   5:  -302.83429705412789   -1.93818e+01   1.91871e-02 DIIS
   @DF-RHF iter   6:  -305.75504310126018   -2.92075e+00   3.92189e-03 DIIS
   @DF-RHF iter   7:  -305.85229589306243   -9.72528e-02   1.83236e-03 DIIS
   @DF-RHF iter   8:  -305.86813900458230   -1.58431e-02   5.67069e-04 DIIS
   @DF-RHF iter   9:  -305.87050585499867   -2.36685e-03   1.85969e-04 DIIS
   @DF-RHF iter  10:  -305.87082277647164   -3.16921e-04   8.12331e-05 DIIS
   @DF-RHF iter  11:  -305.87088415039091   -6.13739e-05   3.55182e-05 DIIS
   @DF-RHF iter  12:  -305.87089622564076   -1.20752e-05   9.63553e-06 DIIS
   @DF-RHF iter  13:  -305.87089724390432   -1.01826e-06   2.89961e-06 DIIS
   @DF-RHF iter  14:  -305.87089732181641   -7.79121e-08   7.79025e-07 DIIS

  ==> Post-Iterations <==

    Orbital Energies (a.u.)
    -----------------------

    Doubly Occupied:                                                      

       1A    -20.605782     2A    -20.545124     3A    -11.372815  
       4A    -11.281299     5A    -11.237724     6A    -11.220103  
       7A     -1.470394     8A     -1.363398     9A     -1.065283  
      10A     -0.980386    11A     -0.879897    12A     -0.770526  
      13A     -0.699475    14A     -0.681884    15A     -0.671897  
      16A     -0.618321    17A     -0.602887    18A     -0.553276  
      19A     -0.539176    20A     -0.519652    21A     -0.514806  
      22A     -0.495990    23A     -0.456843    24A     -0.437504  

    Virtual:                                                              

      25A      0.194113    26A      0.246232    27A      0.265222  
      28A      0.291698    29A      0.302721    30A      0.309721  
      31A      0.319932    32A      0.326843    33A      0.334234  
      34A      0.355903    35A      0.414815    36A      0.436771  
      37A      0.511313    38A      0.563789    39A      0.720270  
      40A      0.721067    41A      0.741816    42A      0.757727  
      43A      0.780708    44A      0.799176    45A      0.819704  
      46A      0.894910    47A      0.924670    48A      0.968127  
      49A      0.985784    50A      1.016984    51A      1.070179  
      52A      1.096257    53A      1.127955    54A      1.133822  
      55A      1.143321    56A      1.167891    57A      1.197174  
      58A      1.207511    59A      1.214948    60A      1.240854  
      61A      1.249421    62A      1.275740    63A      1.343842  
      64A      1.378113    65A      1.396619    66A      1.516473  
      67A      1.566938    68A      1.637302    69A      1.694156  
      70A      1.797260    71A      1.804656    72A      1.827241  
      73A      1.907304    74A      1.953114    75A      2.050785  
      76A      2.084833    77A      2.137288    78A      2.158609  
      79A      2.214090    80A      2.262483    81A      2.282505  
      82A      2.340883    83A      2.388527    84A      2.399372  
      85A      2.446017    86A      2.498273    87A      2.590805  
      88A      2.629450    89A      2.668868    90A      2.672454  
      91A      2.701986    92A      2.753866    93A      2.844663  
      94A      2.860117    95A      2.995790    96A      3.096253  
      97A      3.141229    98A      3.346752    99A      3.426544  
     100A      3.557197   101A      4.416237   102A      4.551184  
     103A      4.651800   104A      4.688265   105A      4.777754  
     106A      4.966378  

    Final Occupation by Irrep:
              A 
    DOCC [    24 ]

  Energy converged.

  @DF-RHF Final Energy:  -305.87089732181641

   => Energetics <=

    Nuclear Repulsion Energy =            247.1255070255146222
    One-Electron Energy =                -906.8240153010440281
    Two-Electron Energy =                 353.8276109537131902
    DFT Exchange-Correlation Energy =       0.0000000000000000
    Empirical Dispersion Energy =           0.0000000000000000
    PCM Polarization Energy =               0.0000000000000000
    EFP Energy =                            0.0000000000000000
    Total Energy =                       -305.8708973218162441

    Alert: EFP and PCM quantities not currently incorporated into SCF psivars.

Properties will be evaluated at   0.000000,   0.000000,   0.000000 Bohr
  ==> Properties <==


Properties computed using the SCF density matrix

  Nuclear Dipole Moment: (a.u.)
     X:    -2.8277      Y:    -1.1599      Z:    -1.1164

  Electronic Dipole Moment: (a.u.)
     X:     2.9373      Y:     0.5689      Z:     0.7064

  Dipole Moment: (a.u.)
     X:     0.1096      Y:    -0.5910      Z:    -0.4100     Total:     0.7276

  Dipole Moment: (Debye)
     X:     0.2786      Y:    -1.5022      Z:    -1.0420     Total:     1.8493


  Saving occupied orbitals to File 180.

*** tstop() called on cx1-1-4-4.cx1.hpc.ic.ac.uk at Tue Jul  5 16:34:24 2016
Module time:
	user time   =       5.94 seconds =       0.10 minutes
	system time =       0.03 seconds =       0.00 minutes
	total time  =          6 seconds =       0.10 minutes
Total time:
	user time   =       5.94 seconds =       0.10 minutes
	system time =       0.03 seconds =       0.00 minutes
	total time  =          6 seconds =       0.10 minutes


Properties will be evaluated at   0.000000,   0.000000,   0.000000 Bohr

Properties computed using the  density matrix

  Nuclear Dipole Moment: (a.u.)
     X:    -2.8277      Y:    -1.1599      Z:    -1.1164

  Electronic Dipole Moment: (a.u.)
     X:     2.9373      Y:     0.5689      Z:     0.7064

  Dipole Moment: (a.u.)
     X:     0.1096      Y:    -0.5910      Z:    -0.4100     Total:     0.7276

  Dipole Moment: (Debye)
     X:     0.2786      Y:    -1.5022      Z:    -1.0420     Total:     1.8493

  Quadrupole Moment: (Debye Ang)
    XX:   -30.5348     YY:   -39.5160     ZZ:   -37.1635
    XY:     1.2735     XZ:    -1.3658     YZ:    -3.2922

  Traceless Quadrupole Moment: (Debye Ang)
    XX:     5.2033     YY:    -3.7779     ZZ:    -1.4254
    XY:     1.2735     XZ:    -1.3658     YZ:    -3.2922

  Mulliken Charges: (a.u.)
   Center  Symbol    Alpha    Beta     Spin     Total
       1     O     4.28522  4.28522  0.00000 -0.57044
       2     C     2.60674  2.60674  0.00000  0.78651
       3     C     3.20739  3.20739  0.00000 -0.41478
       4     O     4.30493  4.30493  0.00000 -0.60987
       5     C     3.24320  3.24320  0.00000 -0.48641
       6     H     0.40013  0.40013  0.00000  0.19974
       7     H     0.39933  0.39933  0.00000  0.20134
       8     H     0.41433  0.41433  0.00000  0.17134
       9     H     0.41566  0.41566  0.00000  0.16867
      10     H     0.40411  0.40411  0.00000  0.19177
      11     C     3.09316  3.09316  0.00000 -0.18632
      12     H     0.40862  0.40862  0.00000  0.18276
      13     H     0.40834  0.40834  0.00000  0.18331
      14     H     0.40882  0.40882  0.00000  0.18236

   Total alpha = 24.00000, Total beta = 24.00000, Total charge = -0.00000


*** PSI4 exiting successfully. Buy a developer a beer!
