    -----------------------------------------------------------------------
          Psi4: An Open-Source Ab Initio Electronic Structure Package
                              Psi4 (no tag) Driver

                          Git: Rev {detached?}  

    J. M. Turney, A. C. Simmonett, R. M. Parrish, E. G. Hohenstein,
    F. A. Evangelista, J. T. Fermann, B. J. Mintz, L. A. Burns, J. J. Wilke,
    M. L. Abrams, N. J. Russ, M. L. Leininger, C. L. Janssen, E. T. Seidl,
    W. D. Allen, H. F. Schaefer, R. A. King, E. F. Valeev, C. D. Sherrill,
    and T. D. Crawford, WIREs Comput. Mol. Sci. 2, 556-565 (2012)
    (doi: 10.1002/wcms.93)

                         Additional Contributions by
    A. E. DePrince, M. Saitow, U. Bozkaya, A. Yu. Sokolov
    -----------------------------------------------------------------------


    Psi4 started on: Tue Jul  5 16:35:53 2016

    Process ID:  17888
    PSI4DATADIR: /export131/home/mjharvey/miniconda3/share
    Memory level set to 256.000 MB

  ==> Input File <==

--------------------------------------------------------------------------
set {
	reference rhf
	basis 6-31G*
}


set_num_threads( 1 )
memory 2 gb

molecule MOL {
0 1

O	 -0.682937	 1.318834	 -0.186099
C	 -0.860635	 0.152188	 -0.042321
C	 -2.173363	 -0.477127	 0.338347
O	 0.083258	 -0.765189	 -0.202595
H	 -2.477673	 -1.180929	 -0.427595
H	 -2.923125	 0.290956	 0.455536
H	 -2.058825	 -1.029004	 1.264191
C	 1.128560	 -0.506622	 -1.137092
C	 0.604742	 -0.465741	 -2.560676
H	 1.898832	 -1.254271	 -1.023765
H	 1.524005	 0.454705	 -0.842181
H	 1.406924	 -0.192635	 -3.239386
H	 0.221855	 -1.433645	 -2.858885
H	 -0.186622	 0.269970	 -2.654954

	symmetry c1
}
set optking {
	frozen_dihedral = ("
		10 8 4 2
	")
}

ee = energy('scf')
oeprop('DIPOLE', 'QUADRUPOLE', 'MULLIKEN_CHARGES')
f=open( 'psi4out.xyz', 'w' )
f.write( "14  " )
f.write( str(ee) + "\n" )
f.write( MOL.save_string_xyz() )
f.close()
--------------------------------------------------------------------------

  Memory set to   2.000 GiB by Python script.

*** tstart() called on cx1-1-2-4.cx1.hpc.ic.ac.uk
*** at Tue Jul  5 16:35:53 2016


         ---------------------------------------------------------
                                   SCF
            by Justin Turney, Rob Parrish, and Andy Simmonett
                              RHF Reference
                        1 Threads,   2000 MiB Core
         ---------------------------------------------------------

  ==> Geometry <==

    Molecular point group: c1
    Full point group: C1

    Geometry (in Angstrom), charge = 0, multiplicity = 1:

       Center              X                  Y                   Z               Mass       
    ------------   -----------------  -----------------  -----------------  -----------------
           O         -0.367044541171     1.441702368458     0.454860653762    15.994914619560
           C         -0.544742541171     0.275056368458     0.598638653762    12.000000000000
           C         -1.857470541171    -0.354258631542     0.979306653762    12.000000000000
           O          0.399150458829    -0.642320631542     0.438364653762    15.994914619560
           H         -2.161780541171    -1.058060631542     0.213364653762     1.007825032070
           H         -2.607232541171     0.413824368458     1.096495653762     1.007825032070
           H         -1.742932541171    -0.906135631542     1.905150653762     1.007825032070
           C          1.444452458829    -0.383753631542    -0.496132346238    12.000000000000
           C          0.920634458829    -0.342872631542    -1.919716346238    12.000000000000
           H          2.214724458829    -1.131402631542    -0.382805346238     1.007825032070
           H          1.839897458829     0.577573368458    -0.201221346238     1.007825032070
           H          1.722816458829    -0.069766631542    -2.598426346238     1.007825032070
           H          0.537747458829    -1.310776631542    -2.217925346238     1.007825032070
           H          0.129270458829     0.392838368458    -2.013994346238     1.007825032070

  Running in c1 symmetry.

  Rotational constants: A =      0.21687  B =      0.08206  C =      0.07595 [cm^-1]
  Rotational constants: A =   6501.65647  B =   2460.06908  C =   2276.96225 [MHz]
  Nuclear repulsion =  250.188310231317018

  Charge       = 0
  Multiplicity = 1
  Electrons    = 48
  Nalpha       = 24
  Nbeta        = 24

  ==> Algorithm <==

  SCF Algorithm Type is DF.
  DIIS enabled.
  MOM disabled.
  Fractional occupation disabled.
  Guess Type is CORE.
  Energy threshold   = 1.00e-06
  Density threshold  = 1.00e-06
  Integral threshold = 0.00e+00

  ==> Primary Basis <==

  Basis Set: 6-31G*
    Number of shells: 52
    Number of basis function: 106
    Number of Cartesian functions: 106
    Spherical Harmonics?: false
    Max angular momentum: 2

  ==> Pre-Iterations <==

   -------------------------------------------------------
    Irrep   Nso     Nmo     Nalpha   Nbeta   Ndocc  Nsocc
   -------------------------------------------------------
     A        106     106       0       0       0       0
   -------------------------------------------------------
    Total     106     106      24      24      24       0
   -------------------------------------------------------

 OEINTS: Overlap, kinetic, potential, dipole, and quadrupole integrals
         stored in file 35.

  ==> Integral Setup <==

  ==> DFJK: Density-Fitted J/K Matrices <==

    J tasked:                  Yes
    K tasked:                  Yes
    wK tasked:                  No
    OpenMP threads:              1
    Integrals threads:           1
    Memory (MB):              1430
    Algorithm:                Core
    Integral Cache:           NONE
    Schwarz Cutoff:          1E-12
    Fitting Condition:       1E-12

   => Auxiliary Basis Set <=

  Basis Set: 
    Number of shells: 216
    Number of basis function: 686
    Number of Cartesian functions: 686
    Spherical Harmonics?: false
    Max angular momentum: 3

  Minimum eigenvalue in the overlap matrix is 3.8322289162E-03.
  Using Symmetric Orthogonalization.
  SCF Guess: Core (One-Electron) Hamiltonian.

  ==> Iterations <==

                           Total Energy        Delta E     RMS |[F,P]|

   @DF-RHF iter   1:  -235.71739476539346   -2.35717e+02   8.38554e-02 
   @DF-RHF iter   2:  -211.22331638429665    2.44941e+01   6.28222e-02 DIIS
   @DF-RHF iter   3:  -270.96630731649736   -5.97430e+01   5.98244e-02 DIIS
   @DF-RHF iter   4:  -292.71602407549392   -2.17497e+01   3.28924e-02 DIIS
   @DF-RHF iter   5:  -300.55462994168431   -7.83861e+00   2.34006e-02 DIIS
   @DF-RHF iter   6:  -305.58586968230452   -5.03124e+00   6.71125e-03 DIIS
   @DF-RHF iter   7:  -305.83932389068400   -2.53454e-01   2.09559e-03 DIIS
   @DF-RHF iter   8:  -305.86092447071837   -2.16006e-02   1.06104e-03 DIIS
   @DF-RHF iter   9:  -305.86646303365387   -5.53856e-03   5.24671e-04 DIIS
   @DF-RHF iter  10:  -305.86824893817493   -1.78590e-03   1.50406e-04 DIIS
   @DF-RHF iter  11:  -305.86839163630293   -1.42698e-04   4.90909e-05 DIIS
   @DF-RHF iter  12:  -305.86840705360385   -1.54173e-05   1.32839e-05 DIIS
   @DF-RHF iter  13:  -305.86840890358951   -1.84999e-06   6.09176e-06 DIIS
   @DF-RHF iter  14:  -305.86840916683491   -2.63245e-07   1.65622e-06 DIIS
   @DF-RHF iter  15:  -305.86840920497684   -3.81419e-08   5.11213e-07 DIIS

  ==> Post-Iterations <==

    Orbital Energies (a.u.)
    -----------------------

    Doubly Occupied:                                                      

       1A    -20.596205     2A    -20.546768     3A    -11.376513  
       4A    -11.287800     5A    -11.233280     6A    -11.223339  
       7A     -1.466309     8A     -1.363258     9A     -1.054460  
      10A     -1.002021    11A     -0.885976    12A     -0.760133  
      13A     -0.699464    14A     -0.684075    15A     -0.662600  
      16A     -0.615627    17A     -0.589055    18A     -0.571208  
      19A     -0.556372    20A     -0.533772    21A     -0.521517  
      22A     -0.488198    23A     -0.450757    24A     -0.437709  

    Virtual:                                                              

      25A      0.191345    26A      0.237285    27A      0.265761  
      28A      0.291051    29A      0.298818    30A      0.308282  
      31A      0.316150    32A      0.328364    33A      0.340271  
      34A      0.363117    35A      0.410509    36A      0.417439  
      37A      0.515501    38A      0.552788    39A      0.708993  
      40A      0.716225    41A      0.738154    42A      0.762729  
      43A      0.779873    44A      0.792072    45A      0.825962  
      46A      0.858320    47A      0.906742    48A      0.920865  
      49A      0.974720    50A      1.035298    51A      1.063322  
      52A      1.091665    53A      1.129776    54A      1.133761  
      55A      1.160552    56A      1.177235    57A      1.194309  
      58A      1.197211    59A      1.214859    60A      1.237380  
      61A      1.282313    62A      1.295665    63A      1.346580  
      64A      1.390063    65A      1.404354    66A      1.451405  
      67A      1.611981    68A      1.650057    69A      1.699471  
      70A      1.733753    71A      1.811549    72A      1.869671  
      73A      1.923367    74A      1.985116    75A      2.034666  
      76A      2.092385    77A      2.110882    78A      2.146176  
      79A      2.198152    80A      2.237822    81A      2.253446  
      82A      2.319613    83A      2.351674    84A      2.414836  
      85A      2.494141    86A      2.543200    87A      2.558355  
      88A      2.583265    89A      2.656486    90A      2.674553  
      91A      2.731917    92A      2.762435    93A      2.859202  
      94A      2.927261    95A      2.950451    96A      3.132398  
      97A      3.168728    98A      3.352547    99A      3.396059  
     100A      3.538801   101A      4.427683   102A      4.522494  
     103A      4.594844   104A      4.653051   105A      4.830481  
     106A      4.905641  

    Final Occupation by Irrep:
              A 
    DOCC [    24 ]

  Energy converged.

  @DF-RHF Final Energy:  -305.86840920497684

   => Energetics <=

    Nuclear Repulsion Energy =            250.1883102313170184
    One-Electron Energy =                -912.9006486474629583
    Two-Electron Energy =                 356.8439292111693248
    DFT Exchange-Correlation Energy =       0.0000000000000000
    Empirical Dispersion Energy =           0.0000000000000000
    PCM Polarization Energy =               0.0000000000000000
    EFP Energy =                            0.0000000000000000
    Total Energy =                       -305.8684092049766150

    Alert: EFP and PCM quantities not currently incorporated into SCF psivars.

Properties will be evaluated at   0.000000,   0.000000,   0.000000 Bohr
  ==> Properties <==


Properties computed using the SCF density matrix

  Nuclear Dipole Moment: (a.u.)
     X:    -0.0631      Y:    -2.8947      Z:    -3.9325

  Electronic Dipole Moment: (a.u.)
     X:     0.0787      Y:     2.0476      Z:     3.6029

  Dipole Moment: (a.u.)
     X:     0.0156      Y:    -0.8471      Z:    -0.3295     Total:     0.9091

  Dipole Moment: (Debye)
     X:     0.0396      Y:    -2.1532      Z:    -0.8376     Total:     2.3107


  Saving occupied orbitals to File 180.

*** tstop() called on cx1-1-2-4.cx1.hpc.ic.ac.uk at Tue Jul  5 16:36:00 2016
Module time:
	user time   =       6.44 seconds =       0.11 minutes
	system time =       0.03 seconds =       0.00 minutes
	total time  =          7 seconds =       0.12 minutes
Total time:
	user time   =       6.44 seconds =       0.11 minutes
	system time =       0.03 seconds =       0.00 minutes
	total time  =          7 seconds =       0.12 minutes


Properties will be evaluated at   0.000000,   0.000000,   0.000000 Bohr

Properties computed using the  density matrix

  Nuclear Dipole Moment: (a.u.)
     X:    -0.0631      Y:    -2.8947      Z:    -3.9325

  Electronic Dipole Moment: (a.u.)
     X:     0.0787      Y:     2.0476      Z:     3.6029

  Dipole Moment: (a.u.)
     X:     0.0156      Y:    -0.8471      Z:    -0.3295     Total:     0.9091

  Dipole Moment: (Debye)
     X:     0.0396      Y:    -2.1532      Z:    -0.8376     Total:     2.3107

  Quadrupole Moment: (Debye Ang)
    XX:   -31.7232     YY:   -42.0545     ZZ:   -34.9640
    XY:     0.9708     XZ:    -2.4740     YZ:    -0.3934

  Traceless Quadrupole Moment: (Debye Ang)
    XX:     4.5241     YY:    -5.8072     ZZ:     1.2832
    XY:     0.9708     XZ:    -2.4740     YZ:    -0.3934

  Mulliken Charges: (a.u.)
   Center  Symbol    Alpha    Beta     Spin     Total
       1     O     4.27944  4.27944  0.00000 -0.55888
       2     C     2.61954  2.61954  0.00000  0.76092
       3     C     3.28201  3.28201  0.00000 -0.56402
       4     O     4.30998  4.30998  0.00000 -0.61996
       5     H     0.40241  0.40241  0.00000  0.19518
       6     H     0.39799  0.39799  0.00000  0.20403
       7     H     0.39924  0.39924  0.00000  0.20151
       8     C     3.00673  3.00673  0.00000 -0.01346
       9     C     3.26049  3.26049  0.00000 -0.52098
      10     H     0.40676  0.40676  0.00000  0.18647
      11     H     0.40243  0.40243  0.00000  0.19514
      12     H     0.41416  0.41416  0.00000  0.17168
      13     H     0.41438  0.41438  0.00000  0.17125
      14     H     0.40444  0.40444  0.00000  0.19113

   Total alpha = 24.00000, Total beta = 24.00000, Total charge =  0.00000


*** PSI4 exiting successfully. Buy a developer a beer!
