    -----------------------------------------------------------------------
          Psi4: An Open-Source Ab Initio Electronic Structure Package
                              Psi4 (no tag) Driver

                          Git: Rev {detached?}  

    J. M. Turney, A. C. Simmonett, R. M. Parrish, E. G. Hohenstein,
    F. A. Evangelista, J. T. Fermann, B. J. Mintz, L. A. Burns, J. J. Wilke,
    M. L. Abrams, N. J. Russ, M. L. Leininger, C. L. Janssen, E. T. Seidl,
    W. D. Allen, H. F. Schaefer, R. A. King, E. F. Valeev, C. D. Sherrill,
    and T. D. Crawford, WIREs Comput. Mol. Sci. 2, 556-565 (2012)
    (doi: 10.1002/wcms.93)

                         Additional Contributions by
    A. E. DePrince, M. Saitow, U. Bozkaya, A. Yu. Sokolov
    -----------------------------------------------------------------------


    Psi4 started on: Tue Jul  5 16:27:32 2016

    Process ID:   6217
    PSI4DATADIR: /export131/home/mjharvey/miniconda3/share
    Memory level set to 256.000 MB

  ==> Input File <==

--------------------------------------------------------------------------
set {
	reference rhf
	basis 6-31G*
}


set_num_threads( 1 )
memory 2 gb

molecule MOL {
0 1

H	 -0.185418	 2.450629	 -0.592514
C	 0.660021	 1.774923	 -0.730146
N	 0.538815	 0.649616	 0.000000
O	 1.571051	 2.041767	 -1.456801
C	 1.521968	 -0.411503	 0.000000
H	 -0.272167	 0.550539	 0.566371
H	 2.150599	 -0.357004	 -0.881901
H	 0.999455	 -1.354525	 0.000000
H	 2.150599	 -0.357004	 0.881901

	symmetry c1
}
set optking {
	frozen_dihedral = ("
		1 2 3 6
	")
}

ee = energy('scf')
oeprop('DIPOLE', 'QUADRUPOLE', 'MULLIKEN_CHARGES')
f=open( 'psi4out.xyz', 'w' )
f.write( "9  " )
f.write( str(ee) + "\n" )
f.write( MOL.save_string_xyz() )
f.close()
--------------------------------------------------------------------------

  Memory set to   2.000 GiB by Python script.

*** tstart() called on cx1-1-4-3.cx1.hpc.ic.ac.uk
*** at Tue Jul  5 16:27:32 2016


         ---------------------------------------------------------
                                   SCF
            by Justin Turney, Rob Parrish, and Andy Simmonett
                              RHF Reference
                        1 Threads,   2000 MiB Core
         ---------------------------------------------------------

  ==> Geometry <==

    Molecular point group: c1
    Full point group: C1

    Geometry (in Angstrom), charge = 0, multiplicity = 1:

       Center              X                  Y                   Z               Mass       
    ------------   -----------------  -----------------  -----------------  -----------------
           H         -1.265056247946     1.450317858861    -0.048965965123     1.007825032070
           C         -0.419617247946     0.774611858861    -0.186597965123    12.000000000000
           N         -0.540823247946    -0.350695141139     0.543548034877    14.003074004780
           O          0.491412752054     1.041455858861    -0.913252965123    15.994914619560
           C          0.442329752054    -1.411814141139     0.543548034877    12.000000000000
           H         -1.351805247946    -0.449772141139     1.109919034877     1.007825032070
           H          1.070960752054    -1.357315141139    -0.338352965123     1.007825032070
           H         -0.080183247946    -2.354836141139     0.543548034877     1.007825032070
           H          1.070960752054    -1.357315141139     1.425449034877     1.007825032070

  Running in c1 symmetry.

  Rotational constants: A =      0.68421  B =      0.20539  C =      0.16273 [cm^-1]
  Rotational constants: A =  20512.01074  B =   6157.29020  C =   4878.66155 [MHz]
  Nuclear repulsion =  122.378390812728782

  Charge       = 0
  Multiplicity = 1
  Electrons    = 32
  Nalpha       = 16
  Nbeta        = 16

  ==> Algorithm <==

  SCF Algorithm Type is DF.
  DIIS enabled.
  MOM disabled.
  Fractional occupation disabled.
  Guess Type is CORE.
  Energy threshold   = 1.00e-06
  Density threshold  = 1.00e-06
  Integral threshold = 0.00e+00

  ==> Primary Basis <==

  Basis Set: 6-31G*
    Number of shells: 34
    Number of basis function: 70
    Number of Cartesian functions: 70
    Spherical Harmonics?: false
    Max angular momentum: 2

  ==> Pre-Iterations <==

   -------------------------------------------------------
    Irrep   Nso     Nmo     Nalpha   Nbeta   Ndocc  Nsocc
   -------------------------------------------------------
     A         70      70       0       0       0       0
   -------------------------------------------------------
    Total      70      70      16      16      16       0
   -------------------------------------------------------

 OEINTS: Overlap, kinetic, potential, dipole, and quadrupole integrals
         stored in file 35.

  ==> Integral Setup <==

  ==> DFJK: Density-Fitted J/K Matrices <==

    J tasked:                  Yes
    K tasked:                  Yes
    wK tasked:                  No
    OpenMP threads:              1
    Integrals threads:           1
    Memory (MB):              1430
    Algorithm:                Core
    Integral Cache:           NONE
    Schwarz Cutoff:          1E-12
    Fitting Condition:       1E-12

   => Auxiliary Basis Set <=

  Basis Set: 
    Number of shells: 141
    Number of basis function: 449
    Number of Cartesian functions: 449
    Spherical Harmonics?: false
    Max angular momentum: 3

  Minimum eigenvalue in the overlap matrix is 4.6178132619E-03.
  Using Symmetric Orthogonalization.
  SCF Guess: Core (One-Electron) Hamiltonian.

  ==> Iterations <==

                           Total Energy        Delta E     RMS |[F,P]|

   @DF-RHF iter   1:  -166.86914560265072   -1.66869e+02   9.45788e-02 
   @DF-RHF iter   2:  -130.45647938001909    3.64127e+01   8.32335e-02 DIIS
   @DF-RHF iter   3:  -190.14808521692814   -5.96916e+01   5.35886e-02 DIIS
   @DF-RHF iter   4:  -207.12883166304275   -1.69807e+01   1.87337e-02 DIIS
   @DF-RHF iter   5:  -207.89958885824629   -7.70757e-01   5.34591e-03 DIIS
   @DF-RHF iter   6:  -207.95817393159300   -5.85851e-02   8.87729e-04 DIIS
   @DF-RHF iter   7:  -207.96040091091365   -2.22698e-03   2.01128e-04 DIIS
   @DF-RHF iter   8:  -207.96058568524253   -1.84774e-04   6.66409e-05 DIIS
   @DF-RHF iter   9:  -207.96060285259287   -1.71674e-05   3.19121e-05 DIIS
   @DF-RHF iter  10:  -207.96060594376692   -3.09117e-06   1.89398e-05 DIIS
   @DF-RHF iter  11:  -207.96060730235317   -1.35859e-06   8.32195e-06 DIIS
   @DF-RHF iter  12:  -207.96060757277755   -2.70424e-07   1.51352e-06 DIIS
   @DF-RHF iter  13:  -207.96060758775914   -1.49816e-08   4.90649e-07 DIIS

  ==> Post-Iterations <==

    Orbital Energies (a.u.)
    -----------------------

    Doubly Occupied:                                                      

       1A    -20.524831     2A    -15.590944     3A    -11.343442  
       4A    -11.261229     5A     -1.388068     6A     -1.236552  
       7A     -0.969328     8A     -0.806734     9A     -0.745966  
      10A     -0.641559    11A     -0.627167    12A     -0.592294  
      13A     -0.556205    14A     -0.536205    15A     -0.422907  
      16A     -0.390068  

    Virtual:                                                              

      17A      0.213214    18A      0.220813    19A      0.266322  
      20A      0.295683    21A      0.318097    22A      0.329176  
      23A      0.386101    24A      0.443582    25A      0.564363  
      26A      0.714123    27A      0.722565    28A      0.777682  
      29A      0.812053    30A      0.842978    31A      0.951125  
      32A      0.996041    33A      1.023286    34A      1.078438  
      35A      1.091681    36A      1.117801    37A      1.146123  
      38A      1.184211    39A      1.201852    40A      1.222310  
      41A      1.312434    42A      1.331046    43A      1.421023  
      44A      1.573240    45A      1.611443    46A      1.632205  
      47A      1.723920    48A      1.802971    49A      1.864646  
      50A      2.061214    51A      2.129344    52A      2.165008  
      53A      2.213502    54A      2.331163    55A      2.368816  
      56A      2.438475    57A      2.550349    58A      2.633000  
      59A      2.675081    60A      2.696415    61A      2.818909  
      62A      2.937050    63A      3.040105    64A      3.122988  
      65A      3.328158    66A      3.493247    67A      4.244787  
      68A      4.397916    69A      4.582521    70A      4.734976  

    Final Occupation by Irrep:
              A 
    DOCC [    16 ]

  Energy converged.

  @DF-RHF Final Energy:  -207.96060758775914

   => Energetics <=

    Nuclear Repulsion Energy =            122.3783908127287816
    One-Electron Energy =                -525.4110265106208999
    Two-Electron Energy =                 195.0720281101330897
    DFT Exchange-Correlation Energy =       0.0000000000000000
    Empirical Dispersion Energy =           0.0000000000000000
    PCM Polarization Energy =               0.0000000000000000
    EFP Energy =                            0.0000000000000000
    Total Energy =                       -207.9606075877590570

    Alert: EFP and PCM quantities not currently incorporated into SCF psivars.

Properties will be evaluated at   0.000000,   0.000000,   0.000000 Bohr
  ==> Properties <==


Properties computed using the SCF density matrix

  Nuclear Dipole Moment: (a.u.)
     X:    -0.5165      Y:    -3.8085      Z:     2.5173

  Electronic Dipole Moment: (a.u.)
     X:    -0.4327      Y:     3.0135      Z:    -1.4884

  Dipole Moment: (a.u.)
     X:    -0.9492      Y:    -0.7950      Z:     1.0289     Total:     1.6099

  Dipole Moment: (Debye)
     X:    -2.4126      Y:    -2.0206      Z:     2.6152     Total:     4.0918


  Saving occupied orbitals to File 180.

*** tstop() called on cx1-1-4-3.cx1.hpc.ic.ac.uk at Tue Jul  5 16:27:35 2016
Module time:
	user time   =       2.37 seconds =       0.04 minutes
	system time =       0.04 seconds =       0.00 minutes
	total time  =          3 seconds =       0.05 minutes
Total time:
	user time   =       2.37 seconds =       0.04 minutes
	system time =       0.04 seconds =       0.00 minutes
	total time  =          3 seconds =       0.05 minutes


Properties will be evaluated at   0.000000,   0.000000,   0.000000 Bohr

Properties computed using the  density matrix

  Nuclear Dipole Moment: (a.u.)
     X:    -0.5165      Y:    -3.8085      Z:     2.5173

  Electronic Dipole Moment: (a.u.)
     X:    -0.4327      Y:     3.0135      Z:    -1.4884

  Dipole Moment: (a.u.)
     X:    -0.9492      Y:    -0.7950      Z:     1.0289     Total:     1.6099

  Dipole Moment: (Debye)
     X:    -2.4126      Y:    -2.0206      Z:     2.6152     Total:     4.0918

  Quadrupole Moment: (Debye Ang)
    XX:   -22.3113     YY:   -23.9529     ZZ:   -25.4905
    XY:    -2.7073     XZ:    -0.0340     YZ:     1.3958

  Traceless Quadrupole Moment: (Debye Ang)
    XX:     1.6069     YY:    -0.0347     ZZ:    -1.5723
    XY:    -2.7073     XZ:    -0.0340     YZ:     1.3958

  Mulliken Charges: (a.u.)
   Center  Symbol    Alpha    Beta     Spin     Total
       1     H     0.42840  0.42840  0.00000  0.14320
       2     C     2.74481  2.74481  0.00000  0.51037
       3     N     3.87550  3.87550  0.00000 -0.75100
       4     O     4.28415  4.28415  0.00000 -0.56829
       5     C     3.14174  3.14174  0.00000 -0.28349
       6     H     0.30878  0.30878  0.00000  0.38243
       7     H     0.38918  0.38918  0.00000  0.22164
       8     H     0.41492  0.41492  0.00000  0.17017
       9     H     0.41251  0.41251  0.00000  0.17497

   Total alpha = 16.00000, Total beta = 16.00000, Total charge =  0.00000


*** PSI4 exiting successfully. Buy a developer a beer!
