    -----------------------------------------------------------------------
          Psi4: An Open-Source Ab Initio Electronic Structure Package
                              Psi4 (no tag) Driver

                          Git: Rev {detached?}  

    J. M. Turney, A. C. Simmonett, R. M. Parrish, E. G. Hohenstein,
    F. A. Evangelista, J. T. Fermann, B. J. Mintz, L. A. Burns, J. J. Wilke,
    M. L. Abrams, N. J. Russ, M. L. Leininger, C. L. Janssen, E. T. Seidl,
    W. D. Allen, H. F. Schaefer, R. A. King, E. F. Valeev, C. D. Sherrill,
    and T. D. Crawford, WIREs Comput. Mol. Sci. 2, 556-565 (2012)
    (doi: 10.1002/wcms.93)

                         Additional Contributions by
    A. E. DePrince, M. Saitow, U. Bozkaya, A. Yu. Sokolov
    -----------------------------------------------------------------------


    Psi4 started on: Tue Jul  5 16:22:50 2016

    Process ID:  25832
    PSI4DATADIR: /export131/home/mjharvey/miniconda3/share
    Memory level set to 256.000 MB

  ==> Input File <==

--------------------------------------------------------------------------
set {
	reference rhf
	basis 6-31G*
}


set_num_threads( 1 )
memory 2 gb

molecule MOL {
0 1

H	 -0.367348	 2.047014	 -0.308205
C	 0.352277	 1.337084	 0.083769
N	 -0.000016	 0.000074	 -0.335546
H	 1.328359	 1.600444	 -0.307950
H	 0.381933	 1.450534	 1.172486
C	 1.163593	 -0.775958	 -0.698945
C	 -0.815238	 -0.676922	 0.646923
H	 0.856363	 -1.745348	 -1.074771
H	 1.711216	 -0.270876	 -1.486640
H	 1.848585	 -0.938873	 0.139582
H	 -1.712089	 -0.099742	 0.841590
H	 -1.118176	 -1.646656	 0.268394
H	 -0.298077	 -0.831153	 1.599649

	symmetry c1
}
ee = energy('scf')
oeprop('DIPOLE', 'QUADRUPOLE', 'MULLIKEN_CHARGES')
f=open( 'psi4out.xyz', 'w' )
f.write( "13  " )
f.write( str(ee) + "\n" )
f.write( MOL.save_string_xyz() )
f.close()
--------------------------------------------------------------------------

  Memory set to   2.000 GiB by Python script.

*** tstart() called on cx1-3-1-3.cx1.hpc.ic.ac.uk
*** at Tue Jul  5 16:22:50 2016


         ---------------------------------------------------------
                                   SCF
            by Justin Turney, Rob Parrish, and Andy Simmonett
                              RHF Reference
                        1 Threads,   2000 MiB Core
         ---------------------------------------------------------

  ==> Geometry <==

    Molecular point group: c1
    Full point group: C1

    Geometry (in Angstrom), charge = 0, multiplicity = 1:

       Center              X                  Y                   Z               Mass       
    ------------   -----------------  -----------------  -----------------  -----------------
           H         -0.554550585109     2.077934344850    -0.249515890196     1.007825032070
           C          0.165074414891     1.368004344850     0.142458109804    12.000000000000
           N         -0.187218585109     0.030994344850    -0.276856890196    14.003074004780
           H          1.141156414891     1.631364344850    -0.249260890196     1.007825032070
           H          0.194730414891     1.481454344850     1.231175109804     1.007825032070
           C          0.976390414891    -0.745037655150    -0.640255890196    12.000000000000
           C         -1.002440585109    -0.646001655150     0.705612109804    12.000000000000
           H          0.669160414891    -1.714427655150    -1.016081890196     1.007825032070
           H          1.524013414891    -0.239955655150    -1.427950890196     1.007825032070
           H          1.661382414891    -0.907952655150     0.198271109804     1.007825032070
           H         -1.899291585109    -0.068821655150     0.900279109804     1.007825032070
           H         -1.305378585109    -1.615735655150     0.327083109804     1.007825032070
           H         -0.485279585109    -0.800232655150     1.658338109804     1.007825032070

  Running in c1 symmetry.

  Rotational constants: A =      0.29348  B =      0.29337  C =      0.16559 [cm^-1]
  Rotational constants: A =   8798.35715  B =   8794.96002  C =   4964.19380 [MHz]
  Nuclear repulsion =  139.319274023632687

  Charge       = 0
  Multiplicity = 1
  Electrons    = 34
  Nalpha       = 17
  Nbeta        = 17

  ==> Algorithm <==

  SCF Algorithm Type is DF.
  DIIS enabled.
  MOM disabled.
  Fractional occupation disabled.
  Guess Type is CORE.
  Energy threshold   = 1.00e-06
  Density threshold  = 1.00e-06
  Integral threshold = 0.00e+00

  ==> Primary Basis <==

  Basis Set: 6-31G*
    Number of shells: 42
    Number of basis function: 78
    Number of Cartesian functions: 78
    Spherical Harmonics?: false
    Max angular momentum: 2

  ==> Pre-Iterations <==

   -------------------------------------------------------
    Irrep   Nso     Nmo     Nalpha   Nbeta   Ndocc  Nsocc
   -------------------------------------------------------
     A         78      78       0       0       0       0
   -------------------------------------------------------
    Total      78      78      17      17      17       0
   -------------------------------------------------------

 OEINTS: Overlap, kinetic, potential, dipole, and quadrupole integrals
         stored in file 35.

  ==> Integral Setup <==

  ==> DFJK: Density-Fitted J/K Matrices <==

    J tasked:                  Yes
    K tasked:                  Yes
    wK tasked:                  No
    OpenMP threads:              1
    Integrals threads:           1
    Memory (MB):              1430
    Algorithm:                Core
    Integral Cache:           NONE
    Schwarz Cutoff:          1E-12
    Fitting Condition:       1E-12

   => Auxiliary Basis Set <=

  Basis Set: 
    Number of shells: 177
    Number of basis function: 549
    Number of Cartesian functions: 549
    Spherical Harmonics?: false
    Max angular momentum: 3

  Minimum eigenvalue in the overlap matrix is 6.1894164373E-03.
  Using Symmetric Orthogonalization.
  SCF Guess: Core (One-Electron) Hamiltonian.

  ==> Iterations <==

                           Total Energy        Delta E     RMS |[F,P]|

   @DF-RHF iter   1:  -136.62183872934227   -1.36622e+02   8.44216e-02 
   @DF-RHF iter   2:  -146.70764182028645   -1.00858e+01   5.28113e-02 DIIS
   @DF-RHF iter   3:  -169.40730639500939   -2.26997e+01   3.71432e-02 DIIS
   @DF-RHF iter   4:  -172.17423735690559   -2.76693e+00   1.92455e-02 DIIS
   @DF-RHF iter   5:  -173.22469739244659   -1.05046e+00   3.42706e-03 DIIS
   @DF-RHF iter   6:  -173.26201391577993   -3.73165e-02   9.32055e-04 DIIS
   @DF-RHF iter   7:  -173.26426451980367   -2.25060e-03   1.02680e-04 DIIS
   @DF-RHF iter   8:  -173.26432937117616   -6.48514e-05   3.86483e-05 DIIS
   @DF-RHF iter   9:  -173.26433594227800   -6.57110e-06   8.25463e-06 DIIS
   @DF-RHF iter  10:  -173.26433640483364   -4.62556e-07   2.33398e-06 DIIS
   @DF-RHF iter  11:  -173.26433643191328   -2.70796e-08   7.10361e-07 DIIS

  ==> Post-Iterations <==

    Orbital Energies (a.u.)
    -----------------------

    Doubly Occupied:                                                      

       1A    -15.541390     2A    -11.235718     3A    -11.235509  
       4A    -11.234527     5A     -1.224780     6A     -0.951962  
       7A     -0.950655     8A     -0.806634     9A     -0.639924  
      10A     -0.631210    11A     -0.627754    12A     -0.549834  
      13A     -0.545757    14A     -0.514808    15A     -0.499891  
      16A     -0.498651    17A     -0.344267  

    Virtual:                                                              

      18A      0.227262    19A      0.294224    20A      0.301352  
      21A      0.305001    22A      0.308970    23A      0.324537  
      24A      0.335203    25A      0.340332    26A      0.356801  
      27A      0.375740    28A      0.436339    29A      0.459723  
      30A      0.722854    31A      0.755441    32A      0.759393  
      33A      0.779938    34A      0.811042    35A      0.854888  
      36A      0.919026    37A      0.939860    38A      1.008373  
      39A      1.086710    40A      1.109411    41A      1.131993  
      42A      1.140155    43A      1.156065    44A      1.162144  
      45A      1.185142    46A      1.206870    47A      1.249196  
      48A      1.258883    49A      1.262375    50A      1.273674  
      51A      1.301578    52A      1.611237    53A      1.623476  
      54A      1.646505    55A      1.731912    56A      1.754983  
      57A      2.080414    58A      2.209866    59A      2.241089  
      60A      2.276066    61A      2.342204    62A      2.374621  
      63A      2.442095    64A      2.462313    65A      2.492741  
      66A      2.568937    67A      2.594299    68A      2.614981  
      69A      2.634396    70A      2.878214    71A      2.964221  
      72A      2.968911    73A      3.152756    74A      3.169012  
      75A      4.473398    76A      4.673730    77A      4.687758  
      78A      4.791275  

    Final Occupation by Irrep:
              A 
    DOCC [    17 ]

  Energy converged.

  @DF-RHF Final Energy:  -173.26433643191328

   => Energetics <=

    Nuclear Repulsion Energy =            139.3192740236326870
    One-Electron Energy =                -509.1008309763684565
    Two-Electron Energy =                 196.5172205208222351
    DFT Exchange-Correlation Energy =       0.0000000000000000
    Empirical Dispersion Energy =           0.0000000000000000
    PCM Polarization Energy =               0.0000000000000000
    EFP Energy =                            0.0000000000000000
    Total Energy =                       -173.2643364319135060

    Alert: EFP and PCM quantities not currently incorporated into SCF psivars.

Properties will be evaluated at   0.000000,   0.000000,   0.000000 Bohr
  ==> Properties <==


Properties computed using the SCF density matrix

  Nuclear Dipole Moment: (a.u.)
     X:     0.8873      Y:    -0.1467      Z:     1.2873

  Electronic Dipole Moment: (a.u.)
     X:    -0.6859      Y:     0.1230      Z:    -1.0288

  Dipole Moment: (a.u.)
     X:     0.2014      Y:    -0.0237      Z:     0.2586     Total:     0.3286

  Dipole Moment: (Debye)
     X:     0.5119      Y:    -0.0602      Z:     0.6572     Total:     0.8352


  Saving occupied orbitals to File 180.

*** tstop() called on cx1-3-1-3.cx1.hpc.ic.ac.uk at Tue Jul  5 16:22:53 2016
Module time:
	user time   =       2.91 seconds =       0.05 minutes
	system time =       0.04 seconds =       0.00 minutes
	total time  =          3 seconds =       0.05 minutes
Total time:
	user time   =       2.91 seconds =       0.05 minutes
	system time =       0.04 seconds =       0.00 minutes
	total time  =          3 seconds =       0.05 minutes


Properties will be evaluated at   0.000000,   0.000000,   0.000000 Bohr

Properties computed using the  density matrix

  Nuclear Dipole Moment: (a.u.)
     X:     0.8873      Y:    -0.1467      Z:     1.2873

  Electronic Dipole Moment: (a.u.)
     X:    -0.6859      Y:     0.1230      Z:    -1.0288

  Dipole Moment: (a.u.)
     X:     0.2014      Y:    -0.0237      Z:     0.2586     Total:     0.3286

  Dipole Moment: (Debye)
     X:     0.5119      Y:    -0.0602      Z:     0.6572     Total:     0.8352

  Quadrupole Moment: (Debye Ang)
    XX:   -27.1530     YY:   -26.3559     ZZ:   -28.4894
    XY:     0.3546     XZ:    -1.4524     YZ:     0.2758

  Traceless Quadrupole Moment: (Debye Ang)
    XX:     0.1798     YY:     0.9769     ZZ:    -1.1567
    XY:     0.3546     XZ:    -1.4524     YZ:     0.2758

  Mulliken Charges: (a.u.)
   Center  Symbol    Alpha    Beta     Spin     Total
       1     H     0.41523  0.41523  0.00000  0.16953
       2     C     3.14429  3.14429  0.00000 -0.28857
       3     N     3.76561  3.76561  0.00000 -0.53123
       4     H     0.41986  0.41986  0.00000  0.16027
       5     H     0.42991  0.42991  0.00000  0.14017
       6     C     3.14380  3.14380  0.00000 -0.28759
       7     C     3.14370  3.14370  0.00000 -0.28740
       8     H     0.41764  0.41764  0.00000  0.16473
       9     H     0.41624  0.41624  0.00000  0.16753
      10     H     0.43559  0.43559  0.00000  0.12881
      11     H     0.41604  0.41604  0.00000  0.16792
      12     H     0.41726  0.41726  0.00000  0.16548
      13     H     0.43483  0.43483  0.00000  0.13034

   Total alpha = 17.00000, Total beta = 17.00000, Total charge = -0.00000


*** PSI4 exiting successfully. Buy a developer a beer!
