    -----------------------------------------------------------------------
          Psi4: An Open-Source Ab Initio Electronic Structure Package
                              Psi4 (no tag) Driver

                          Git: Rev {detached?}  

    J. M. Turney, A. C. Simmonett, R. M. Parrish, E. G. Hohenstein,
    F. A. Evangelista, J. T. Fermann, B. J. Mintz, L. A. Burns, J. J. Wilke,
    M. L. Abrams, N. J. Russ, M. L. Leininger, C. L. Janssen, E. T. Seidl,
    W. D. Allen, H. F. Schaefer, R. A. King, E. F. Valeev, C. D. Sherrill,
    and T. D. Crawford, WIREs Comput. Mol. Sci. 2, 556-565 (2012)
    (doi: 10.1002/wcms.93)

                         Additional Contributions by
    A. E. DePrince, M. Saitow, U. Bozkaya, A. Yu. Sokolov
    -----------------------------------------------------------------------


    Psi4 started on: Tue Jul  5 16:28:11 2016

    Process ID:  28056
    PSI4DATADIR: /export131/home/mjharvey/miniconda3/share
    Memory level set to 256.000 MB

  ==> Input File <==

--------------------------------------------------------------------------
set {
	reference rhf
	basis 6-31G*
}


set_num_threads( 1 )
memory 2 gb

molecule MOL {
0 1

H	 -2.269199	 -1.310498	 -1.456580
C	 -1.568767	 -0.785145	 -0.837867
C	 -1.961105	 0.348966	 -0.052127
C	 -0.287999	 -1.171114	 -0.774020
H	 -2.982971	 0.683547	 -0.081977
C	 -1.067053	 0.989968	 0.714196
H	 0.085552	 -2.009510	 -1.330758
N	 0.640212	 -0.532897	 -0.000111
H	 -1.323902	 1.840828	 1.314547
C	 0.326569	 0.569740	 0.783532
C	 2.010177	 -1.032049	 0.000042
O	 1.160511	 1.118799	 1.459757
H	 2.187698	 -1.635381	 -0.882279
H	 2.677579	 -0.189247	 -0.001871
H	 2.188882	 -1.632203	 0.884288

	symmetry c1
}
ee = energy('scf')
oeprop('DIPOLE', 'QUADRUPOLE', 'MULLIKEN_CHARGES')
f=open( 'psi4out.xyz', 'w' )
f.write( "15  " )
f.write( str(ee) + "\n" )
f.write( MOL.save_string_xyz() )
f.close()
--------------------------------------------------------------------------

  Memory set to   2.000 GiB by Python script.

*** tstart() called on cx1-3-2-3.cx1.hpc.ic.ac.uk
*** at Tue Jul  5 16:28:12 2016


         ---------------------------------------------------------
                                   SCF
            by Justin Turney, Rob Parrish, and Andy Simmonett
                              RHF Reference
                        1 Threads,   2000 MiB Core
         ---------------------------------------------------------

  ==> Geometry <==

    Molecular point group: c1
    Full point group: C1

    Geometry (in Angstrom), charge = 0, multiplicity = 1:

       Center              X                  Y                   Z               Mass       
    ------------   -----------------  -----------------  -----------------  -----------------
           H         -2.246431341077    -1.248065384142    -1.638009708988     1.007825032070
           C         -1.545999341077    -0.722712384142    -1.019296708988    12.000000000000
           C         -1.938337341077     0.411398615858    -0.233556708988    12.000000000000
           C         -0.265231341077    -1.108681384142    -0.955449708988    12.000000000000
           H         -2.960203341077     0.745979615858    -0.263406708988     1.007825032070
           C         -1.044285341077     1.052400615858     0.532766291012    12.000000000000
           H          0.108319658923    -1.947077384142    -1.512187708988     1.007825032070
           N          0.662979658923    -0.470464384142    -0.181540708988    14.003074004780
           H         -1.301134341077     1.903260615858     1.133117291012     1.007825032070
           C          0.349336658923     0.632172615858     0.602102291012    12.000000000000
           C          2.032944658923    -0.969616384142    -0.181387708988    12.000000000000
           O          1.183278658923     1.181231615858     1.278327291012    15.994914619560
           H          2.210465658923    -1.572948384142    -1.063708708988     1.007825032070
           H          2.700346658923    -0.126814384142    -0.183300708988     1.007825032070
           H          2.211649658923    -1.569770384142     0.702858291012     1.007825032070

  Running in c1 symmetry.

  Rotational constants: A =      0.11492  B =      0.07866  C =      0.04710 [cm^-1]
  Rotational constants: A =   3445.17141  B =   2358.02861  C =   1412.15315 [MHz]
  Nuclear repulsion =  357.506513435395334

  Charge       = 0
  Multiplicity = 1
  Electrons    = 58
  Nalpha       = 29
  Nbeta        = 29

  ==> Algorithm <==

  SCF Algorithm Type is DF.
  DIIS enabled.
  MOM disabled.
  Fractional occupation disabled.
  Guess Type is CORE.
  Energy threshold   = 1.00e-06
  Density threshold  = 1.00e-06
  Integral threshold = 0.00e+00

  ==> Primary Basis <==

  Basis Set: 6-31G*
    Number of shells: 62
    Number of basis function: 134
    Number of Cartesian functions: 134
    Spherical Harmonics?: false
    Max angular momentum: 2

  ==> Pre-Iterations <==

   -------------------------------------------------------
    Irrep   Nso     Nmo     Nalpha   Nbeta   Ndocc  Nsocc
   -------------------------------------------------------
     A        134     134       0       0       0       0
   -------------------------------------------------------
    Total     134     134      29      29      29       0
   -------------------------------------------------------

 OEINTS: Overlap, kinetic, potential, dipole, and quadrupole integrals
         stored in file 35.

  ==> Integral Setup <==

  ==> DFJK: Density-Fitted J/K Matrices <==

    J tasked:                  Yes
    K tasked:                  Yes
    wK tasked:                  No
    OpenMP threads:              1
    Integrals threads:           1
    Memory (MB):              1430
    Algorithm:                Core
    Integral Cache:           NONE
    Schwarz Cutoff:          1E-12
    Fitting Condition:       1E-12

   => Auxiliary Basis Set <=

  Basis Set: 
    Number of shells: 255
    Number of basis function: 823
    Number of Cartesian functions: 823
    Spherical Harmonics?: false
    Max angular momentum: 3

  Minimum eigenvalue in the overlap matrix is 7.0488506424E-04.
  Using Symmetric Orthogonalization.
  SCF Guess: Core (One-Electron) Hamiltonian.

  ==> Iterations <==

                           Total Energy        Delta E     RMS |[F,P]|

   @DF-RHF iter   1:  -284.70738007866879   -2.84707e+02   6.98775e-02 
   @DF-RHF iter   2:  -277.33886855175098    7.36851e+00   5.28153e-02 DIIS
   @DF-RHF iter   3:  -320.95374699521295   -4.36149e+01   5.10986e-02 DIIS
   @DF-RHF iter   4:  -355.98569748603319   -3.50320e+01   1.84222e-02 DIIS
   @DF-RHF iter   5:  -358.50843317357118   -2.52274e+00   1.38395e-02 DIIS
   @DF-RHF iter   6:  -360.52147341537335   -2.01304e+00   2.10363e-03 DIIS
   @DF-RHF iter   7:  -360.58333042349165   -6.18570e-02   8.04759e-04 DIIS
   @DF-RHF iter   8:  -360.59201259524031   -8.68217e-03   3.50708e-04 DIIS
   @DF-RHF iter   9:  -360.59476566292739   -2.75307e-03   1.99260e-04 DIIS
   @DF-RHF iter  10:  -360.59580015920966   -1.03450e-03   6.55209e-05 DIIS
   @DF-RHF iter  11:  -360.59591916870130   -1.19009e-04   1.94262e-05 DIIS
   @DF-RHF iter  12:  -360.59593005584617   -1.08871e-05   1.13210e-05 DIIS
   @DF-RHF iter  13:  -360.59593306490746   -3.00906e-06   3.79062e-06 DIIS
   @DF-RHF iter  14:  -360.59593351163500   -4.46728e-07   9.87393e-07 DIIS

  ==> Post-Iterations <==

    Orbital Energies (a.u.)
    -----------------------

    Doubly Occupied:                                                      

       1A    -20.509566     2A    -15.622480     3A    -11.343055  
       4A    -11.296864     5A    -11.267770     6A    -11.259886  
       7A    -11.232722     8A    -11.228546     9A     -1.384117  
      10A     -1.281840    11A     -1.114592    12A     -1.025635  
      13A     -0.971083    14A     -0.872660    15A     -0.835565  
      16A     -0.715017    17A     -0.696846    18A     -0.662146  
      19A     -0.649389    20A     -0.621650    21A     -0.606872  
      22A     -0.574472    23A     -0.550910    24A     -0.546276  
      25A     -0.527902    26A     -0.477347    27A     -0.414011  
      28A     -0.405799    29A     -0.304594  

    Virtual:                                                              

      30A      0.111816    31A      0.180625    32A      0.226532  
      33A      0.252478    34A      0.280265    35A      0.308855  
      36A      0.312205    37A      0.325137    38A      0.331774  
      39A      0.343529    40A      0.367177    41A      0.433652  
      42A      0.468361    43A      0.483668    44A      0.508312  
      45A      0.535306    46A      0.635779    47A      0.690461  
      48A      0.694914    49A      0.731824    50A      0.750834  
      51A      0.755529    52A      0.792470    53A      0.802827  
      54A      0.809515    55A      0.821402    56A      0.844021  
      57A      0.859281    58A      0.894378    59A      0.938273  
      60A      0.956824    61A      0.977485    62A      1.001225  
      63A      1.030534    64A      1.067398    65A      1.100346  
      66A      1.112208    67A      1.127070    68A      1.144111  
      69A      1.170440    70A      1.173220    71A      1.194885  
      72A      1.208247    73A      1.225241    74A      1.251001  
      75A      1.291724    76A      1.311702    77A      1.359462  
      78A      1.405607    79A      1.453129    80A      1.470436  
      81A      1.483096    82A      1.519081    83A      1.609998  
      84A      1.653022    85A      1.681323    86A      1.704130  
      87A      1.718774    88A      1.744089    89A      1.766882  
      90A      1.769233    91A      1.945861    92A      2.005691  
      93A      2.070252    94A      2.114041    95A      2.174527  
      96A      2.187043    97A      2.210128    98A      2.245173  
      99A      2.252965   100A      2.287584   101A      2.325642  
     102A      2.351631   103A      2.364358   104A      2.439353  
     105A      2.445258   106A      2.497269   107A      2.504410  
     108A      2.553905   109A      2.604264   110A      2.646772  
     111A      2.677684   112A      2.700295   113A      2.709240  
     114A      2.742051   115A      2.922188   116A      2.949527  
     117A      3.019362   118A      3.035049   119A      3.048537  
     120A      3.098036   121A      3.166331   122A      3.201543  
     123A      3.257506   124A      3.405711   125A      3.602400  
     126A      3.820430   127A      4.452624   128A      4.501319  
     129A      4.555700   130A      4.646881   131A      4.693829  
     132A      4.763133   133A      4.926184   134A      5.153600  

    Final Occupation by Irrep:
              A 
    DOCC [    29 ]

  Energy converged.

  @DF-RHF Final Energy:  -360.59593351163500

   => Energetics <=

    Nuclear Repulsion Energy =            357.5065134353953340
    One-Electron Energy =               -1198.2057984544903775
    Two-Electron Energy =                 480.1033515074601610
    DFT Exchange-Correlation Energy =       0.0000000000000000
    Empirical Dispersion Energy =           0.0000000000000000
    PCM Polarization Energy =               0.0000000000000000
    EFP Energy =                            0.0000000000000000
    Total Energy =                       -360.5959335116348257

    Alert: EFP and PCM quantities not currently incorporated into SCF psivars.

Properties will be evaluated at   0.000000,   0.000000,   0.000000 Bohr
  ==> Properties <==


Properties computed using the SCF density matrix

  Nuclear Dipole Moment: (a.u.)
     X:     0.6816      Y:    -3.5698      Z:    -2.6413

  Electronic Dipole Moment: (a.u.)
     X:    -1.2778      Y:     2.3897      Z:     1.5110

  Dipole Moment: (a.u.)
     X:    -0.5962      Y:    -1.1802      Z:    -1.1303     Total:     1.7395

  Dipole Moment: (Debye)
     X:    -1.5155      Y:    -2.9996      Z:    -2.8730     Total:     4.4214


  Saving occupied orbitals to File 180.

*** tstop() called on cx1-3-2-3.cx1.hpc.ic.ac.uk at Tue Jul  5 16:28:25 2016
Module time:
	user time   =      12.80 seconds =       0.21 minutes
	system time =       0.06 seconds =       0.00 minutes
	total time  =         13 seconds =       0.22 minutes
Total time:
	user time   =      12.80 seconds =       0.21 minutes
	system time =       0.06 seconds =       0.00 minutes
	total time  =         13 seconds =       0.22 minutes


Properties will be evaluated at   0.000000,   0.000000,   0.000000 Bohr

Properties computed using the  density matrix

  Nuclear Dipole Moment: (a.u.)
     X:     0.6816      Y:    -3.5698      Z:    -2.6413

  Electronic Dipole Moment: (a.u.)
     X:    -1.2778      Y:     2.3897      Z:     1.5110

  Dipole Moment: (a.u.)
     X:    -0.5962      Y:    -1.1802      Z:    -1.1303     Total:     1.7395

  Dipole Moment: (Debye)
     X:    -1.5155      Y:    -2.9996      Z:    -2.8730     Total:     4.4214

  Quadrupole Moment: (Debye Ang)
    XX:   -42.4087     YY:   -46.5221     ZZ:   -49.7652
    XY:    -6.1824     XZ:    -3.2224     YZ:     0.1344

  Traceless Quadrupole Moment: (Debye Ang)
    XX:     3.8233     YY:    -0.2901     ZZ:    -3.5332
    XY:    -6.1824     XZ:    -3.2224     YZ:     0.1344

  Mulliken Charges: (a.u.)
   Center  Symbol    Alpha    Beta     Spin     Total
       1     H     0.39311  0.39311  0.00000  0.21378
       2     C     3.16163  3.16163  0.00000 -0.32327
       3     C     3.05836  3.05836  0.00000 -0.11672
       4     C     2.92260  2.92260  0.00000  0.15480
       5     H     0.39097  0.39097  0.00000  0.21807
       6     C     3.17022  3.17022  0.00000 -0.34043
       7     H     0.38790  0.38790  0.00000  0.22420
       8     N     3.86485  3.86485  0.00000 -0.72971
       9     H     0.38650  0.38650  0.00000  0.22701
      10     C     2.59486  2.59486  0.00000  0.81028
      11     C     3.14294  3.14294  0.00000 -0.28589
      12     O     4.32039  4.32039  0.00000 -0.64078
      13     H     0.41390  0.41390  0.00000  0.17219
      14     H     0.38845  0.38845  0.00000  0.22310
      15     H     0.40332  0.40332  0.00000  0.19337

   Total alpha = 29.00000, Total beta = 29.00000, Total charge = -0.00000


*** PSI4 exiting successfully. Buy a developer a beer!
