    -----------------------------------------------------------------------
          Psi4: An Open-Source Ab Initio Electronic Structure Package
                              Psi4 (no tag) Driver

                          Git: Rev {detached?}  

    J. M. Turney, A. C. Simmonett, R. M. Parrish, E. G. Hohenstein,
    F. A. Evangelista, J. T. Fermann, B. J. Mintz, L. A. Burns, J. J. Wilke,
    M. L. Abrams, N. J. Russ, M. L. Leininger, C. L. Janssen, E. T. Seidl,
    W. D. Allen, H. F. Schaefer, R. A. King, E. F. Valeev, C. D. Sherrill,
    and T. D. Crawford, WIREs Comput. Mol. Sci. 2, 556-565 (2012)
    (doi: 10.1002/wcms.93)

                         Additional Contributions by
    A. E. DePrince, M. Saitow, U. Bozkaya, A. Yu. Sokolov
    -----------------------------------------------------------------------


    Psi4 started on: Tue Jul  5 16:24:59 2016

    Process ID:  19826
    PSI4DATADIR: /export131/home/mjharvey/miniconda3/share
    Memory level set to 256.000 MB

  ==> Input File <==

--------------------------------------------------------------------------
set {
	reference rhf
	basis 6-31G*
}


set_num_threads( 1 )
memory 2 gb

molecule MOL {
0 1

H	 -2.273092	 1.173159	 0.000295
O	 -1.438904	 1.618192	 0.000114
C	 -0.409536	 0.736003	 0.000030
C	 0.856465	 1.257803	 0.214889
C	 -0.597734	 -0.629220	 -0.204152
H	 0.956878	 2.316326	 0.367983
C	 1.954539	 0.419020	 0.228544
C	 0.524137	 -1.448998	 -0.185215
C	 -1.979826	 -1.196568	 -0.438555
H	 2.934089	 0.830124	 0.395782
C	 1.793924	 -0.942587	 0.028034
H	 0.395555	 -2.506083	 -0.341365
H	 -2.445602	 -0.778390	 -1.328568
H	 -1.934550	 -2.269336	 -0.576740
H	 -2.644268	 -1.009706	 0.402633
H	 2.643488	 -1.600884	 0.037343

	symmetry c1
}
ee = energy('scf')
oeprop('DIPOLE', 'QUADRUPOLE', 'MULLIKEN_CHARGES')
f=open( 'psi4out.xyz', 'w' )
f.write( "16  " )
f.write( str(ee) + "\n" )
f.write( MOL.save_string_xyz() )
f.close()
--------------------------------------------------------------------------

  Memory set to   2.000 GiB by Python script.

*** tstart() called on cx1-3-15-2.cx1.hpc.ic.ac.uk
*** at Tue Jul  5 16:24:59 2016


         ---------------------------------------------------------
                                   SCF
            by Justin Turney, Rob Parrish, and Andy Simmonett
                              RHF Reference
                        1 Threads,   2000 MiB Core
         ---------------------------------------------------------

  ==> Geometry <==

    Molecular point group: c1
    Full point group: C1

    Geometry (in Angstrom), charge = 0, multiplicity = 1:

       Center              X                  Y                   Z               Mass       
    ------------   -----------------  -----------------  -----------------  -----------------
           H         -2.275891005655     1.169888489167     0.049584235032     1.007825032070
           O         -1.441703005655     1.614921489167     0.049403235032    15.994914619560
           C         -0.412335005655     0.732732489167     0.049319235032    12.000000000000
           C          0.853665994345     1.254532489167     0.264178235032    12.000000000000
           C         -0.600533005655    -0.632490510833    -0.154862764968    12.000000000000
           H          0.954078994345     2.313055489167     0.417272235032     1.007825032070
           C          1.951739994345     0.415749489167     0.277833235032    12.000000000000
           C          0.521337994345    -1.452268510833    -0.135925764968    12.000000000000
           C         -1.982625005655    -1.199838510833    -0.389265764968    12.000000000000
           H          2.931289994345     0.826853489167     0.445071235032     1.007825032070
           C          1.791124994345    -0.945857510833     0.077323235032    12.000000000000
           H          0.392755994345    -2.509353510833    -0.292075764968     1.007825032070
           H         -2.448401005655    -0.781660510833    -1.279278764968     1.007825032070
           H         -1.937349005655    -2.272606510833    -0.527450764968     1.007825032070
           H         -2.647067005655    -1.012976510833     0.451922235032     1.007825032070
           H          2.640688994345    -1.604154510833     0.086632235032     1.007825032070

  Running in c1 symmetry.

  Rotational constants: A =      0.10937  B =      0.07438  C =      0.04464 [cm^-1]
  Rotational constants: A =   3278.83202  B =   2229.85006  C =   1338.33766 [MHz]
  Nuclear repulsion =  350.145104781063083

  Charge       = 0
  Multiplicity = 1
  Electrons    = 58
  Nalpha       = 29
  Nbeta        = 29

  ==> Algorithm <==

  SCF Algorithm Type is DF.
  DIIS enabled.
  MOM disabled.
  Fractional occupation disabled.
  Guess Type is CORE.
  Energy threshold   = 1.00e-06
  Density threshold  = 1.00e-06
  Integral threshold = 0.00e+00

  ==> Primary Basis <==

  Basis Set: 6-31G*
    Number of shells: 64
    Number of basis function: 136
    Number of Cartesian functions: 136
    Spherical Harmonics?: false
    Max angular momentum: 2

  ==> Pre-Iterations <==

   -------------------------------------------------------
    Irrep   Nso     Nmo     Nalpha   Nbeta   Ndocc  Nsocc
   -------------------------------------------------------
     A        136     136       0       0       0       0
   -------------------------------------------------------
    Total     136     136      29      29      29       0
   -------------------------------------------------------

 OEINTS: Overlap, kinetic, potential, dipole, and quadrupole integrals
         stored in file 35.

  ==> Integral Setup <==

  ==> DFJK: Density-Fitted J/K Matrices <==

    J tasked:                  Yes
    K tasked:                  Yes
    wK tasked:                  No
    OpenMP threads:              1
    Integrals threads:           1
    Memory (MB):              1430
    Algorithm:                Core
    Integral Cache:           NONE
    Schwarz Cutoff:          1E-12
    Fitting Condition:       1E-12

   => Auxiliary Basis Set <=

  Basis Set: 
    Number of shells: 264
    Number of basis function: 848
    Number of Cartesian functions: 848
    Spherical Harmonics?: false
    Max angular momentum: 3

  Minimum eigenvalue in the overlap matrix is 3.9864382819E-04.
  Using Symmetric Orthogonalization.
  SCF Guess: Core (One-Electron) Hamiltonian.

  ==> Iterations <==

                           Total Energy        Delta E     RMS |[F,P]|

   @DF-RHF iter   1:  -269.26639099157057   -2.69266e+02   6.80296e-02 
   @DF-RHF iter   2:  -240.95115832658212    2.83152e+01   5.39963e-02 DIIS
   @DF-RHF iter   3:  -296.53667828923653   -5.55855e+01   5.36005e-02 DIIS
   @DF-RHF iter   4:  -332.99363232899748   -3.64570e+01   2.98487e-02 DIIS
   @DF-RHF iter   5:  -343.20163425593478   -1.02080e+01   1.08929e-02 DIIS
   @DF-RHF iter   6:  -344.39951186958740   -1.19788e+00   4.49135e-03 DIIS
   @DF-RHF iter   7:  -344.57748146520998   -1.77970e-01   1.09736e-03 DIIS
   @DF-RHF iter   8:  -344.58970403333853   -1.22226e-02   5.16292e-04 DIIS
   @DF-RHF iter   9:  -344.59322202774752   -3.51799e-03   1.29885e-04 DIIS
   @DF-RHF iter  10:  -344.59353566149207   -3.13634e-04   4.65695e-05 DIIS
   @DF-RHF iter  11:  -344.59361599156136   -8.03301e-05   2.18262e-05 DIIS
   @DF-RHF iter  12:  -344.59363698973698   -2.09982e-05   1.12508e-05 DIIS
   @DF-RHF iter  13:  -344.59364464391956   -7.65418e-06   3.46054e-06 DIIS
   @DF-RHF iter  14:  -344.59364539710566   -7.53186e-07   1.00531e-06 DIIS
   @DF-RHF iter  15:  -344.59364543041397   -3.33083e-08   3.37091e-07 DIIS

  ==> Post-Iterations <==

    Orbital Energies (a.u.)
    -----------------------

    Doubly Occupied:                                                      

       1A    -20.587395     2A    -11.292273     3A    -11.235038  
       4A    -11.233972     5A    -11.231070     6A    -11.229641  
       7A    -11.219297     8A    -11.219162     9A     -1.406110  
      10A     -1.148650    11A     -1.048514    12A     -1.004072  
      13A     -0.941430    14A     -0.825117    15A     -0.819390  
      16A     -0.729927    17A     -0.676029    18A     -0.643563  
      19A     -0.607086    20A     -0.600869    21A     -0.574621  
      22A     -0.566145    23A     -0.557911    24A     -0.551615  
      25A     -0.502679    26A     -0.482664    27A     -0.472643  
      28A     -0.329317    29A     -0.304375  

    Virtual:                                                              

      30A      0.148583    31A      0.163635    32A      0.214587  
      33A      0.246836    34A      0.284787    35A      0.297998  
      36A      0.313212    37A      0.322616    38A      0.332244  
      39A      0.353841    40A      0.398426    41A      0.407114  
      42A      0.451525    43A      0.480272    44A      0.504108  
      45A      0.553012    46A      0.567749    47A      0.707792  
      48A      0.715737    49A      0.732891    50A      0.735617  
      51A      0.755281    52A      0.773063    53A      0.819986  
      54A      0.836963    55A      0.838361    56A      0.848752  
      57A      0.857814    58A      0.880329    59A      0.886517  
      60A      0.920187    61A      0.952198    62A      0.962422  
      63A      1.005317    64A      1.044780    65A      1.047372  
      66A      1.107544    67A      1.121690    68A      1.126717  
      69A      1.141032    70A      1.149567    71A      1.186656  
      72A      1.189924    73A      1.217967    74A      1.237579  
      75A      1.263978    76A      1.272267    77A      1.310087  
      78A      1.319733    79A      1.356319    80A      1.387072  
      81A      1.438397    82A      1.506120    83A      1.506589  
      84A      1.561444    85A      1.612395    86A      1.628844  
      87A      1.651280    88A      1.692500    89A      1.729736  
      90A      1.765824    91A      1.779697    92A      1.790017  
      93A      1.991330    94A      2.037235    95A      2.075287  
      96A      2.102087    97A      2.135614    98A      2.157236  
      99A      2.188570   100A      2.230848   101A      2.252835  
     102A      2.275354   103A      2.310542   104A      2.330827  
     105A      2.428955   106A      2.443630   107A      2.480494  
     108A      2.508544   109A      2.576683   110A      2.609376  
     111A      2.627549   112A      2.639313   113A      2.663221  
     114A      2.681663   115A      2.688070   116A      2.810537  
     117A      2.895185   118A      2.913822   119A      2.958996  
     120A      3.033871   121A      3.067697   122A      3.118882  
     123A      3.140443   124A      3.162904   125A      3.244397  
     126A      3.359414   127A      3.540237   128A      3.845433  
     129A      4.401647   130A      4.534591   131A      4.550951  
     132A      4.608781   133A      4.719179   134A      4.825157  
     135A      4.855016   136A      5.193056  

    Final Occupation by Irrep:
              A 
    DOCC [    29 ]

  Energy converged.

  @DF-RHF Final Energy:  -344.59364543041397

   => Energetics <=

    Nuclear Repulsion Energy =            350.1451047810630826
    One-Electron Energy =               -1161.3964371730746734
    Two-Electron Energy =                 466.6576869615981877
    DFT Exchange-Correlation Energy =       0.0000000000000000
    Empirical Dispersion Energy =           0.0000000000000000
    PCM Polarization Energy =               0.0000000000000000
    EFP Energy =                            0.0000000000000000
    Total Energy =                       -344.5936454304134031

    Alert: EFP and PCM quantities not currently incorporated into SCF psivars.

Properties will be evaluated at   0.000000,   0.000000,   0.000000 Bohr
  ==> Properties <==


Properties computed using the SCF density matrix

  Nuclear Dipole Moment: (a.u.)
     X:    -2.2474      Y:    -3.6211      Z:    -0.6075

  Electronic Dipole Moment: (a.u.)
     X:     1.8813      Y:     3.0572      Z:     0.5912

  Dipole Moment: (a.u.)
     X:    -0.3661      Y:    -0.5640      Z:    -0.0164     Total:     0.6726

  Dipole Moment: (Debye)
     X:    -0.9306      Y:    -1.4335      Z:    -0.0416     Total:     1.7096


  Saving occupied orbitals to File 180.

*** tstop() called on cx1-3-15-2.cx1.hpc.ic.ac.uk at Tue Jul  5 16:25:11 2016
Module time:
	user time   =      11.47 seconds =       0.19 minutes
	system time =       0.08 seconds =       0.00 minutes
	total time  =         12 seconds =       0.20 minutes
Total time:
	user time   =      11.47 seconds =       0.19 minutes
	system time =       0.08 seconds =       0.00 minutes
	total time  =         12 seconds =       0.20 minutes


Properties will be evaluated at   0.000000,   0.000000,   0.000000 Bohr

Properties computed using the  density matrix

  Nuclear Dipole Moment: (a.u.)
     X:    -2.2474      Y:    -3.6211      Z:    -0.6075

  Electronic Dipole Moment: (a.u.)
     X:     1.8813      Y:     3.0572      Z:     0.5912

  Dipole Moment: (a.u.)
     X:    -0.3661      Y:    -0.5640      Z:    -0.0164     Total:     0.6726

  Dipole Moment: (Debye)
     X:    -0.9306      Y:    -1.4335      Z:    -0.0416     Total:     1.7096

  Quadrupole Moment: (Debye Ang)
    XX:   -39.4799     YY:   -47.3986     ZZ:   -50.8630
    XY:     1.8694     XZ:     0.8772     YZ:     1.0672

  Traceless Quadrupole Moment: (Debye Ang)
    XX:     6.4339     YY:    -1.4848     ZZ:    -4.9492
    XY:     1.8694     XZ:     0.8772     YZ:     1.0672

  Mulliken Charges: (a.u.)
   Center  Symbol    Alpha    Beta     Spin     Total
       1     H     0.26645  0.26645  0.00000  0.46710
       2     O     4.38223  4.38223  0.00000 -0.76446
       3     C     2.81796  2.81796  0.00000  0.36408
       4     C     3.11898  3.11898  0.00000 -0.23796
       5     C     3.00664  3.00664  0.00000 -0.01328
       6     H     0.39216  0.39216  0.00000  0.21567
       7     C     3.09549  3.09549  0.00000 -0.19098
       8     C     3.10668  3.10668  0.00000 -0.21336
       9     C     3.27438  3.27438  0.00000 -0.54876
      10     H     0.39900  0.39900  0.00000  0.20199
      11     C     3.10866  3.10866  0.00000 -0.21732
      12     H     0.40172  0.40172  0.00000  0.19655
      13     H     0.40941  0.40941  0.00000  0.18119
      14     H     0.40424  0.40424  0.00000  0.19153
      15     H     0.41488  0.41488  0.00000  0.17024
      16     H     0.40112  0.40112  0.00000  0.19776

   Total alpha = 29.00000, Total beta = 29.00000, Total charge = -0.00000


*** PSI4 exiting successfully. Buy a developer a beer!
