
    -----------------------------------------------------------------------
          Psi4: An Open-Source Ab Initio Electronic Structure Package
                               Psi4 1.1 release

                         Git: Rev {HEAD} add49b9 


    R. M. Parrish, L. A. Burns, D. G. A. Smith, A. C. Simmonett,
    A. E. DePrince III, E. G. Hohenstein, U. Bozkaya, A. Yu. Sokolov,
    R. Di Remigio, R. M. Richard, J. F. Gonthier, A. M. James,
    H. R. McAlexander, A. Kumar, M. Saitow, X. Wang, B. P. Pritchard,
    P. Verma, H. F. Schaefer III, K. Patkowski, R. A. King, E. F. Valeev,
    F. A. Evangelista, J. M. Turney, T. D. Crawford, and C. D. Sherrill,
    J. Chem. Theory Comput. in press (2017).
    (doi: 10.1021/acs.jctc.7b00174)

    -----------------------------------------------------------------------


    Psi4 started on: Tuesday, 12 December 2017 11:19AM

    Process ID:  27625
    PSIDATADIR: /shared/raimis/opt/miniconda/envs/htmd/share/psi4
    Memory:     500.0 MiB
    Threads:    1
    
  ==> Input File <==

--------------------------------------------------------------------------
set_num_threads(1)
set_memory(4203741184)

set { reference rks }
set { basis cc-pVDZ }

molecule MOL {
    0 1
    noreorient
    nocom
    symmetry c1
    O    1.050400   0.042900  -0.048100
    C    2.474100   0.047400  -0.029000
    C    3.002600  -1.068900  -0.932000
    N    4.462700  -1.072400  -1.006800
    H    0.783848  -0.133412  -0.966727
    H    2.809900  -0.097900   1.003200
    H    2.817400   1.026800  -0.378600
    H    2.581000  -0.963300  -1.938400
    H    2.653800  -2.036400  -0.553400
    H    4.779000  -0.221000  -1.470000
    H    4.758600  -1.842500  -1.606500
}

set optking { frozen_dihedral = (" 3 2 1 5 ") }

energy, wfn = energy('B3LYP-D3', return_wfn=True)

import os
os.chdir(os.environ['HTMD_PSI4_WORKDIR'])

oeprop(wfn, 'DIPOLE', 'QUADRUPOLE', 'MULLIKEN_CHARGES')

with open('psi4out.xyz', 'w') as f:
    f.write('11 ' )
    f.write('%.12f\n' % energy)
    f.write(MOL.save_string_xyz())
--------------------------------------------------------------------------
  Threads set to 1 by Python driver.

  Memory set to   3.915 GiB by Python driver.

*** tstart() called on computer06
*** at Tue Dec 12 11:19:08 2017

   => Loading Basis Set <=

    Name: CC-PVDZ
    Role: ORBITAL
    Keyword: BASIS
    atoms 1    entry O          line   190 file /shared/raimis/opt/miniconda/envs/htmd/share/psi4/basis/cc-pvdz.gbs 
    atoms 2-3  entry C          line   130 file /shared/raimis/opt/miniconda/envs/htmd/share/psi4/basis/cc-pvdz.gbs 
    atoms 4    entry N          line   160 file /shared/raimis/opt/miniconda/envs/htmd/share/psi4/basis/cc-pvdz.gbs 
    atoms 5-11 entry H          line    20 file /shared/raimis/opt/miniconda/envs/htmd/share/psi4/basis/cc-pvdz.gbs 


         ---------------------------------------------------------
                                   SCF
            by Justin Turney, Rob Parrish, and Andy Simmonett
                              RKS Reference
                        1 Threads,   4009 MiB Core
         ---------------------------------------------------------

  ==> Geometry <==

    Molecular point group: c1
    Full point group: C1

    Geometry (in Angstrom), charge = 0, multiplicity = 1:

       Center              X                  Y                   Z               Mass       
    ------------   -----------------  -----------------  -----------------  -----------------
           O          1.050400000000     0.042900000000    -0.048100000000    15.994914619560
           C          2.474100000000     0.047400000000    -0.029000000000    12.000000000000
           C          3.002600000000    -1.068900000000    -0.932000000000    12.000000000000
           N          4.462700000000    -1.072400000000    -1.006800000000    14.003074004780
           H          0.783848000000    -0.133412000000    -0.966727000000     1.007825032070
           H          2.809900000000    -0.097900000000     1.003200000000     1.007825032070
           H          2.817400000000     1.026800000000    -0.378600000000     1.007825032070
           H          2.581000000000    -0.963300000000    -1.938400000000     1.007825032070
           H          2.653800000000    -2.036400000000    -0.553400000000     1.007825032070
           H          4.779000000000    -0.221000000000    -1.470000000000     1.007825032070
           H          4.758600000000    -1.842500000000    -1.606500000000     1.007825032070

  Running in c1 symmetry.

  Rotational constants: A =      0.74166  B =      0.02758  C =      0.02696 [cm^-1]
  Rotational constants: A =  22234.44109  B =    826.84229  C =    808.32089 [MHz]
  Nuclear repulsion =  131.000991361459199

  Charge       = 0
  Multiplicity = 1
  Electrons    = 34
  Nalpha       = 17
  Nbeta        = 17

  ==> Algorithm <==

  SCF Algorithm Type is DF.
  DIIS enabled.
  MOM disabled.
  Fractional occupation disabled.
  Guess Type is SAD.
  Energy threshold   = 1.00e-06
  Density threshold  = 1.00e-06
  Integral threshold = 0.00e+00

  ==> Primary Basis <==

  Basis Set: CC-PVDZ
    Blend: CC-PVDZ
    Number of shells: 45
    Number of basis function: 91
    Number of Cartesian functions: 95
    Spherical Harmonics?: true
    Max angular momentum: 2

  ==> DFT Potential <==

   => B3LYP Composite Functional <= 

    B3LYP Hybrid-GGA Exchange-Correlation Functional (VWN1-RPA)

    P.J. Stephens et. al., J. Phys. Chem., 98, 11623-11627, 1994

    Points   =           5000
    Deriv    =              1
    GGA      =           TRUE
    Meta     =          FALSE

    X_LRC        =          FALSE
    X_Hybrid     =           TRUE
    X_Alpha      =   2.000000E-01
    X_Omega      =   0.000000E+00
    C_LRC        =          FALSE
    C_Hybrid     =          FALSE
    C_Alpha      =   0.000000E+00
    C_Omega      =   0.000000E+00

   => Exchange Functionals <=

    0.8000    B3_X
    0.2000      HF 

   => Correlation Functionals <=

    0.1900 VWN3RPA_C
    0.8100   LYP_C

   => Molecular Quadrature <=

    Radial Scheme    =       TREUTLER
    Pruning Scheme   =           FLAT
    Nuclear Scheme   =       TREUTLER

    BS radius alpha  =              1
    Pruning alpha    =              1
    Radial Points    =             75
    Spherical Points =            302
    Total Points     =         245049
    Total Blocks     =            221
    Max Points       =           4911
    Max Functions    =             91

   => -D3ZERO: Empirical Dispersion <=

    Grimme's -D3 (zero-damping) Dispersion Correction
    Grimme S.; Antony J.; Ehrlich S.; Krieg H. (2010), J. Chem. Phys., 132: 154104

        S6 =   1.000000E+00
        S8 =   1.703000E+00
       SR6 =   1.261000E+00
    ALPHA6 =   1.400000E+01

   => Loading Basis Set <=

    Name: (CC-PVDZ AUX)
    Role: JKFIT
    Keyword: DF_BASIS_SCF
    atoms 1    entry O          line   220 file /shared/raimis/opt/miniconda/envs/htmd/share/psi4/basis/cc-pvdz-jkfit.gbs 
    atoms 2-3  entry C          line   120 file /shared/raimis/opt/miniconda/envs/htmd/share/psi4/basis/cc-pvdz-jkfit.gbs 
    atoms 4    entry N          line   170 file /shared/raimis/opt/miniconda/envs/htmd/share/psi4/basis/cc-pvdz-jkfit.gbs 
    atoms 5-11 entry H          line    50 file /shared/raimis/opt/miniconda/envs/htmd/share/psi4/basis/cc-pvdz-jkfit.gbs 

  ==> Pre-Iterations <==

   -------------------------------------------------------
    Irrep   Nso     Nmo     Nalpha   Nbeta   Ndocc  Nsocc
   -------------------------------------------------------
     A         91      91       0       0       0       0
   -------------------------------------------------------
    Total      91      91      17      17      17       0
   -------------------------------------------------------

  ==> Integral Setup <==

  ==> DFJK: Density-Fitted J/K Matrices <==

    J tasked:                  Yes
    K tasked:                  Yes
    wK tasked:                  No
    OpenMP threads:              1
    Integrals threads:           1
    Memory (MB):              3006
    Algorithm:                Core
    Integral Cache:           NONE
    Schwarz Cutoff:          1E-12
    Fitting Condition:       1E-12

   => Auxiliary Basis Set <=

  Basis Set: (CC-PVDZ AUX)
    Blend: CC-PVDZ-JKFIT
    Number of shells: 159
    Number of basis function: 441
    Number of Cartesian functions: 499
    Spherical Harmonics?: true
    Max angular momentum: 3

  Minimum eigenvalue in the overlap matrix is 4.4120071486E-03.
  Using Symmetric Orthogonalization.

  SCF Guess: Superposition of Atomic Densities via on-the-fly atomic UHF.

  ==> Iterations <==

                           Total Energy        Delta E     RMS |[F,P]|

   @DF-RKS iter   0:  -210.76784445499121   -2.10768e+02   3.62195e-02 
   @DF-RKS iter   1:  -210.20864004357122    5.59204e-01   7.16661e-03 
   @DF-RKS iter   2:  -210.05815526644975    1.50485e-01   9.79443e-03 DIIS
   @DF-RKS iter   3:  -210.39088037297060   -3.32725e-01   5.74538e-04 DIIS
   @DF-RKS iter   4:  -210.39161440195431   -7.34029e-04   3.55113e-04 DIIS
   @DF-RKS iter   5:  -210.39207852882009   -4.64127e-04   5.37813e-05 DIIS
   @DF-RKS iter   6:  -210.39208680177666   -8.27296e-06   2.48451e-05 DIIS
   @DF-RKS iter   7:  -210.39208895774456   -2.15597e-06   2.14696e-06 DIIS
   @DF-RKS iter   8:  -210.39208897471923   -1.69747e-08   5.75495e-07 DIIS

  ==> Post-Iterations <==

    Orbital Energies (a.u.)
    -----------------------

    Doubly Occupied:                                                      

       1A    -19.127822     2A    -14.310439     3A    -10.224573  
       4A    -10.209375     5A     -1.011050     6A     -0.882416  
       7A     -0.711994     8A     -0.615199     9A     -0.509085  
      10A     -0.467642    11A     -0.455897    12A     -0.438706  
      13A     -0.395934    14A     -0.367338    15A     -0.322382  
      16A     -0.263368    17A     -0.237933  

    Virtual:                                                              

      18A      0.049680    19A      0.057469    20A      0.094230  
      21A      0.102974    22A      0.136389    23A      0.151394  
      24A      0.164362    25A      0.210224    26A      0.240854  
      27A      0.252329    28A      0.432190    29A      0.447343  
      30A      0.485352    31A      0.499216    32A      0.541961  
      33A      0.582600    34A      0.589179    35A      0.609945  
      36A      0.642169    37A      0.652616    38A      0.664021  
      39A      0.666572    40A      0.699104    41A      0.809440  
      42A      0.831461    43A      0.840578    44A      0.905910  
      45A      0.953412    46A      1.007938    47A      1.025564  
      48A      1.063627    49A      1.161970    50A      1.202800  
      51A      1.205900    52A      1.239492    53A      1.285675  
      54A      1.411114    55A      1.444985    56A      1.468984  
      57A      1.513425    58A      1.604008    59A      1.623997  
      60A      1.641348    61A      1.657527    62A      1.665303  
      63A      1.702192    64A      1.728481    65A      1.735560  
      66A      1.786853    67A      1.812931    68A      1.853483  
      69A      1.872789    70A      1.955250    71A      1.980804  
      72A      2.017145    73A      2.044340    74A      2.109075  
      75A      2.155700    76A      2.241978    77A      2.263554  
      78A      2.364532    79A      2.397866    80A      2.443148  
      81A      2.472305    82A      2.547894    83A      2.597822  
      84A      2.678860    85A      2.821156    86A      2.941741  
      87A      3.010373    88A      3.053792    89A      3.081434  
      90A      3.242678    91A      3.683493  

    Final Occupation by Irrep:
              A 
    DOCC [    17 ]

  Energy converged.

  @DF-RKS Final Energy:  -210.39208897471923

   => Energetics <=

    Nuclear Repulsion Energy =            131.0009913614591994
    One-Electron Energy =                -544.8018275890584619
    Two-Electron Energy =                 226.8999830261170416
    DFT Exchange-Correlation Energy =     -23.4860886832370248
    Empirical Dispersion Energy =          -0.0051470900000000
    PCM Polarization Energy =               0.0000000000000000
    EFP Energy =                            0.0000000000000000
    Total Energy =                       -210.3920889747192291



Properties will be evaluated at   0.000000,   0.000000,   0.000000 Bohr

Properties computed using the SCF density matrix

  Nuclear Dipole Moment: (a.u.)
     X:   177.0406      Y:   -33.1842      Z:   -36.1104

  Electronic Dipole Moment: (a.u.)
     X:  -176.7746      Y:    33.0635      Z:    35.1317

  Dipole Moment: (a.u.)
     X:     0.2660      Y:    -0.1207      Z:    -0.9787     Total:     1.0214

  Dipole Moment: (Debye)
     X:     0.6760      Y:    -0.3067      Z:    -2.4877     Total:     2.5961


*** tstop() called on computer06 at Tue Dec 12 11:19:33 2017
Module time:
	user time   =      23.47 seconds =       0.39 minutes
	system time =       0.22 seconds =       0.00 minutes
	total time  =         25 seconds =       0.42 minutes
Total time:
	user time   =      23.47 seconds =       0.39 minutes
	system time =       0.22 seconds =       0.00 minutes
	total time  =         25 seconds =       0.42 minutes


Properties will be evaluated at   0.000000,   0.000000,   0.000000 Bohr

Properties computed using the  density matrix

  Nuclear Dipole Moment: (a.u.)
     X:   177.0406      Y:   -33.1842      Z:   -36.1104

  Electronic Dipole Moment: (a.u.)
     X:  -176.7746      Y:    33.0635      Z:    35.1317

  Dipole Moment: (a.u.)
     X:     0.2660      Y:    -0.1207      Z:    -0.9787     Total:     1.0214

  Dipole Moment: (Debye)
     X:     0.6760      Y:    -0.3067      Z:    -2.4877     Total:     2.5961

  Quadrupole Moment: (Debye Ang)
    XX:   -24.2378     YY:   -24.5023     ZZ:   -21.5374
    XY:     0.2457     XZ:    -6.8444     YZ:     1.5536

  Traceless Quadrupole Moment: (Debye Ang)
    XX:    -0.8119     YY:    -1.0765     ZZ:     1.8884
    XY:     0.2457     XZ:    -6.8444     YZ:     1.5536

  Mulliken Charges: (a.u.)
   Center  Symbol    Alpha    Beta     Spin     Total
       1     O     4.13920  4.13920  0.00000 -0.27840
       2     C     2.91568  2.91568  0.00000  0.16863
       3     C     3.00383  3.00383  0.00000 -0.00765
       4     N     3.59049  3.59049  0.00000 -0.18098
       5     H     0.43305  0.43305  0.00000  0.13389
       6     H     0.48667  0.48667  0.00000  0.02665
       7     H     0.50351  0.50351  0.00000 -0.00702
       8     H     0.50967  0.50967  0.00000 -0.01933
       9     H     0.48914  0.48914  0.00000  0.02173
      10     H     0.46496  0.46496  0.00000  0.07008
      11     H     0.46380  0.46380  0.00000  0.07239

   Total alpha = 17.00000, Total beta = 17.00000, Total charge = -0.00000


*** Psi4 exiting successfully. Buy a developer a beer!
