    -----------------------------------------------------------------------
          Psi4: An Open-Source Ab Initio Electronic Structure Package
                              Psi4 (no tag) Driver

                          Git: Rev {detached?}  

    J. M. Turney, A. C. Simmonett, R. M. Parrish, E. G. Hohenstein,
    F. A. Evangelista, J. T. Fermann, B. J. Mintz, L. A. Burns, J. J. Wilke,
    M. L. Abrams, N. J. Russ, M. L. Leininger, C. L. Janssen, E. T. Seidl,
    W. D. Allen, H. F. Schaefer, R. A. King, E. F. Valeev, C. D. Sherrill,
    and T. D. Crawford, WIREs Comput. Mol. Sci. 2, 556-565 (2012)
    (doi: 10.1002/wcms.93)

                         Additional Contributions by
    A. E. DePrince, M. Saitow, U. Bozkaya, A. Yu. Sokolov
    -----------------------------------------------------------------------


    Psi4 started on: Tue Jul  5 16:43:37 2016

    Process ID:  23553
    PSI4DATADIR: /export131/home/mjharvey/miniconda3/share
    Memory level set to 256.000 MB

  ==> Input File <==

--------------------------------------------------------------------------
set {
	reference rhf
	basis 6-31G*
}


set_num_threads( 1 )
memory 2 gb

molecule MOL {
0 1

H	 -2.138899	 -0.630570	 -0.647413
O	 -2.035884	 -0.060112	 0.102722
C	 -0.955155	 0.788182	 -0.092531
C	 0.353668	 0.040312	 -0.004810
H	 -0.985057	 1.290372	 -1.054184
H	 -0.974469	 1.533190	 0.688632
F	 0.548315	 -0.418436	 1.226545
F	 0.348852	 -0.998654	 -0.824399
F	 1.388009	 0.795454	 -0.313761

	symmetry c1
}
set optking {
	frozen_dihedral = ("
		7 4 3 5
	")
}

ee = energy('scf')
oeprop('DIPOLE', 'QUADRUPOLE', 'MULLIKEN_CHARGES')
f=open( 'psi4out.xyz', 'w' )
f.write( "9  " )
f.write( str(ee) + "\n" )
f.write( MOL.save_string_xyz() )
f.close()
--------------------------------------------------------------------------

  Memory set to   2.000 GiB by Python script.

*** tstart() called on cx1-3-2-1.cx1.hpc.ic.ac.uk
*** at Tue Jul  5 16:43:38 2016


         ---------------------------------------------------------
                                   SCF
            by Justin Turney, Rob Parrish, and Andy Simmonett
                              RHF Reference
                        1 Threads,   2000 MiB Core
         ---------------------------------------------------------

  ==> Geometry <==

    Molecular point group: c1
    Full point group: C1

    Geometry (in Angstrom), charge = 0, multiplicity = 1:

       Center              X                  Y                   Z               Mass       
    ------------   -----------------  -----------------  -----------------  -----------------
           H         -2.133925326623    -0.624375867750    -0.658743659149     1.007825032070
           O         -2.030910326623    -0.053917867750     0.091391340851    15.994914619560
           C         -0.950181326623     0.794376132250    -0.103861659149    12.000000000000
           C          0.358641673377     0.046506132250    -0.016140659149    12.000000000000
           H         -0.980083326623     1.296566132250    -1.065514659149     1.007825032070
           H         -0.969495326623     1.539384132250     0.677301340851     1.007825032070
           F          0.553288673377    -0.412241867750     1.215214340851    18.998403224000
           F          0.353825673377    -0.992459867750    -0.835729659149    18.998403224000
           F          1.392982673377     0.801648132250    -0.325091659149    18.998403224000

  Running in c1 symmetry.

  Rotational constants: A =      0.18352  B =      0.09608  C =      0.09560 [cm^-1]
  Rotational constants: A =   5501.93797  B =   2880.32803  C =   2865.90344 [MHz]
  Nuclear repulsion =  277.196425991437479

  Charge       = 0
  Multiplicity = 1
  Electrons    = 50
  Nalpha       = 25
  Nbeta        = 25

  ==> Algorithm <==

  SCF Algorithm Type is DF.
  DIIS enabled.
  MOM disabled.
  Fractional occupation disabled.
  Guess Type is CORE.
  Energy threshold   = 1.00e-06
  Density threshold  = 1.00e-06
  Integral threshold = 0.00e+00

  ==> Primary Basis <==

  Basis Set: 6-31G*
    Number of shells: 42
    Number of basis function: 96
    Number of Cartesian functions: 96
    Spherical Harmonics?: false
    Max angular momentum: 2

  ==> Pre-Iterations <==

   -------------------------------------------------------
    Irrep   Nso     Nmo     Nalpha   Nbeta   Ndocc  Nsocc
   -------------------------------------------------------
     A         96      96       0       0       0       0
   -------------------------------------------------------
    Total      96      96      25      25      25       0
   -------------------------------------------------------

 OEINTS: Overlap, kinetic, potential, dipole, and quadrupole integrals
         stored in file 35.

  ==> Integral Setup <==

  ==> DFJK: Density-Fitted J/K Matrices <==

    J tasked:                  Yes
    K tasked:                  Yes
    wK tasked:                  No
    OpenMP threads:              1
    Integrals threads:           1
    Memory (MB):              1430
    Algorithm:                Core
    Integral Cache:           NONE
    Schwarz Cutoff:          1E-12
    Fitting Condition:       1E-12

   => Auxiliary Basis Set <=

  Basis Set: 
    Number of shells: 171
    Number of basis function: 561
    Number of Cartesian functions: 561
    Spherical Harmonics?: false
    Max angular momentum: 3

  Minimum eigenvalue in the overlap matrix is 1.9624680588E-03.
  Using Symmetric Orthogonalization.
  SCF Guess: Core (One-Electron) Hamiltonian.

  ==> Iterations <==

                           Total Energy        Delta E     RMS |[F,P]|

   @DF-RHF iter   1:  -399.86259522413667   -3.99863e+02   8.95342e-02 
   @DF-RHF iter   2:  -272.43549849832488    1.27427e+02   9.66924e-02 DIIS
   @DF-RHF iter   3:  -397.20490130350532   -1.24769e+02   6.48448e-02 DIIS
   @DF-RHF iter   4:  -448.44177015380484   -5.12369e+01   2.39495e-02 DIIS
   @DF-RHF iter   5:  -450.39280017544007   -1.95103e+00   8.79977e-03 DIIS
   @DF-RHF iter   6:  -450.58188119380208   -1.89081e-01   4.33507e-03 DIIS
   @DF-RHF iter   7:  -450.64940069302457   -6.75195e-02   1.50571e-03 DIIS
   @DF-RHF iter   8:  -450.66127906752087   -1.18784e-02   4.04791e-04 DIIS
   @DF-RHF iter   9:  -450.66222322638151   -9.44159e-04   1.09788e-04 DIIS
   @DF-RHF iter  10:  -450.66227910011145   -5.58737e-05   3.97830e-05 DIIS
   @DF-RHF iter  11:  -450.66229087578319   -1.17757e-05   9.28973e-06 DIIS
   @DF-RHF iter  12:  -450.66229169133391   -8.15551e-07   2.75267e-06 DIIS
   @DF-RHF iter  13:  -450.66229173317839   -4.18445e-08   1.10762e-06 DIIS
   @DF-RHF iter  14:  -450.66229173857351   -5.39512e-09   1.69871e-07 DIIS

  ==> Post-Iterations <==

    Orbital Energies (a.u.)
    -----------------------

    Doubly Occupied:                                                      

       1A    -26.346105     2A    -26.344401     3A    -26.333134  
       4A    -20.590870     5A    -11.499399     6A    -11.309716  
       7A     -1.739777     8A     -1.641898     9A     -1.631726  
      10A     -1.402593    11A     -1.048020    12A     -0.923023  
      13A     -0.829857    14A     -0.828136    15A     -0.804914  
      16A     -0.727175    17A     -0.711541    18A     -0.697766  
      19A     -0.665775    20A     -0.656860    21A     -0.641061  
      22A     -0.628617    23A     -0.610865    24A     -0.532334  
      25A     -0.480331  

    Virtual:                                                              

      26A      0.214894    27A      0.268166    28A      0.288483  
      29A      0.336957    30A      0.415631    31A      0.428911  
      32A      0.475659    33A      0.485773    34A      0.695719  
      35A      0.741821    36A      0.755267    37A      0.778969  
      38A      0.815618    39A      0.876679    40A      0.936813  
      41A      1.053786    42A      1.129646    43A      1.149685  
      44A      1.188544    45A      1.241015    46A      1.319654  
      47A      1.342011    48A      1.357865    49A      1.364934  
      50A      1.449078    51A      1.470803    52A      1.597291  
      53A      1.619553    54A      1.626227    55A      1.641663  
      56A      1.670162    57A      1.673903    58A      1.688648  
      59A      1.744493    60A      1.870470    61A      1.914014  
      62A      1.949467    63A      1.975142    64A      1.998098  
      65A      2.113744    66A      2.131355    67A      2.138974  
      68A      2.162310    69A      2.265014    70A      2.274406  
      71A      2.323374    72A      2.373495    73A      2.376794  
      74A      2.397324    75A      2.415453    76A      2.426032  
      77A      2.507250    78A      2.592697    79A      2.656193  
      80A      2.716993    81A      2.736163    82A      2.871058  
      83A      2.918762    84A      3.115142    85A      3.136292  
      86A      3.175262    87A      3.270253    88A      3.419230  
      89A      3.420124    90A      3.451892    91A      4.138754  
      92A      4.604210    93A      4.749687    94A      4.893213  
      95A      5.142021    96A      5.706496  

    Final Occupation by Irrep:
              A 
    DOCC [    25 ]

  Energy converged.

  @DF-RHF Final Energy:  -450.66229173857351

   => Energetics <=

    Nuclear Repulsion Energy =            277.1964259914374793
    One-Electron Energy =               -1176.4656478943602451
    Two-Electron Energy =                 448.6069301643499330
    DFT Exchange-Correlation Energy =       0.0000000000000000
    Empirical Dispersion Energy =           0.0000000000000000
    PCM Polarization Energy =               0.0000000000000000
    EFP Energy =                            0.0000000000000000
    Total Energy =                       -450.6622917385727760

    Alert: EFP and PCM quantities not currently incorporated into SCF psivars.

Properties will be evaluated at   0.000000,   0.000000,   0.000000 Bohr
  ==> Properties <==


Properties computed using the SCF density matrix

  Nuclear Dipole Moment: (a.u.)
     X:    -6.0077      Y:     2.6419      Z:    -1.0324

  Electronic Dipole Moment: (a.u.)
     X:     5.6724      Y:    -2.2568      Z:     0.3821

  Dipole Moment: (a.u.)
     X:    -0.3353      Y:     0.3851      Z:    -0.6503     Total:     0.8268

  Dipole Moment: (Debye)
     X:    -0.8524      Y:     0.9788      Z:    -1.6528     Total:     2.1015


  Saving occupied orbitals to File 180.

*** tstop() called on cx1-3-2-1.cx1.hpc.ic.ac.uk at Tue Jul  5 16:43:43 2016
Module time:
	user time   =       5.19 seconds =       0.09 minutes
	system time =       0.03 seconds =       0.00 minutes
	total time  =          5 seconds =       0.08 minutes
Total time:
	user time   =       5.19 seconds =       0.09 minutes
	system time =       0.03 seconds =       0.00 minutes
	total time  =          5 seconds =       0.08 minutes


Properties will be evaluated at   0.000000,   0.000000,   0.000000 Bohr

Properties computed using the  density matrix

  Nuclear Dipole Moment: (a.u.)
     X:    -6.0077      Y:     2.6419      Z:    -1.0324

  Electronic Dipole Moment: (a.u.)
     X:     5.6724      Y:    -2.2568      Z:     0.3821

  Dipole Moment: (a.u.)
     X:    -0.3353      Y:     0.3851      Z:    -0.6503     Total:     0.8268

  Dipole Moment: (Debye)
     X:    -0.8524      Y:     0.9788      Z:    -1.6528     Total:     2.1015

  Quadrupole Moment: (Debye Ang)
    XX:   -35.2348     YY:   -30.7737     ZZ:   -32.0799
    XY:     0.2756     XZ:     3.5249     YZ:     1.1023

  Traceless Quadrupole Moment: (Debye Ang)
    XX:    -2.5387     YY:     1.9224     ZZ:     0.6163
    XY:     0.2756     XZ:     3.5249     YZ:     1.1023

  Mulliken Charges: (a.u.)
   Center  Symbol    Alpha    Beta     Spin     Total
       1     H     0.27221  0.27221  0.00000  0.45557
       2     O     4.36054  4.36054  0.00000 -0.72108
       3     C     3.05543  3.05543  0.00000 -0.11086
       4     C     2.46185  2.46185  0.00000  1.07630
       5     H     0.41118  0.41118  0.00000  0.17764
       6     H     0.39517  0.39517  0.00000  0.20966
       7     F     4.68104  4.68104  0.00000 -0.36207
       8     F     4.68435  4.68435  0.00000 -0.36871
       9     F     4.67822  4.67822  0.00000 -0.35645

   Total alpha = 25.00000, Total beta = 25.00000, Total charge = -0.00000


*** PSI4 exiting successfully. Buy a developer a beer!
