    -----------------------------------------------------------------------
          Psi4: An Open-Source Ab Initio Electronic Structure Package
                              Psi4 (no tag) Driver

                          Git: Rev {detached?}  

    J. M. Turney, A. C. Simmonett, R. M. Parrish, E. G. Hohenstein,
    F. A. Evangelista, J. T. Fermann, B. J. Mintz, L. A. Burns, J. J. Wilke,
    M. L. Abrams, N. J. Russ, M. L. Leininger, C. L. Janssen, E. T. Seidl,
    W. D. Allen, H. F. Schaefer, R. A. King, E. F. Valeev, C. D. Sherrill,
    and T. D. Crawford, WIREs Comput. Mol. Sci. 2, 556-565 (2012)
    (doi: 10.1002/wcms.93)

                         Additional Contributions by
    A. E. DePrince, M. Saitow, U. Bozkaya, A. Yu. Sokolov
    -----------------------------------------------------------------------


    Psi4 started on: Tue Jul  5 16:29:03 2016

    Process ID:   6861
    PSI4DATADIR: /export131/home/mjharvey/miniconda3/share
    Memory level set to 256.000 MB

  ==> Input File <==

--------------------------------------------------------------------------
set {
	reference rhf
	basis 6-31G*
}


set_num_threads( 1 )
memory 2 gb

molecule MOL {
0 1

H	 -3.269016	 -0.876744	 0.468090
C	 -2.809304	 0.000122	 0.025886
N	 -1.391456	 0.000019	 0.300661
H	 -3.037557	 -0.000063	 -1.044252
H	 -3.269223	 0.876956	 0.468000
C	 -0.599941	 0.232608	 -0.891478
C	 -0.961678	 -1.209020	 0.975438
H	 -0.746765	 -0.559251	 -1.632362
H	 -0.914943	 1.167963	 -1.342530
C	 0.877294	 0.316589	 -0.540347
H	 -1.540527	 -1.325063	 1.885945
H	 -1.132445	 -2.096313	 0.358137
C	 0.515557	 -1.125039	 1.326569
H	 1.456143	 0.432633	 -1.450854
H	 1.048061	 1.203881	 0.076954
N	 1.307072	 -0.892450	 0.134429
H	 0.830559	 -2.060394	 1.777620
H	 0.662380	 -0.333181	 2.067452
C	 2.724920	 -0.892554	 0.409204
H	 3.278243	 -0.778491	 -0.516321
H	 3.012614	 -1.837887	 0.855753
H	 3.029122	 -0.089847	 1.087745

	symmetry c1
}
ee = energy('scf')
oeprop('DIPOLE', 'QUADRUPOLE', 'MULLIKEN_CHARGES')
f=open( 'psi4out.xyz', 'w' )
f.write( "22  " )
f.write( str(ee) + "\n" )
f.write( MOL.save_string_xyz() )
f.close()
--------------------------------------------------------------------------

  Memory set to   2.000 GiB by Python script.

*** tstart() called on cx1-3-4-4.cx1.hpc.ic.ac.uk
*** at Tue Jul  5 16:29:03 2016


         ---------------------------------------------------------
                                   SCF
            by Justin Turney, Rob Parrish, and Andy Simmonett
                              RHF Reference
                        1 Threads,   2000 MiB Core
         ---------------------------------------------------------

  ==> Geometry <==

    Molecular point group: c1
    Full point group: C1

    Geometry (in Angstrom), charge = 0, multiplicity = 1:

       Center              X                  Y                   Z               Mass       
    ------------   -----------------  -----------------  -----------------  -----------------
           H         -3.226800454935    -0.430274185860     0.250423381582     1.007825032070
           C         -2.767088454935     0.446591814140    -0.191780618418    12.000000000000
           N         -1.349240454935     0.446488814140     0.082994381582    14.003074004780
           H         -2.995341454935     0.446406814140    -1.261918618418     1.007825032070
           H         -3.227007454935     1.323425814140     0.250333381582     1.007825032070
           C         -0.557725454935     0.679077814140    -1.109144618418    12.000000000000
           C         -0.919462454935    -0.762550185860     0.757771381582    12.000000000000
           H         -0.704549454935    -0.112781185860    -1.850028618418     1.007825032070
           H         -0.872727454935     1.614432814140    -1.560196618418     1.007825032070
           C          0.919509545065     0.763058814140    -0.758013618418    12.000000000000
           H         -1.498311454935    -0.878593185860     1.668278381582     1.007825032070
           H         -1.090229454935    -1.649843185860     0.140470381582     1.007825032070
           C          0.557772545065    -0.678569185860     1.108902381582    12.000000000000
           H          1.498358545065     0.879102814140    -1.668520618418     1.007825032070
           H          1.090276545065     1.650350814140    -0.140712618418     1.007825032070
           N          1.349287545065    -0.445980185860    -0.083237618418    14.003074004780
           H          0.872774545065    -1.613924185860     1.559953381582     1.007825032070
           H          0.704595545065     0.113288814140     1.849785381582     1.007825032070
           C          2.767135545065    -0.446084185860     0.191537381582    12.000000000000
           H          3.320458545065    -0.332021185860    -0.733987618418     1.007825032070
           H          3.054829545065    -1.391417185860     0.638086381582     1.007825032070
           H          3.071337545065     0.356622814140     0.870078381582     1.007825032070

  Running in c1 symmetry.

  Rotational constants: A =      0.15405  B =      0.04759  C =      0.03875 [cm^-1]
  Rotational constants: A =   4618.36068  B =   1426.75832  C =   1161.64607 [MHz]
  Nuclear repulsion =  421.494596092376696

  Charge       = 0
  Multiplicity = 1
  Electrons    = 64
  Nalpha       = 32
  Nbeta        = 32

  ==> Algorithm <==

  SCF Algorithm Type is DF.
  DIIS enabled.
  MOM disabled.
  Fractional occupation disabled.
  Guess Type is CORE.
  Energy threshold   = 1.00e-06
  Density threshold  = 1.00e-06
  Integral threshold = 0.00e+00

  ==> Primary Basis <==

  Basis Set: 6-31G*
    Number of shells: 76
    Number of basis function: 148
    Number of Cartesian functions: 148
    Spherical Harmonics?: false
    Max angular momentum: 2

  ==> Pre-Iterations <==

   -------------------------------------------------------
    Irrep   Nso     Nmo     Nalpha   Nbeta   Ndocc  Nsocc
   -------------------------------------------------------
     A        148     148       0       0       0       0
   -------------------------------------------------------
    Total     148     148      32      32      32       0
   -------------------------------------------------------

 OEINTS: Overlap, kinetic, potential, dipole, and quadrupole integrals
         stored in file 35.

  ==> Integral Setup <==

  ==> DFJK: Density-Fitted J/K Matrices <==

    J tasked:                  Yes
    K tasked:                  Yes
    wK tasked:                  No
    OpenMP threads:              1
    Integrals threads:           1
    Memory (MB):              1430
    Algorithm:                Core
    Integral Cache:           NONE
    Schwarz Cutoff:          1E-12
    Fitting Condition:       1E-12

   => Auxiliary Basis Set <=

  Basis Set: 
    Number of shells: 318
    Number of basis function: 998
    Number of Cartesian functions: 998
    Spherical Harmonics?: false
    Max angular momentum: 3

  Minimum eigenvalue in the overlap matrix is 3.0269442373E-03.
  Using Symmetric Orthogonalization.
  SCF Guess: Core (One-Electron) Hamiltonian.

  ==> Iterations <==

                           Total Energy        Delta E     RMS |[F,P]|

   @DF-RHF iter   1:  -244.99280384586712   -2.44993e+02   7.20800e-02 
   @DF-RHF iter   2:  -193.79704937185068    5.11958e+01   5.46812e-02 DIIS
   @DF-RHF iter   3:  -301.88735802821543   -1.08090e+02   4.35915e-02 DIIS
   @DF-RHF iter   4:  -340.16815019085652   -3.82808e+01   1.74383e-02 DIIS
   @DF-RHF iter   5:  -343.93922106223545   -3.77107e+00   4.59699e-03 DIIS
   @DF-RHF iter   6:  -344.19579312809196   -2.56572e-01   1.57061e-03 DIIS
   @DF-RHF iter   7:  -344.22156686284973   -2.57737e-02   3.47728e-04 DIIS
   @DF-RHF iter   8:  -344.22330740868415   -1.74055e-03   1.84125e-04 DIIS
   @DF-RHF iter   9:  -344.22367490840043   -3.67500e-04   9.43973e-05 DIIS
   @DF-RHF iter  10:  -344.22378281276838   -1.07904e-04   2.88241e-05 DIIS
   @DF-RHF iter  11:  -344.22379324902340   -1.04363e-05   4.67884e-06 DIIS
   @DF-RHF iter  12:  -344.22379370732142   -4.58298e-07   1.25878e-06 DIIS
   @DF-RHF iter  13:  -344.22379373149442   -2.41730e-08   3.37499e-07 DIIS

  ==> Post-Iterations <==

    Orbital Energies (a.u.)
    -----------------------

    Doubly Occupied:                                                      

       1A    -15.541457     2A    -15.538586     3A    -11.238517  
       4A    -11.238378     5A    -11.237620     6A    -11.237465  
       7A    -11.235606     8A    -11.234318     9A     -1.254610  
      10A     -1.203634    11A     -1.024297    12A     -0.991137  
      13A     -0.910743    14A     -0.867111    15A     -0.835183  
      16A     -0.755228    17A     -0.664340    18A     -0.634786  
      19A     -0.630612    20A     -0.624081    21A     -0.620225  
      22A     -0.580008    23A     -0.551279    24A     -0.548452  
      25A     -0.542150    26A     -0.519585    27A     -0.497989  
      28A     -0.486203    29A     -0.463956    30A     -0.453979  
      31A     -0.348481    32A     -0.342685  

    Virtual:                                                              

      33A      0.235774    34A      0.245312    35A      0.275725  
      36A      0.286471    37A      0.292007    38A      0.305108  
      39A      0.311474    40A      0.319769    41A      0.333385  
      42A      0.334523    43A      0.339090    44A      0.341894  
      45A      0.358711    46A      0.361565    47A      0.367777  
      48A      0.390477    49A      0.425837    50A      0.449244  
      51A      0.466807    52A      0.473794    53A      0.482952  
      54A      0.498453    55A      0.721237    56A      0.741423  
      57A      0.744253    58A      0.771095    59A      0.788912  
      60A      0.792860    61A      0.800744    62A      0.855692  
      63A      0.870928    64A      0.884270    65A      0.920571  
      66A      0.927953    67A      0.942192    68A      0.989075  
      69A      0.992052    70A      1.011907    71A      1.077482  
      72A      1.084815    73A      1.114702    74A      1.119897  
      75A      1.120552    76A      1.136743    77A      1.151478  
      78A      1.156473    79A      1.165982    80A      1.168408  
      81A      1.175048    82A      1.197223    83A      1.202099  
      84A      1.208407    85A      1.236386    86A      1.245573  
      87A      1.250555    88A      1.259876    89A      1.294351  
      90A      1.296159    91A      1.367911    92A      1.415390  
      93A      1.519403    94A      1.570788    95A      1.605047  
      96A      1.638761    97A      1.663965    98A      1.690121  
      99A      1.714990   100A      1.769086   101A      1.821336  
     102A      1.917571   103A      1.998339   104A      2.066922  
     105A      2.115168   106A      2.141801   107A      2.160333  
     108A      2.201396   109A      2.218412   110A      2.236855  
     111A      2.315262   112A      2.338544   113A      2.346841  
     114A      2.365950   115A      2.383533   116A      2.409422  
     117A      2.415504   118A      2.439140   119A      2.459558  
     120A      2.496012   121A      2.555975   122A      2.583216  
     123A      2.585701   124A      2.625907   125A      2.641441  
     126A      2.675723   127A      2.684767   128A      2.688909  
     129A      2.795575   130A      2.810787   131A      2.863424  
     132A      2.938946   133A      2.961412   134A      2.975255  
     135A      3.153276   136A      3.179294   137A      3.182659  
     138A      3.210692   139A      3.265992   140A      3.317214  
     141A      4.497177   142A      4.536855   143A      4.670663  
     144A      4.688202   145A      4.708208   146A      4.833929  
     147A      4.972216   148A      4.980389  

    Final Occupation by Irrep:
              A 
    DOCC [    32 ]

  Energy converged.

  @DF-RHF Final Energy:  -344.22379373149442

   => Energetics <=

    Nuclear Repulsion Energy =            421.4945960923766961
    One-Electron Energy =               -1301.7310514336411416
    Two-Electron Energy =                 536.0126616097700207
    DFT Exchange-Correlation Energy =       0.0000000000000000
    Empirical Dispersion Energy =           0.0000000000000000
    PCM Polarization Energy =               0.0000000000000000
    EFP Energy =                            0.0000000000000000
    Total Energy =                       -344.2237937314944247

    Alert: EFP and PCM quantities not currently incorporated into SCF psivars.

Properties will be evaluated at   0.000000,   0.000000,   0.000000 Bohr
  ==> Properties <==


Properties computed using the SCF density matrix

  Nuclear Dipole Moment: (a.u.)
     X:    -0.0022      Y:    -0.0236      Z:     0.0113

  Electronic Dipole Moment: (a.u.)
     X:    -0.0248      Y:    -0.0161      Z:    -0.0347

  Dipole Moment: (a.u.)
     X:    -0.0270      Y:    -0.0398      Z:    -0.0235     Total:     0.0535

  Dipole Moment: (Debye)
     X:    -0.0685      Y:    -0.1011      Z:    -0.0596     Total:     0.1359


  Saving occupied orbitals to File 180.

*** tstop() called on cx1-3-4-4.cx1.hpc.ic.ac.uk at Tue Jul  5 16:29:20 2016
Module time:
	user time   =      16.31 seconds =       0.27 minutes
	system time =       0.19 seconds =       0.00 minutes
	total time  =         17 seconds =       0.28 minutes
Total time:
	user time   =      16.31 seconds =       0.27 minutes
	system time =       0.19 seconds =       0.00 minutes
	total time  =         17 seconds =       0.28 minutes


Properties will be evaluated at   0.000000,   0.000000,   0.000000 Bohr

Properties computed using the  density matrix

  Nuclear Dipole Moment: (a.u.)
     X:    -0.0022      Y:    -0.0236      Z:     0.0113

  Electronic Dipole Moment: (a.u.)
     X:    -0.0248      Y:    -0.0161      Z:    -0.0347

  Dipole Moment: (a.u.)
     X:    -0.0270      Y:    -0.0398      Z:    -0.0235     Total:     0.0535

  Dipole Moment: (Debye)
     X:    -0.0685      Y:    -0.1011      Z:    -0.0596     Total:     0.1359

  Quadrupole Moment: (Debye Ang)
    XX:   -48.8053     YY:   -52.9884     ZZ:   -50.9793
    XY:     1.1072     XZ:     0.7657     YZ:    -3.0313

  Traceless Quadrupole Moment: (Debye Ang)
    XX:     2.1190     YY:    -2.0641     ZZ:    -0.0550
    XY:     1.1072     XZ:     0.7657     YZ:    -3.0313

  Mulliken Charges: (a.u.)
   Center  Symbol    Alpha    Beta     Spin     Total
       1     H     0.42163  0.42163  0.00000  0.15673
       2     C     3.14102  3.14102  0.00000 -0.28203
       3     N     3.78617  3.78617  0.00000 -0.57233
       4     H     0.42463  0.42463  0.00000  0.15074
       5     H     0.41568  0.41568  0.00000  0.16863
       6     C     3.05902  3.05902  0.00000 -0.11803
       7     C     3.05999  3.05999  0.00000 -0.11998
       8     H     0.42845  0.42845  0.00000  0.14311
       9     H     0.41704  0.41704  0.00000  0.16593
      10     C     3.05647  3.05647  0.00000 -0.11293
      11     H     0.41700  0.41700  0.00000  0.16600
      12     H     0.42859  0.42859  0.00000  0.14283
      13     C     3.05639  3.05639  0.00000 -0.11279
      14     H     0.41827  0.41827  0.00000  0.16347
      15     H     0.42855  0.42855  0.00000  0.14290
      16     N     3.78712  3.78712  0.00000 -0.57424
      17     H     0.41819  0.41819  0.00000  0.16362
      18     H     0.42850  0.42850  0.00000  0.14299
      19     C     3.14013  3.14013  0.00000 -0.28025
      20     H     0.41685  0.41685  0.00000  0.16630
      21     H     0.41687  0.41687  0.00000  0.16626
      22     H     0.43346  0.43346  0.00000  0.13309

   Total alpha = 32.00000, Total beta = 32.00000, Total charge =  0.00000


*** PSI4 exiting successfully. Buy a developer a beer!
