
    -----------------------------------------------------------------------
          Psi4: An Open-Source Ab Initio Electronic Structure Package
                               Psi4 1.1 release

                         Git: Rev {HEAD} add49b9 


    R. M. Parrish, L. A. Burns, D. G. A. Smith, A. C. Simmonett,
    A. E. DePrince III, E. G. Hohenstein, U. Bozkaya, A. Yu. Sokolov,
    R. Di Remigio, R. M. Richard, J. F. Gonthier, A. M. James,
    H. R. McAlexander, A. Kumar, M. Saitow, X. Wang, B. P. Pritchard,
    P. Verma, H. F. Schaefer III, K. Patkowski, R. A. King, E. F. Valeev,
    F. A. Evangelista, J. M. Turney, T. D. Crawford, and C. D. Sherrill,
    J. Chem. Theory Comput. in press (2017).
    (doi: 10.1021/acs.jctc.7b00174)

    -----------------------------------------------------------------------


    Psi4 started on: Friday, 11 August 2017 02:09PM

    Process ID:   7642
    PSIDATADIR: /home/raimis/opt/miniconda3/envs/htmd/share/psi4
    Memory:     500.0 MiB
    Threads:    1
    
  ==> Input File <==

--------------------------------------------------------------------------
set {
	reference rks
	basis cc-pvdz
}


set_num_threads( 8 )
memory 2 gb

molecule MOL {
0 1

O	 1.014300	 -0.002300	 0.060500
O	 2.462400	 -0.107500	 -0.002400
H	 0.983546	 0.908980	 0.409247
H	 2.655500	 0.713700	 0.488700

	symmetry c1
}
set optking { dynamic_level = 1 }
set optking {
	frozen_dihedral = ("
		3 1 2 4
	")
}

ee,wfn = optimize('b3lyp-d3', return_wfn=True)
oeprop( wfn, 'DIPOLE', 'QUADRUPOLE', 'MULLIKEN_CHARGES')
f=open( 'psi4out.xyz', 'w' )
f.write( "4  " )
f.write( str(ee) + "\n" )
f.write( MOL.save_string_xyz() )
f.close()
--------------------------------------------------------------------------
  Threads set to 8 by Python driver.

  Memory set to   1.863 GiB by Python driver.
gradient() will perform analytic gradient computation.

*** tstart() called on computer03
*** at Fri Aug 11 14:09:35 2017

   => Loading Basis Set <=

    Name: CC-PVDZ
    Role: ORBITAL
    Keyword: BASIS
    atoms 1-2 entry O          line   190 file /home/raimis/opt/miniconda3/envs/htmd/share/psi4/basis/cc-pvdz.gbs 
    atoms 3-4 entry H          line    20 file /home/raimis/opt/miniconda3/envs/htmd/share/psi4/basis/cc-pvdz.gbs 


         ---------------------------------------------------------
                                   SCF
            by Justin Turney, Rob Parrish, and Andy Simmonett
                              RKS Reference
                        8 Threads,   1907 MiB Core
         ---------------------------------------------------------

  ==> Geometry <==

    Molecular point group: c1
    Full point group: C1

    Geometry (in Angstrom), charge = 0, multiplicity = 1:

       Center              X                  Y                   Z               Mass       
    ------------   -----------------  -----------------  -----------------  -----------------
           O         -0.728861470563     0.001254253746     0.006559339817    15.994914619560
           O          0.719238529437    -0.103945746254    -0.056340660183    15.994914619560
           H         -0.759615470563     0.912534253746     0.355306339817     1.007825032070
           H          0.912338529437     0.717254253746     0.434759339817     1.007825032070

  Running in c1 symmetry.

  Rotational constants: A =      9.45477  B =      0.92009  C =      0.83960 [cm^-1]
  Rotational constants: A = 283446.78857  B =  27583.45604  C =  25170.50295 [MHz]
  Nuclear repulsion =   36.890404745546576

  Charge       = 0
  Multiplicity = 1
  Electrons    = 18
  Nalpha       = 9
  Nbeta        = 9

  ==> Algorithm <==

  SCF Algorithm Type is DF.
  DIIS enabled.
  MOM disabled.
  Fractional occupation disabled.
  Guess Type is SAD.
  Energy threshold   = 1.00e-08
  Density threshold  = 1.00e-08
  Integral threshold = 0.00e+00

  ==> Primary Basis <==

  Basis Set: CC-PVDZ
    Blend: CC-PVDZ
    Number of shells: 18
    Number of basis function: 38
    Number of Cartesian functions: 40
    Spherical Harmonics?: true
    Max angular momentum: 2

  ==> DFT Potential <==

   => B3LYP Composite Functional <= 

    B3LYP Hybrid-GGA Exchange-Correlation Functional (VWN1-RPA)

    P.J. Stephens et. al., J. Phys. Chem., 98, 11623-11627, 1994

    Points   =           5000
    Deriv    =              1
    GGA      =           TRUE
    Meta     =          FALSE

    X_LRC        =          FALSE
    X_Hybrid     =           TRUE
    X_Alpha      =   2.000000E-01
    X_Omega      =   0.000000E+00
    C_LRC        =          FALSE
    C_Hybrid     =          FALSE
    C_Alpha      =   0.000000E+00
    C_Omega      =   0.000000E+00

   => Exchange Functionals <=

    0.8000    B3_X
    0.2000      HF 

   => Correlation Functionals <=

    0.1900 VWN3RPA_C
    0.8100   LYP_C

   => Molecular Quadrature <=

    Radial Scheme    =       TREUTLER
    Pruning Scheme   =           FLAT
    Nuclear Scheme   =       TREUTLER

    BS radius alpha  =              1
    Pruning alpha    =              1
    Radial Points    =             75
    Spherical Points =            302
    Total Points     =          88274
    Total Blocks     =             87
    Max Points       =           4765
    Max Functions    =             38

   => -D3ZERO: Empirical Dispersion <=

    Grimme's -D3 (zero-damping) Dispersion Correction
    Grimme S.; Antony J.; Ehrlich S.; Krieg H. (2010), J. Chem. Phys., 132: 154104

        S6 =   1.000000E+00
        S8 =   1.703000E+00
       SR6 =   1.261000E+00
    ALPHA6 =   1.400000E+01

   => Loading Basis Set <=

    Name: (CC-PVDZ AUX)
    Role: JKFIT
    Keyword: DF_BASIS_SCF
    atoms 1-2 entry O          line   220 file /home/raimis/opt/miniconda3/envs/htmd/share/psi4/basis/cc-pvdz-jkfit.gbs 
    atoms 3-4 entry H          line    50 file /home/raimis/opt/miniconda3/envs/htmd/share/psi4/basis/cc-pvdz-jkfit.gbs 

  ==> Pre-Iterations <==

   -------------------------------------------------------
    Irrep   Nso     Nmo     Nalpha   Nbeta   Ndocc  Nsocc
   -------------------------------------------------------
     A         38      38       0       0       0       0
   -------------------------------------------------------
    Total      38      38       9       9       9       0
   -------------------------------------------------------

  ==> Integral Setup <==

  ==> DFJK: Density-Fitted J/K Matrices <==

    J tasked:                  Yes
    K tasked:                  Yes
    wK tasked:                  No
    OpenMP threads:              8
    Integrals threads:           8
    Memory (MB):              1430
    Algorithm:                Core
    Integral Cache:           NONE
    Schwarz Cutoff:          1E-12
    Fitting Condition:       1E-12

   => Auxiliary Basis Set <=

  Basis Set: (CC-PVDZ AUX)
    Blend: CC-PVDZ-JKFIT
    Number of shells: 66
    Number of basis function: 186
    Number of Cartesian functions: 212
    Spherical Harmonics?: true
    Max angular momentum: 3

  Minimum eigenvalue in the overlap matrix is 2.3595261545E-02.
  Using Symmetric Orthogonalization.

  SCF Guess: Superposition of Atomic Densities via on-the-fly atomic UHF.

  ==> Iterations <==

                           Total Energy        Delta E     RMS |[F,P]|

   @DF-RKS iter   0:  -151.54664917092748   -1.51547e+02   7.75943e-02 
   @DF-RKS iter   1:  -151.49500634999015    5.16428e-02   1.52712e-02 
   @DF-RKS iter   2:  -151.48780108460971    7.20527e-03   1.57173e-02 DIIS
   @DF-RKS iter   3:  -151.53357557532394   -4.57745e-02   1.22966e-03 DIIS
   @DF-RKS iter   4:  -151.53386427540494   -2.88700e-04   2.25713e-04 DIIS
   @DF-RKS iter   5:  -151.53386220517103    2.07023e-06   1.86833e-04 DIIS
   @DF-RKS iter   6:  -151.53387136174447   -9.15657e-06   5.41369e-06 DIIS
   @DF-RKS iter   7:  -151.53387137441223   -1.26678e-08   1.73295e-06 DIIS
   @DF-RKS iter   8:  -151.53387137497734   -5.65109e-10   1.55135e-07 DIIS
   @DF-RKS iter   9:  -151.53387137499377   -1.64277e-11   2.63812e-08 DIIS
   @DF-RKS iter  10:  -151.53387137499439   -6.25278e-13   5.23528e-09 DIIS

  ==> Post-Iterations <==

    Orbital Energies (a.u.)
    -----------------------

    Doubly Occupied:                                                      

       1A    -19.192009     2A    -19.191980     3A     -1.122235  
       4A     -0.887505     5A     -0.562247     6A     -0.428491  
       7A     -0.400978     8A     -0.375732     9A     -0.247383  

    Virtual:                                                              

      10A      0.008001    11A      0.020353    12A      0.135265  
      13A      0.542709    14A      0.573590    15A      0.860949  
      16A      0.864797    17A      0.922471    18A      0.934422  
      19A      0.985721    20A      1.068035    21A      1.147532  
      22A      1.228969    23A      1.341898    24A      1.519269  
      25A      1.658270    26A      1.808623    27A      2.007250  
      28A      2.111389    29A      2.296126    30A      2.372707  
      31A      2.626570    32A      2.849380    33A      2.925911  
      34A      2.992700    35A      3.200867    36A      3.490449  
      37A      3.544959    38A      3.824530  

    Final Occupation by Irrep:
              A 
    DOCC [     9 ]

  Energy converged.

  @DF-RKS Final Energy:  -151.53387137499439

   => Energetics <=

    Nuclear Repulsion Energy =             36.8904047455465758
    One-Electron Energy =                -281.6465784150748277
    Two-Electron Energy =                 107.6857519597542137
    DFT Exchange-Correlation Energy =     -14.4632723152203280
    Empirical Dispersion Energy =          -0.0001773500000000
    PCM Polarization Energy =               0.0000000000000000
    EFP Energy =                            0.0000000000000000
    Total Energy =                       -151.5338713749943906



Properties will be evaluated at   0.000000,   0.000000,   0.000000 Bohr

Properties computed using the SCF density matrix

  Nuclear Dipole Moment: (a.u.)
     X:     0.1431      Y:     1.5274      Z:     0.7404

  Electronic Dipole Moment: (a.u.)
     X:    -0.0399      Y:    -0.4253      Z:    -0.2062

  Dipole Moment: (a.u.)
     X:     0.1033      Y:     1.1020      Z:     0.5342     Total:     1.2291

  Dipole Moment: (Debye)
     X:     0.2625      Y:     2.8011      Z:     1.3579     Total:     3.1240


*** tstop() called on computer03 at Fri Aug 11 14:09:41 2017
Module time:
	user time   =      18.88 seconds =       0.31 minutes
	system time =       0.66 seconds =       0.01 minutes
	total time  =          6 seconds =       0.10 minutes
Total time:
	user time   =      18.88 seconds =       0.31 minutes
	system time =       0.66 seconds =       0.01 minutes
	total time  =          6 seconds =       0.10 minutes

*** tstart() called on computer03
*** at Fri Aug 11 14:09:41 2017


         ------------------------------------------------------------
                                   SCF GRAD                          
                          Rob Parrish, Justin Turney,                
                       Andy Simmonett, and Alex Sokolov              
         ------------------------------------------------------------

  ==> Geometry <==

    Molecular point group: c1
    Full point group: C1

    Geometry (in Angstrom), charge = 0, multiplicity = 1:

       Center              X                  Y                   Z               Mass       
    ------------   -----------------  -----------------  -----------------  -----------------
           O         -0.728861470563     0.001254253746     0.006559339817    15.994914619560
           O          0.719238529437    -0.103945746254    -0.056340660183    15.994914619560
           H         -0.759615470563     0.912534253746     0.355306339817     1.007825032070
           H          0.912338529437     0.717254253746     0.434759339817     1.007825032070

  Nuclear repulsion =   36.890404745546576

  ==> Basis Set <==

  Basis Set: CC-PVDZ
    Blend: CC-PVDZ
    Number of shells: 18
    Number of basis function: 38
    Number of Cartesian functions: 40
    Spherical Harmonics?: true
    Max angular momentum: 2

  ==> DFJKGrad: Density-Fitted SCF Gradients <==

    Gradient:                    1
    J tasked:                  Yes
    K tasked:                  Yes
    wK tasked:                  No
    OpenMP threads:              8
    Integrals threads:           8
    Memory (MB):              1430
    Schwarz Cutoff:          0E+00
    Fitting Condition:       1E-12

   => Auxiliary Basis Set <=

  Basis Set: (CC-PVDZ AUX)
    Blend: CC-PVDZ-JKFIT
    Number of shells: 66
    Number of basis function: 186
    Number of Cartesian functions: 212
    Spherical Harmonics?: true
    Max angular momentum: 3

  ==> DFT Potential <==

   => B3LYP Composite Functional <= 

    B3LYP Hybrid-GGA Exchange-Correlation Functional (VWN1-RPA)

    P.J. Stephens et. al., J. Phys. Chem., 98, 11623-11627, 1994

    Points   =           5000
    Deriv    =              1
    GGA      =           TRUE
    Meta     =          FALSE

    X_LRC        =          FALSE
    X_Hybrid     =           TRUE
    X_Alpha      =   2.000000E-01
    X_Omega      =   0.000000E+00
    C_LRC        =          FALSE
    C_Hybrid     =          FALSE
    C_Alpha      =   0.000000E+00
    C_Omega      =   0.000000E+00

   => Exchange Functionals <=

    0.8000    B3_X
    0.2000      HF 

   => Correlation Functionals <=

    0.1900 VWN3RPA_C
    0.8100   LYP_C

   => Molecular Quadrature <=

    Radial Scheme    =       TREUTLER
    Pruning Scheme   =           FLAT
    Nuclear Scheme   =       TREUTLER

    BS radius alpha  =              1
    Pruning alpha    =              1
    Radial Points    =             75
    Spherical Points =            302
    Total Points     =          88274
    Total Blocks     =             87
    Max Points       =           4765
    Max Functions    =             38


  -Total Gradient:
     Atom            X                  Y                   Z
    ------   -----------------  -----------------  -----------------
       1        0.006602075550    -0.007875153971    -0.003991457956
       2       -0.007973374221    -0.006837650683    -0.003133437556
       3        0.019592330868     0.005140065196     0.004559855078
       4       -0.018221431792     0.009568478516     0.002562974729


*** tstop() called on computer03 at Fri Aug 11 14:09:42 2017
Module time:
	user time   =       5.15 seconds =       0.09 minutes
	system time =       0.24 seconds =       0.00 minutes
	total time  =          1 seconds =       0.02 minutes
Total time:
	user time   =      24.08 seconds =       0.40 minutes
	system time =       0.90 seconds =       0.02 minutes
	total time  =          7 seconds =       0.12 minutes

			-----------------------------------------
			 OPTKING 2.0: for geometry optimizations 
			  - R.A. King,  Bethel University        
			-----------------------------------------
	At level 1: Red. Int., RFO, no backsteps, dynamic trust

	Internal coordinates to be generated automatically.
	Detected frag 1 with atoms:  1 2 3 4
	---Fragment 1 Bond Connectivity---
	 1 : 2 3
	 2 : 1 4
	 3 : 1
	 4 : 2

	Assuming in current code that numbering for constraints corresponds to unified fragment.
	Frozen dihedral atom list: 
	     3     1     2     4
	---Fragment 1 Geometry and Gradient---
	 O          -1.3773485682        0.0023701961        0.0123953559
	 O           1.3591638449       -0.1964289931       -0.1064684179
	 H          -1.4354652057        1.7244398265        0.6714316755
	 H           1.7240699611        1.3554141072        0.8215760860
	             0.0066020756       -0.0078751540       -0.0039914580
	            -0.0079733742       -0.0068376507       -0.0031334376
	             0.0195923309        0.0051400652        0.0045598551
	            -0.0182214318        0.0095684785        0.0025629747

	Previous optimization step data not found.  Starting new optimization.

	---Fragment 1 Intrafragment Coordinates---
	 - Coordinate -           - BOHR/RAD -       - ANG/DEG -
	 R(1,2)           =         2.746297	       1.453278
	 R(1,3)           =         1.844785	       0.976218
	 R(2,4)           =         1.844625	       0.976133
	 B(1,2,4)         =         1.685490	      96.571484
	 B(2,1,3)         =         1.685473	      96.570506
	*D(3,1,2,4)       =         0.174533	       9.999988

	Current energy   :      -151.5338713750

	Generating empirical Hessian (Schlegel '84) for each fragment.
	Taking RFO optimization step.
	Going to follow RFO solution 1.
	Using RFO vector 1.
	Norm of target step-size    0.29914
	Projected energy change by RFO approximation:        -0.0119441009

	Back-transformation to cartesian coordinates...
	Successfully converged to displaced geometry.

	Back-transformation to cartesian coordinates to adjust frozen coordinates...
	Successfully converged to displaced geometry.

	--- Internal Coordinate Step in ANG or DEG, aJ/ANG or AJ/DEG ---
	 ---------------------------------------------------------------------------
	   Coordinate                Previous        Force       Change         New 
	   ----------                --------       ------       ------       ------
	    1 R(1,2)          =      1.453278     0.216469     0.035194     1.488472
	    2 R(1,3)          =      0.976218    -0.047876    -0.005714     0.970504
	    3 R(2,4)          =      0.976133    -0.047256    -0.005639     0.970495
	    4 B(1,2,4)        =     96.571484     0.002772    11.794951   108.366435
	    5 B(2,1,3)        =     96.570506     0.002772    11.796869   108.367376
	    6 *D(3,1,2,4)     =      9.999988     0.000000     0.000000     9.999988
	 ---------------------------------------------------------------------------
	Successfully symmetrized geometry.

  ==> Convergence Check <==

  Measures of convergence in internal coordinates in au.
  Criteria marked as inactive (o), active & met (*), and active & unmet ( ).
  --------------------------------------------------------------------------------------------- ~
   Step     Total Energy     Delta E     MAX Force     RMS Force      MAX Disp      RMS Disp    ~
  --------------------------------------------------------------------------------------------- ~
    Convergence Criteria    1.00e-06 *    3.00e-04 *             o    1.20e-03 *             o  ~
  --------------------------------------------------------------------------------------------- ~
      1    -151.53387137   -1.52e+02      3.64e-02      2.38e-02 o    2.06e-01      1.22e-01 o  ~
  ---------------------------------------------------------------------------------------------

	Writing optimization data to binary file.
	Structure for next step:
	Cartesian Geometry (in Angstrom)
	    O    -0.7443606241   0.0291594799   0.0078459195
	    O     0.7388021553  -0.0883449535  -0.0365405151
	    H    -0.9713581624   0.9110065189   0.3435469634
	    H     1.1200167489   0.6752759696   0.4254319915
			--------------------------
			 OPTKING Finished Execution 
			--------------------------

    Structure for next step:
    Molecular point group: c1
    Full point group: C1

    Geometry (in Angstrom), charge = 0, multiplicity = 1:

    O           -0.746151941599     0.009985258080    -0.001447542570
    O            0.737010837760    -0.107519175305    -0.045833977231
    H           -0.973149479938     0.891832297142     0.334253501252
    H            1.118225431402     0.656101747839     0.416138529342

gradient() will perform analytic gradient computation.

*** tstart() called on computer03
*** at Fri Aug 11 14:09:42 2017

   => Loading Basis Set <=

    Name: CC-PVDZ
    Role: ORBITAL
    Keyword: BASIS
    atoms 1-2 entry O          line   190 file /home/raimis/opt/miniconda3/envs/htmd/share/psi4/basis/cc-pvdz.gbs 
    atoms 3-4 entry H          line    20 file /home/raimis/opt/miniconda3/envs/htmd/share/psi4/basis/cc-pvdz.gbs 


         ---------------------------------------------------------
                                   SCF
            by Justin Turney, Rob Parrish, and Andy Simmonett
                              RKS Reference
                        8 Threads,   1907 MiB Core
         ---------------------------------------------------------

  ==> Geometry <==

    Molecular point group: c1
    Full point group: C1

    Geometry (in Angstrom), charge = 0, multiplicity = 1:

       Center              X                  Y                   Z               Mass       
    ------------   -----------------  -----------------  -----------------  -----------------
           O         -0.746151941599     0.009985258080    -0.001447542570    15.994914619560
           O          0.737010837760    -0.107519175305    -0.045833977231    15.994914619560
           H         -0.973149479938     0.891832297142     0.334253501252     1.007825032070
           H          1.118225431402     0.656101747839     0.416138529342     1.007825032070

  Running in c1 symmetry.

  Rotational constants: A =     10.48396  B =      0.84482  C =      0.78265 [cm^-1]
  Rotational constants: A = 314301.35089  B =  25326.97600  C =  23463.39358 [MHz]
  Nuclear repulsion =   35.926541344614904

  Charge       = 0
  Multiplicity = 1
  Electrons    = 18
  Nalpha       = 9
  Nbeta        = 9

  ==> Algorithm <==

  SCF Algorithm Type is DF.
  DIIS enabled.
  MOM disabled.
  Fractional occupation disabled.
  Guess Type is READ.
  Energy threshold   = 1.00e-08
  Density threshold  = 1.00e-08
  Integral threshold = 0.00e+00

  ==> Primary Basis <==

  Basis Set: CC-PVDZ
    Blend: CC-PVDZ
    Number of shells: 18
    Number of basis function: 38
    Number of Cartesian functions: 40
    Spherical Harmonics?: true
    Max angular momentum: 2

  ==> DFT Potential <==

   => B3LYP Composite Functional <= 

    B3LYP Hybrid-GGA Exchange-Correlation Functional (VWN1-RPA)

    P.J. Stephens et. al., J. Phys. Chem., 98, 11623-11627, 1994

    Points   =           5000
    Deriv    =              1
    GGA      =           TRUE
    Meta     =          FALSE

    X_LRC        =          FALSE
    X_Hybrid     =           TRUE
    X_Alpha      =   2.000000E-01
    X_Omega      =   0.000000E+00
    C_LRC        =          FALSE
    C_Hybrid     =          FALSE
    C_Alpha      =   0.000000E+00
    C_Omega      =   0.000000E+00

   => Exchange Functionals <=

    0.8000    B3_X
    0.2000      HF 

   => Correlation Functionals <=

    0.1900 VWN3RPA_C
    0.8100   LYP_C

   => Molecular Quadrature <=

    Radial Scheme    =       TREUTLER
    Pruning Scheme   =           FLAT
    Nuclear Scheme   =       TREUTLER

    BS radius alpha  =              1
    Pruning alpha    =              1
    Radial Points    =             75
    Spherical Points =            302
    Total Points     =          88310
    Total Blocks     =             86
    Max Points       =           4820
    Max Functions    =             38

   => -D3ZERO: Empirical Dispersion <=

    Grimme's -D3 (zero-damping) Dispersion Correction
    Grimme S.; Antony J.; Ehrlich S.; Krieg H. (2010), J. Chem. Phys., 132: 154104

        S6 =   1.000000E+00
        S8 =   1.703000E+00
       SR6 =   1.261000E+00
    ALPHA6 =   1.400000E+01

   => Loading Basis Set <=

    Name: (CC-PVDZ AUX)
    Role: JKFIT
    Keyword: DF_BASIS_SCF
    atoms 1-2 entry O          line   220 file /home/raimis/opt/miniconda3/envs/htmd/share/psi4/basis/cc-pvdz-jkfit.gbs 
    atoms 3-4 entry H          line    50 file /home/raimis/opt/miniconda3/envs/htmd/share/psi4/basis/cc-pvdz-jkfit.gbs 

  Reading orbitals from file 180, no projection.

  ==> Pre-Iterations <==

   -------------------------------------------------------
    Irrep   Nso     Nmo     Nalpha   Nbeta   Ndocc  Nsocc
   -------------------------------------------------------
     A         38      38       0       0       0       0
   -------------------------------------------------------
    Total      38      38       9       9       9       0
   -------------------------------------------------------

  ==> Integral Setup <==

  ==> DFJK: Density-Fitted J/K Matrices <==

    J tasked:                  Yes
    K tasked:                  Yes
    wK tasked:                  No
    OpenMP threads:              8
    Integrals threads:           8
    Memory (MB):              1430
    Algorithm:                Core
    Integral Cache:           NONE
    Schwarz Cutoff:          1E-12
    Fitting Condition:       1E-12

   => Auxiliary Basis Set <=

  Basis Set: (CC-PVDZ AUX)
    Blend: CC-PVDZ-JKFIT
    Number of shells: 66
    Number of basis function: 186
    Number of Cartesian functions: 212
    Spherical Harmonics?: true
    Max angular momentum: 3

  Minimum eigenvalue in the overlap matrix is 2.6833710400E-02.
  Using Symmetric Orthogonalization.

  SCF Guess: Orbitals guess was supplied from a previous computation.

  ==> Iterations <==

                           Total Energy        Delta E     RMS |[F,P]|

   @DF-RKS iter   0:  -151.52613370822277   -1.51526e+02   7.07003e-03 
   @DF-RKS iter   1:  -151.53635920126808   -1.02255e-02   1.58513e-03 
   @DF-RKS iter   2:  -151.53681521769070   -4.56016e-04   1.13041e-03 DIIS
   @DF-RKS iter   3:  -151.53712960111793   -3.14383e-04   3.73461e-04 DIIS
   @DF-RKS iter   4:  -151.53715718000640   -2.75789e-05   3.23146e-05 DIIS
   @DF-RKS iter   5:  -151.53715750940123   -3.29395e-07   3.15087e-06 DIIS
   @DF-RKS iter   6:  -151.53715750803903    1.36220e-09   4.07088e-06 DIIS
   @DF-RKS iter   7:  -151.53715751434069   -6.30166e-09   1.33554e-07 DIIS
   @DF-RKS iter   8:  -151.53715751434908   -8.38440e-12   1.92807e-08 DIIS
   @DF-RKS iter   9:  -151.53715751434922   -1.42109e-13   2.12300e-09 DIIS

  ==> Post-Iterations <==

    Orbital Energies (a.u.)
    -----------------------

    Doubly Occupied:                                                      

       1A    -19.190684     2A    -19.190657     3A     -1.092994  
       4A     -0.902124     5A     -0.560421     6A     -0.410393  
       7A     -0.389915     8A     -0.370365     9A     -0.250661  

    Virtual:                                                              

      10A     -0.008365    11A      0.027498    12A      0.123482  
      13A      0.546924    14A      0.582909    15A      0.854800  
      16A      0.869962    17A      0.953891    18A      0.959639  
      19A      0.978328    20A      1.076639    21A      1.259491  
      22A      1.287819    23A      1.350069    24A      1.458494  
      25A      1.531006    26A      1.824188    27A      2.032538  
      28A      2.101877    29A      2.341993    30A      2.363973  
      31A      2.652157    32A      2.858013    33A      2.907694  
      34A      2.961101    35A      3.143185    36A      3.544186  
      37A      3.554049    38A      3.746088  

    Final Occupation by Irrep:
              A 
    DOCC [     9 ]

  Energy converged.

  @DF-RKS Final Energy:  -151.53715751434922

   => Energetics <=

    Nuclear Repulsion Energy =             35.9265413446149040
    One-Electron Energy =                -279.8360377662561405
    Two-Electron Energy =                 106.8199799336497335
    DFT Exchange-Correlation Energy =     -14.4472321863577413
    Empirical Dispersion Energy =          -0.0004088400000000
    PCM Polarization Energy =               0.0000000000000000
    EFP Energy =                            0.0000000000000000
    Total Energy =                       -151.5371575143492464



Properties will be evaluated at   0.000000,   0.000000,   0.000000 Bohr

Properties computed using the SCF density matrix

  Nuclear Dipole Moment: (a.u.)
     X:     0.1360      Y:     1.4507      Z:     0.7032

  Electronic Dipole Moment: (a.u.)
     X:    -0.0322      Y:    -0.3434      Z:    -0.1665

  Dipole Moment: (a.u.)
     X:     0.1038      Y:     1.1073      Z:     0.5368     Total:     1.2349

  Dipole Moment: (Debye)
     X:     0.2638      Y:     2.8145      Z:     1.3644     Total:     3.1389


*** tstop() called on computer03 at Fri Aug 11 14:09:48 2017
Module time:
	user time   =      16.39 seconds =       0.27 minutes
	system time =       0.57 seconds =       0.01 minutes
	total time  =          6 seconds =       0.10 minutes
Total time:
	user time   =      40.72 seconds =       0.68 minutes
	system time =       1.48 seconds =       0.02 minutes
	total time  =         13 seconds =       0.22 minutes

*** tstart() called on computer03
*** at Fri Aug 11 14:09:48 2017


         ------------------------------------------------------------
                                   SCF GRAD                          
                          Rob Parrish, Justin Turney,                
                       Andy Simmonett, and Alex Sokolov              
         ------------------------------------------------------------

  ==> Geometry <==

    Molecular point group: c1
    Full point group: C1

    Geometry (in Angstrom), charge = 0, multiplicity = 1:

       Center              X                  Y                   Z               Mass       
    ------------   -----------------  -----------------  -----------------  -----------------
           O         -0.746151941599     0.009985258080    -0.001447542570    15.994914619560
           O          0.737010837760    -0.107519175305    -0.045833977231    15.994914619560
           H         -0.973149479938     0.891832297142     0.334253501252     1.007825032070
           H          1.118225431402     0.656101747839     0.416138529342     1.007825032070

  Nuclear repulsion =   35.926541344614904

  ==> Basis Set <==

  Basis Set: CC-PVDZ
    Blend: CC-PVDZ
    Number of shells: 18
    Number of basis function: 38
    Number of Cartesian functions: 40
    Spherical Harmonics?: true
    Max angular momentum: 2

  ==> DFJKGrad: Density-Fitted SCF Gradients <==

    Gradient:                    1
    J tasked:                  Yes
    K tasked:                  Yes
    wK tasked:                  No
    OpenMP threads:              8
    Integrals threads:           8
    Memory (MB):              1430
    Schwarz Cutoff:          0E+00
    Fitting Condition:       1E-12

   => Auxiliary Basis Set <=

  Basis Set: (CC-PVDZ AUX)
    Blend: CC-PVDZ-JKFIT
    Number of shells: 66
    Number of basis function: 186
    Number of Cartesian functions: 212
    Spherical Harmonics?: true
    Max angular momentum: 3

  ==> DFT Potential <==

   => B3LYP Composite Functional <= 

    B3LYP Hybrid-GGA Exchange-Correlation Functional (VWN1-RPA)

    P.J. Stephens et. al., J. Phys. Chem., 98, 11623-11627, 1994

    Points   =           5000
    Deriv    =              1
    GGA      =           TRUE
    Meta     =          FALSE

    X_LRC        =          FALSE
    X_Hybrid     =           TRUE
    X_Alpha      =   2.000000E-01
    X_Omega      =   0.000000E+00
    C_LRC        =          FALSE
    C_Hybrid     =          FALSE
    C_Alpha      =   0.000000E+00
    C_Omega      =   0.000000E+00

   => Exchange Functionals <=

    0.8000    B3_X
    0.2000      HF 

   => Correlation Functionals <=

    0.1900 VWN3RPA_C
    0.8100   LYP_C

   => Molecular Quadrature <=

    Radial Scheme    =       TREUTLER
    Pruning Scheme   =           FLAT
    Nuclear Scheme   =       TREUTLER

    BS radius alpha  =              1
    Pruning alpha    =              1
    Radial Points    =             75
    Spherical Points =            302
    Total Points     =          88310
    Total Blocks     =             86
    Max Points       =           4820
    Max Functions    =             38


  -Total Gradient:
     Atom            X                  Y                   Z
    ------   -----------------  -----------------  -----------------
       1       -0.013424778859     0.009253168210     0.000219074219
       2        0.014650319624     0.003776889111     0.006098245890
       3       -0.007363848827    -0.006903658443    -0.001036652218
       4        0.006138797956    -0.006121157535    -0.005278129981


*** tstop() called on computer03 at Fri Aug 11 14:09:49 2017
Module time:
	user time   =       6.10 seconds =       0.10 minutes
	system time =       0.25 seconds =       0.00 minutes
	total time  =          1 seconds =       0.02 minutes
Total time:
	user time   =      46.94 seconds =       0.78 minutes
	system time =       1.74 seconds =       0.03 minutes
	total time  =         14 seconds =       0.23 minutes

			-----------------------------------------
			 OPTKING 2.0: for geometry optimizations 
			  - R.A. King,  Bethel University        
			-----------------------------------------
	At level 1: Red. Int., RFO, no backsteps, dynamic trust

	Previous internal coordinate definitions found.
	---Fragment 1 Geometry and Gradient---
	 O          -1.4100228231        0.0188694031       -0.0027354590
	 O           1.3927486403       -0.2031817954       -0.0866136645
	 H          -1.8389860034        1.6853187981        0.6316475763
	 H           2.1131398202        1.2398526187        0.7863878538
	            -0.0134247789        0.0092531682        0.0002190742
	             0.0146503196        0.0037768891        0.0060982459
	            -0.0073638488       -0.0069036584       -0.0010366522
	             0.0061387980       -0.0061211575       -0.0052781300

	---Fragment 1 Intrafragment Coordinates---
	 - Coordinate -           - BOHR/RAD -       - ANG/DEG -
	 R(1,2)           =         2.812805	       1.488472
	 R(1,3)           =         1.833986	       0.970504
	 R(2,4)           =         1.833969	       0.970495
	 B(1,2,4)         =         1.891351	     108.366435
	 B(2,1,3)         =         1.891368	     108.367376
	*D(3,1,2,4)       =         0.174533	       9.999988

	Current energy   :      -151.5371575143

	Energy change for the previous step:
		Projected    :        -0.0119441009
		Actual       :        -0.0032861394

	Performing BFGS update.
	Previous computed or guess Hessian on step 1.
	Steps to be used in Hessian update: 1
	Taking RFO optimization step.
	Going to follow RFO solution 1.
	Using RFO vector 1.
	Norm of target step-size    0.09142
	Projected energy change by RFO approximation:        -0.0013178479

	Back-transformation to cartesian coordinates...
	Successfully converged to displaced geometry.

	Back-transformation to cartesian coordinates to adjust frozen coordinates...
	Successfully converged to displaced geometry.

	--- Internal Coordinate Step in ANG or DEG, aJ/ANG or AJ/DEG ---
	 ---------------------------------------------------------------------------
	   Coordinate                Previous        Force       Change         New 
	   ----------                --------       ------       ------       ------
	    1 R(1,2)          =      1.488472    -0.171987    -0.019013     1.469459
	    2 R(1,3)          =      0.970504     0.040456     0.003279     0.973783
	    3 R(2,4)          =      0.970495     0.040525     0.003285     0.973780
	    4 B(1,2,4)        =    108.366435    -0.001222    -3.386974   104.979461
	    5 B(2,1,3)        =    108.367376    -0.001222    -3.387706   104.979669
	    6 *D(3,1,2,4)     =      9.999988     0.000000     0.000000     9.999988
	 ---------------------------------------------------------------------------
	Successfully symmetrized geometry.

  ==> Convergence Check <==

  Measures of convergence in internal coordinates in au.
  Criteria marked as inactive (o), active & met (*), and active & unmet ( ).
  ---------------------------------------------------------------------------------------------
   Step     Total Energy     Delta E     MAX Force     RMS Force      MAX Disp      RMS Disp   
  ---------------------------------------------------------------------------------------------
    Convergence Criteria    1.00e-06 *    3.00e-04 *             o    1.20e-03 *             o
  ---------------------------------------------------------------------------------------------
      2    -151.53715751   -3.29e-03      2.09e-02      1.29e-02 o    5.91e-02      3.73e-02 o  ~
  ---------------------------------------------------------------------------------------------

	Writing optimization data to binary file.
	Structure for next step:
	Cartesian Geometry (in Angstrom)
	    O    -0.7375212594  -0.0009238362  -0.0031092036
	    O     0.7267310280  -0.1141438972  -0.0526725999
	    H    -0.9093030123   0.8944813649   0.3389335903
	    H     1.0560280913   0.6709864962   0.4199587240
			--------------------------
			 OPTKING Finished Execution 
			--------------------------

    Structure for next step:
    Molecular point group: c1
    Full point group: C1

    Geometry (in Angstrom), charge = 0, multiplicity = 1:

    O           -0.736794446458     0.006803767647     0.000637090096
    O            0.727457840952    -0.106416293285    -0.048926306177
    H           -0.908576199401     0.902208968799     0.342679884060
    H            1.056754904189     0.678714100100     0.423705017759

gradient() will perform analytic gradient computation.

*** tstart() called on computer03
*** at Fri Aug 11 14:09:49 2017

   => Loading Basis Set <=

    Name: CC-PVDZ
    Role: ORBITAL
    Keyword: BASIS
    atoms 1-2 entry O          line   190 file /home/raimis/opt/miniconda3/envs/htmd/share/psi4/basis/cc-pvdz.gbs 
    atoms 3-4 entry H          line    20 file /home/raimis/opt/miniconda3/envs/htmd/share/psi4/basis/cc-pvdz.gbs 


         ---------------------------------------------------------
                                   SCF
            by Justin Turney, Rob Parrish, and Andy Simmonett
                              RKS Reference
                        8 Threads,   1907 MiB Core
         ---------------------------------------------------------

  ==> Geometry <==

    Molecular point group: c1
    Full point group: C1

    Geometry (in Angstrom), charge = 0, multiplicity = 1:

       Center              X                  Y                   Z               Mass       
    ------------   -----------------  -----------------  -----------------  -----------------
           O         -0.736794446458     0.006803767647     0.000637090096    15.994914619560
           O          0.727457840952    -0.106416293285    -0.048926306177    15.994914619560
           H         -0.908576199401     0.902208968799     0.342679884060     1.007825032070
           H          1.056754904189     0.678714100100     0.423705017759     1.007825032070

  Running in c1 symmetry.

  Rotational constants: A =     10.05021  B =      0.87600  C =      0.80671 [cm^-1]
  Rotational constants: A = 301297.74076  B =  26261.85296  C =  24184.45531 [MHz]
  Nuclear repulsion =   36.326223716386643

  Charge       = 0
  Multiplicity = 1
  Electrons    = 18
  Nalpha       = 9
  Nbeta        = 9

  ==> Algorithm <==

  SCF Algorithm Type is DF.
  DIIS enabled.
  MOM disabled.
  Fractional occupation disabled.
  Guess Type is READ.
  Energy threshold   = 1.00e-08
  Density threshold  = 1.00e-08
  Integral threshold = 0.00e+00

  ==> Primary Basis <==

  Basis Set: CC-PVDZ
    Blend: CC-PVDZ
    Number of shells: 18
    Number of basis function: 38
    Number of Cartesian functions: 40
    Spherical Harmonics?: true
    Max angular momentum: 2

  ==> DFT Potential <==

   => B3LYP Composite Functional <= 

    B3LYP Hybrid-GGA Exchange-Correlation Functional (VWN1-RPA)

    P.J. Stephens et. al., J. Phys. Chem., 98, 11623-11627, 1994

    Points   =           5000
    Deriv    =              1
    GGA      =           TRUE
    Meta     =          FALSE

    X_LRC        =          FALSE
    X_Hybrid     =           TRUE
    X_Alpha      =   2.000000E-01
    X_Omega      =   0.000000E+00
    C_LRC        =          FALSE
    C_Hybrid     =          FALSE
    C_Alpha      =   0.000000E+00
    C_Omega      =   0.000000E+00

   => Exchange Functionals <=

    0.8000    B3_X
    0.2000      HF 

   => Correlation Functionals <=

    0.1900 VWN3RPA_C
    0.8100   LYP_C

   => Molecular Quadrature <=

    Radial Scheme    =       TREUTLER
    Pruning Scheme   =           FLAT
    Nuclear Scheme   =       TREUTLER

    BS radius alpha  =              1
    Pruning alpha    =              1
    Radial Points    =             75
    Spherical Points =            302
    Total Points     =          88300
    Total Blocks     =             86
    Max Points       =           4802
    Max Functions    =             38

   => -D3ZERO: Empirical Dispersion <=

    Grimme's -D3 (zero-damping) Dispersion Correction
    Grimme S.; Antony J.; Ehrlich S.; Krieg H. (2010), J. Chem. Phys., 132: 154104

        S6 =   1.000000E+00
        S8 =   1.703000E+00
       SR6 =   1.261000E+00
    ALPHA6 =   1.400000E+01

   => Loading Basis Set <=

    Name: (CC-PVDZ AUX)
    Role: JKFIT
    Keyword: DF_BASIS_SCF
    atoms 1-2 entry O          line   220 file /home/raimis/opt/miniconda3/envs/htmd/share/psi4/basis/cc-pvdz-jkfit.gbs 
    atoms 3-4 entry H          line    50 file /home/raimis/opt/miniconda3/envs/htmd/share/psi4/basis/cc-pvdz-jkfit.gbs 

  Reading orbitals from file 180, no projection.

  ==> Pre-Iterations <==

   -------------------------------------------------------
    Irrep   Nso     Nmo     Nalpha   Nbeta   Ndocc  Nsocc
   -------------------------------------------------------
     A         38      38       0       0       0       0
   -------------------------------------------------------
    Total      38      38       9       9       9       0
   -------------------------------------------------------

  ==> Integral Setup <==

  ==> DFJK: Density-Fitted J/K Matrices <==

    J tasked:                  Yes
    K tasked:                  Yes
    wK tasked:                  No
    OpenMP threads:              8
    Integrals threads:           8
    Memory (MB):              1430
    Algorithm:                Core
    Integral Cache:           NONE
    Schwarz Cutoff:          1E-12
    Fitting Condition:       1E-12

   => Auxiliary Basis Set <=

  Basis Set: (CC-PVDZ AUX)
    Blend: CC-PVDZ-JKFIT
    Number of shells: 66
    Number of basis function: 186
    Number of Cartesian functions: 212
    Spherical Harmonics?: true
    Max angular momentum: 3

  Minimum eigenvalue in the overlap matrix is 2.5336678208E-02.
  Using Symmetric Orthogonalization.

  SCF Guess: Orbitals guess was supplied from a previous computation.

  ==> Iterations <==

                           Total Energy        Delta E     RMS |[F,P]|

   @DF-RKS iter   0:  -151.54088414852433   -1.51541e+02   2.27112e-03 
   @DF-RKS iter   1:  -151.53869624049645    2.18791e-03   9.06612e-04 
   @DF-RKS iter   2:  -151.53877275410764   -7.65136e-05   3.96969e-04 DIIS
   @DF-RKS iter   3:  -151.53879742104505   -2.46669e-05   7.20529e-05 DIIS
   @DF-RKS iter   4:  -151.53879812434383   -7.03299e-07   1.13434e-05 DIIS
   @DF-RKS iter   5:  -151.53879816426479   -3.99210e-08   1.07285e-06 DIIS
   @DF-RKS iter   6:  -151.53879816439581   -1.31024e-10   8.63569e-07 DIIS
   @DF-RKS iter   7:  -151.53879816449907   -1.03256e-10   7.31781e-08 DIIS
   @DF-RKS iter   8:  -151.53879816450035   -1.27898e-12   1.07565e-08 DIIS
   @DF-RKS iter   9:  -151.53879816450032    2.84217e-14   9.71859e-10 DIIS

  ==> Post-Iterations <==

    Orbital Energies (a.u.)
    -----------------------

    Doubly Occupied:                                                      

       1A    -19.190525     2A    -19.190497     3A     -1.103557  
       4A     -0.896098     5A     -0.561708     6A     -0.416617  
       7A     -0.393685     8A     -0.371845     9A     -0.248187  

    Virtual:                                                              

      10A      0.005194    11A      0.021493    12A      0.127487  
      13A      0.551217    14A      0.577081    15A      0.856931  
      16A      0.869708    17A      0.945016    18A      0.947470  
      19A      0.979883    20A      1.071288    21A      1.253994  
      22A      1.255971    23A      1.342527    24A      1.500865  
      25A      1.534104    26A      1.818926    27A      2.026101  
      28A      2.098583    29A      2.320960    30A      2.368667  
      31A      2.638712    32A      2.853599    33A      2.931058  
      34A      2.963255    35A      3.174836    36A      3.532780  
      37A      3.540000    38A      3.780429  

    Final Occupation by Irrep:
              A 
    DOCC [     9 ]

  Energy converged.

  @DF-RKS Final Energy:  -151.53879816450032

   => Energetics <=

    Nuclear Repulsion Energy =             36.3262237163866430
    One-Electron Energy =                -280.6058584835069496
    Two-Electron Energy =                 107.1945894716561156
    DFT Exchange-Correlation Energy =     -14.4534352990361334
    Empirical Dispersion Energy =          -0.0003175700000000
    PCM Polarization Energy =               0.0000000000000000
    EFP Energy =                            0.0000000000000000
    Total Energy =                       -151.5387981645003208



Properties will be evaluated at   0.000000,   0.000000,   0.000000 Bohr

Properties computed using the SCF density matrix

  Nuclear Dipole Moment: (a.u.)
     X:     0.1389      Y:     1.4816      Z:     0.7182

  Electronic Dipole Moment: (a.u.)
     X:    -0.0346      Y:    -0.3688      Z:    -0.1788

  Dipole Moment: (a.u.)
     X:     0.1043      Y:     1.1128      Z:     0.5395     Total:     1.2410

  Dipole Moment: (Debye)
     X:     0.2651      Y:     2.8284      Z:     1.3711     Total:     3.1544


*** tstop() called on computer03 at Fri Aug 11 14:09:54 2017
Module time:
	user time   =      16.09 seconds =       0.27 minutes
	system time =       0.55 seconds =       0.01 minutes
	total time  =          5 seconds =       0.08 minutes
Total time:
	user time   =      63.44 seconds =       1.06 minutes
	system time =       2.30 seconds =       0.04 minutes
	total time  =         19 seconds =       0.32 minutes

*** tstart() called on computer03
*** at Fri Aug 11 14:09:54 2017


         ------------------------------------------------------------
                                   SCF GRAD                          
                          Rob Parrish, Justin Turney,                
                       Andy Simmonett, and Alex Sokolov              
         ------------------------------------------------------------

  ==> Geometry <==

    Molecular point group: c1
    Full point group: C1

    Geometry (in Angstrom), charge = 0, multiplicity = 1:

       Center              X                  Y                   Z               Mass       
    ------------   -----------------  -----------------  -----------------  -----------------
           O         -0.736794446458     0.006803767647     0.000637090096    15.994914619560
           O          0.727457840952    -0.106416293285    -0.048926306177    15.994914619560
           H         -0.908576199401     0.902208968799     0.342679884060     1.007825032070
           H          1.056754904189     0.678714100100     0.423705017759     1.007825032070

  Nuclear repulsion =   36.326223716386643

  ==> Basis Set <==

  Basis Set: CC-PVDZ
    Blend: CC-PVDZ
    Number of shells: 18
    Number of basis function: 38
    Number of Cartesian functions: 40
    Spherical Harmonics?: true
    Max angular momentum: 2

  ==> DFJKGrad: Density-Fitted SCF Gradients <==

    Gradient:                    1
    J tasked:                  Yes
    K tasked:                  Yes
    wK tasked:                  No
    OpenMP threads:              8
    Integrals threads:           8
    Memory (MB):              1430
    Schwarz Cutoff:          0E+00
    Fitting Condition:       1E-12

   => Auxiliary Basis Set <=

  Basis Set: (CC-PVDZ AUX)
    Blend: CC-PVDZ-JKFIT
    Number of shells: 66
    Number of basis function: 186
    Number of Cartesian functions: 212
    Spherical Harmonics?: true
    Max angular momentum: 3

  ==> DFT Potential <==

   => B3LYP Composite Functional <= 

    B3LYP Hybrid-GGA Exchange-Correlation Functional (VWN1-RPA)

    P.J. Stephens et. al., J. Phys. Chem., 98, 11623-11627, 1994

    Points   =           5000
    Deriv    =              1
    GGA      =           TRUE
    Meta     =          FALSE

    X_LRC        =          FALSE
    X_Hybrid     =           TRUE
    X_Alpha      =   2.000000E-01
    X_Omega      =   0.000000E+00
    C_LRC        =          FALSE
    C_Hybrid     =          FALSE
    C_Alpha      =   0.000000E+00
    C_Omega      =   0.000000E+00

   => Exchange Functionals <=

    0.8000    B3_X
    0.2000      HF 

   => Correlation Functionals <=

    0.1900 VWN3RPA_C
    0.8100   LYP_C

   => Molecular Quadrature <=

    Radial Scheme    =       TREUTLER
    Pruning Scheme   =           FLAT
    Nuclear Scheme   =       TREUTLER

    BS radius alpha  =              1
    Pruning alpha    =              1
    Radial Points    =             75
    Spherical Points =            302
    Total Points     =          88300
    Total Blocks     =             86
    Max Points       =           4802
    Max Functions    =             38


  -Total Gradient:
     Atom            X                  Y                   Z
    ------   -----------------  -----------------  -----------------
       1       -0.004620860014     0.001871961293    -0.001993989591
       2        0.004693328622    -0.001110984299     0.002363151746
       3       -0.001294545440    -0.001077995090     0.001509721541
       4        0.001222746063     0.000324157364    -0.001875422689


*** tstop() called on computer03 at Fri Aug 11 14:09:55 2017
Module time:
	user time   =       5.55 seconds =       0.09 minutes
	system time =       0.24 seconds =       0.00 minutes
	total time  =          1 seconds =       0.02 minutes
Total time:
	user time   =      69.10 seconds =       1.15 minutes
	system time =       2.54 seconds =       0.04 minutes
	total time  =         20 seconds =       0.33 minutes

			-----------------------------------------
			 OPTKING 2.0: for geometry optimizations 
			  - R.A. King,  Bethel University        
			-----------------------------------------
	At level 1: Red. Int., RFO, no backsteps, dynamic trust

	Previous internal coordinate definitions found.
	---Fragment 1 Geometry and Gradient---
	 O          -1.3923397200        0.0128572575        0.0012039258
	 O           1.3746960926       -0.2010976504       -0.0924573194
	 H          -1.7169601877        1.7049278657        0.6475711321
	 H           1.9969773585        1.2825837717        0.8006864447
	            -0.0046208600        0.0018719613       -0.0019939896
	             0.0046933286       -0.0011109843        0.0023631517
	            -0.0012945454       -0.0010779951        0.0015097215
	             0.0012227461        0.0003241574       -0.0018754227

	---Fragment 1 Intrafragment Coordinates---
	 - Coordinate -           - BOHR/RAD -       - ANG/DEG -
	 R(1,2)           =         2.776875	       1.469459
	 R(1,3)           =         1.840183	       0.973783
	 R(2,4)           =         1.840177	       0.973780
	 B(1,2,4)         =         1.832237	     104.979461
	 B(2,1,3)         =         1.832241	     104.979669
	*D(3,1,2,4)       =         0.174533	       9.999988

	Current energy   :      -151.5387981645

	Energy change for the previous step:
		Projected    :        -0.0013178479
		Actual       :        -0.0016406502
	Energy ratio indicates good step: Trust radius increased to 1.000e+00.


	Performing BFGS update.
	Previous computed or guess Hessian on step 1.
	Steps to be used in Hessian update: 2 1
	Taking RFO optimization step.
	Going to follow RFO solution 1.
	Using RFO vector 1.
	Norm of target step-size    0.01537
	Projected energy change by RFO approximation:        -0.0000565214

	Back-transformation to cartesian coordinates...
	Successfully converged to displaced geometry.

	Back-transformation to cartesian coordinates to adjust frozen coordinates...
	Successfully converged to displaced geometry.

	--- Internal Coordinate Step in ANG or DEG, aJ/ANG or AJ/DEG ---
	 ---------------------------------------------------------------------------
	   Coordinate                Previous        Force       Change         New 
	   ----------                --------       ------       ------       ------
	    1 R(1,2)          =      1.469459    -0.048930    -0.006252     1.463207
	    2 R(1,3)          =      0.973783     0.001931    -0.000061     0.973721
	    3 R(2,4)          =      0.973780     0.001954    -0.000058     0.973722
	    4 B(1,2,4)        =    104.979461    -0.000191    -0.398058   104.581403
	    5 B(2,1,3)        =    104.979669    -0.000191    -0.398236   104.581434
	    6 *D(3,1,2,4)     =      9.999988     0.000000     0.000000     9.999988
	 ---------------------------------------------------------------------------
	Successfully symmetrized geometry.

  ==> Convergence Check <==

  Measures of convergence in internal coordinates in au.
  Criteria marked as inactive (o), active & met (*), and active & unmet ( ).
  ---------------------------------------------------------------------------------------------
   Step     Total Energy     Delta E     MAX Force     RMS Force      MAX Disp      RMS Disp   
  ---------------------------------------------------------------------------------------------
    Convergence Criteria    1.00e-06 *    3.00e-04 *             o    1.20e-03 *             o
  ---------------------------------------------------------------------------------------------
      3    -151.53879816   -1.64e-03      5.94e-03      2.83e-03 o    1.18e-02      6.27e-03 o  ~
  ---------------------------------------------------------------------------------------------

	Writing optimization data to binary file.
	Structure for next step:
	Cartesian Geometry (in Angstrom)
	    O    -0.7337517812   0.0056195228   0.0005796980
	    O     0.7242733511  -0.1067224719  -0.0495916529
	    H    -0.8989080979   0.9020096202   0.3431314890
	    H     1.0472286272   0.6804038722   0.4239761516
			--------------------------
			 OPTKING Finished Execution 
			--------------------------

    Structure for next step:
    Molecular point group: c1
    Full point group: C1

    Geometry (in Angstrom), charge = 0, multiplicity = 1:

    O           -0.733689275445     0.006276390755     0.000898227602
    O            0.724335856850    -0.106065603936    -0.049273123315
    H           -0.898845592212     0.902666488203     0.343450018594
    H            1.047291132919     0.681060740226     0.424294681168

gradient() will perform analytic gradient computation.

*** tstart() called on computer03
*** at Fri Aug 11 14:09:55 2017

   => Loading Basis Set <=

    Name: CC-PVDZ
    Role: ORBITAL
    Keyword: BASIS
    atoms 1-2 entry O          line   190 file /home/raimis/opt/miniconda3/envs/htmd/share/psi4/basis/cc-pvdz.gbs 
    atoms 3-4 entry H          line    20 file /home/raimis/opt/miniconda3/envs/htmd/share/psi4/basis/cc-pvdz.gbs 


         ---------------------------------------------------------
                                   SCF
            by Justin Turney, Rob Parrish, and Andy Simmonett
                              RKS Reference
                        8 Threads,   1907 MiB Core
         ---------------------------------------------------------

  ==> Geometry <==

    Molecular point group: c1
    Full point group: C1

    Geometry (in Angstrom), charge = 0, multiplicity = 1:

       Center              X                  Y                   Z               Mass       
    ------------   -----------------  -----------------  -----------------  -----------------
           O         -0.733689275445     0.006276390755     0.000898227602    15.994914619560
           O          0.724335856850    -0.106065603936    -0.049273123315    15.994914619560
           H         -0.898845592212     0.902666488203     0.343450018594     1.007825032070
           H          1.047291132919     0.681060740226     0.424294681168     1.007825032070

  Running in c1 symmetry.

  Rotational constants: A =     10.01456  B =      0.88450  C =      0.81368 [cm^-1]
  Rotational constants: A = 300229.07137  B =  26516.63720  C =  24393.46232 [MHz]
  Nuclear repulsion =   36.450925170356925

  Charge       = 0
  Multiplicity = 1
  Electrons    = 18
  Nalpha       = 9
  Nbeta        = 9

  ==> Algorithm <==

  SCF Algorithm Type is DF.
  DIIS enabled.
  MOM disabled.
  Fractional occupation disabled.
  Guess Type is READ.
  Energy threshold   = 1.00e-08
  Density threshold  = 1.00e-08
  Integral threshold = 0.00e+00

  ==> Primary Basis <==

  Basis Set: CC-PVDZ
    Blend: CC-PVDZ
    Number of shells: 18
    Number of basis function: 38
    Number of Cartesian functions: 40
    Spherical Harmonics?: true
    Max angular momentum: 2

  ==> DFT Potential <==

   => B3LYP Composite Functional <= 

    B3LYP Hybrid-GGA Exchange-Correlation Functional (VWN1-RPA)

    P.J. Stephens et. al., J. Phys. Chem., 98, 11623-11627, 1994

    Points   =           5000
    Deriv    =              1
    GGA      =           TRUE
    Meta     =          FALSE

    X_LRC        =          FALSE
    X_Hybrid     =           TRUE
    X_Alpha      =   2.000000E-01
    X_Omega      =   0.000000E+00
    C_LRC        =          FALSE
    C_Hybrid     =          FALSE
    C_Alpha      =   0.000000E+00
    C_Omega      =   0.000000E+00

   => Exchange Functionals <=

    0.8000    B3_X
    0.2000      HF 

   => Correlation Functionals <=

    0.1900 VWN3RPA_C
    0.8100   LYP_C

   => Molecular Quadrature <=

    Radial Scheme    =       TREUTLER
    Pruning Scheme   =           FLAT
    Nuclear Scheme   =       TREUTLER

    BS radius alpha  =              1
    Pruning alpha    =              1
    Radial Points    =             75
    Spherical Points =            302
    Total Points     =          88298
    Total Blocks     =             86
    Max Points       =           4808
    Max Functions    =             38

   => -D3ZERO: Empirical Dispersion <=

    Grimme's -D3 (zero-damping) Dispersion Correction
    Grimme S.; Antony J.; Ehrlich S.; Krieg H. (2010), J. Chem. Phys., 132: 154104

        S6 =   1.000000E+00
        S8 =   1.703000E+00
       SR6 =   1.261000E+00
    ALPHA6 =   1.400000E+01

   => Loading Basis Set <=

    Name: (CC-PVDZ AUX)
    Role: JKFIT
    Keyword: DF_BASIS_SCF
    atoms 1-2 entry O          line   220 file /home/raimis/opt/miniconda3/envs/htmd/share/psi4/basis/cc-pvdz-jkfit.gbs 
    atoms 3-4 entry H          line    50 file /home/raimis/opt/miniconda3/envs/htmd/share/psi4/basis/cc-pvdz-jkfit.gbs 

  Reading orbitals from file 180, no projection.

  ==> Pre-Iterations <==

   -------------------------------------------------------
    Irrep   Nso     Nmo     Nalpha   Nbeta   Ndocc  Nsocc
   -------------------------------------------------------
     A         38      38       0       0       0       0
   -------------------------------------------------------
    Total      38      38       9       9       9       0
   -------------------------------------------------------

  ==> Integral Setup <==

  ==> DFJK: Density-Fitted J/K Matrices <==

    J tasked:                  Yes
    K tasked:                  Yes
    wK tasked:                  No
    OpenMP threads:              8
    Integrals threads:           8
    Memory (MB):              1430
    Algorithm:                Core
    Integral Cache:           NONE
    Schwarz Cutoff:          1E-12
    Fitting Condition:       1E-12

   => Auxiliary Basis Set <=

  Basis Set: (CC-PVDZ AUX)
    Blend: CC-PVDZ-JKFIT
    Number of shells: 66
    Number of basis function: 186
    Number of Cartesian functions: 212
    Spherical Harmonics?: true
    Max angular momentum: 3

  Minimum eigenvalue in the overlap matrix is 2.4973945238E-02.
  Using Symmetric Orthogonalization.

  SCF Guess: Orbitals guess was supplied from a previous computation.

  ==> Iterations <==

                           Total Energy        Delta E     RMS |[F,P]|

   @DF-RKS iter   0:  -151.54148039008973   -1.51541e+02   5.73923e-04 
   @DF-RKS iter   1:  -151.53885889720507    2.62149e-03   2.05497e-04 
   @DF-RKS iter   2:  -151.53886260122312   -3.70402e-06   1.10758e-04 DIIS
   @DF-RKS iter   3:  -151.53886398870995   -1.38749e-06   1.49242e-05 DIIS
   @DF-RKS iter   4:  -151.53886404801401   -5.93041e-08   1.55820e-06 DIIS
   @DF-RKS iter   5:  -151.53886404869348   -6.79478e-10   1.71968e-07 DIIS
   @DF-RKS iter   6:  -151.53886404869496   -1.47793e-12   2.32962e-07 DIIS
   @DF-RKS iter   7:  -151.53886404870491   -9.94760e-12   5.21384e-08 DIIS
   @DF-RKS iter   8:  -151.53886404870545   -5.40012e-13   1.90992e-09 DIIS

  ==> Post-Iterations <==

    Orbital Energies (a.u.)
    -----------------------

    Doubly Occupied:                                                      

       1A    -19.190205     2A    -19.190177     3A     -1.106512  
       4A     -0.894768     5A     -0.562961     6A     -0.417862  
       7A     -0.394567     8A     -0.371734     9A     -0.247271  

    Virtual:                                                              

      10A      0.008931    11A      0.020704    12A      0.128921  
      13A      0.551711    14A      0.576951    15A      0.857779  
      16A      0.869998    17A      0.943178    18A      0.944887  
      19A      0.980094    20A      1.071189    21A      1.248052  
      22A      1.255099    23A      1.342116    24A      1.509310  
      25A      1.534911    26A      1.819188    27A      2.026188  
      28A      2.099823    29A      2.315519    30A      2.372291  
      31A      2.634744    32A      2.852378    33A      2.934081  
      34A      2.969378    35A      3.182659    36A      3.532533  
      37A      3.538801    38A      3.788613  

    Final Occupation by Irrep:
              A 
    DOCC [     9 ]

  Energy converged.

  @DF-RKS Final Energy:  -151.53886404870545

   => Energetics <=

    Nuclear Repulsion Energy =             36.4509251703569248
    One-Electron Energy =                -280.8470573326197837
    Two-Electron Energy =                 107.3135789115343499
    DFT Exchange-Correlation Energy =     -14.4560075679769575
    Empirical Dispersion Energy =          -0.0003032300000000
    PCM Polarization Energy =               0.0000000000000000
    EFP Energy =                            0.0000000000000000
    Total Energy =                       -151.5388640487054488



Properties will be evaluated at   0.000000,   0.000000,   0.000000 Bohr

Properties computed using the SCF density matrix

  Nuclear Dipole Moment: (a.u.)
     X:     0.1391      Y:     1.4842      Z:     0.7195

  Electronic Dipole Moment: (a.u.)
     X:    -0.0348      Y:    -0.3713      Z:    -0.1800

  Dipole Moment: (a.u.)
     X:     0.1043      Y:     1.1129      Z:     0.5395     Total:     1.2412

  Dipole Moment: (Debye)
     X:     0.2651      Y:     2.8288      Z:     1.3713     Total:     3.1548


*** tstop() called on computer03 at Fri Aug 11 14:10:00 2017
Module time:
	user time   =      14.07 seconds =       0.23 minutes
	system time =       0.51 seconds =       0.01 minutes
	total time  =          5 seconds =       0.08 minutes
Total time:
	user time   =      83.29 seconds =       1.39 minutes
	system time =       3.05 seconds =       0.05 minutes
	total time  =         25 seconds =       0.42 minutes

*** tstart() called on computer03
*** at Fri Aug 11 14:10:00 2017


         ------------------------------------------------------------
                                   SCF GRAD                          
                          Rob Parrish, Justin Turney,                
                       Andy Simmonett, and Alex Sokolov              
         ------------------------------------------------------------

  ==> Geometry <==

    Molecular point group: c1
    Full point group: C1

    Geometry (in Angstrom), charge = 0, multiplicity = 1:

       Center              X                  Y                   Z               Mass       
    ------------   -----------------  -----------------  -----------------  -----------------
           O         -0.733689275445     0.006276390755     0.000898227602    15.994914619560
           O          0.724335856850    -0.106065603936    -0.049273123315    15.994914619560
           H         -0.898845592212     0.902666488203     0.343450018594     1.007825032070
           H          1.047291132919     0.681060740226     0.424294681168     1.007825032070

  Nuclear repulsion =   36.450925170356925

  ==> Basis Set <==

  Basis Set: CC-PVDZ
    Blend: CC-PVDZ
    Number of shells: 18
    Number of basis function: 38
    Number of Cartesian functions: 40
    Spherical Harmonics?: true
    Max angular momentum: 2

  ==> DFJKGrad: Density-Fitted SCF Gradients <==

    Gradient:                    1
    J tasked:                  Yes
    K tasked:                  Yes
    wK tasked:                  No
    OpenMP threads:              8
    Integrals threads:           8
    Memory (MB):              1430
    Schwarz Cutoff:          0E+00
    Fitting Condition:       1E-12

   => Auxiliary Basis Set <=

  Basis Set: (CC-PVDZ AUX)
    Blend: CC-PVDZ-JKFIT
    Number of shells: 66
    Number of basis function: 186
    Number of Cartesian functions: 212
    Spherical Harmonics?: true
    Max angular momentum: 3

  ==> DFT Potential <==

   => B3LYP Composite Functional <= 

    B3LYP Hybrid-GGA Exchange-Correlation Functional (VWN1-RPA)

    P.J. Stephens et. al., J. Phys. Chem., 98, 11623-11627, 1994

    Points   =           5000
    Deriv    =              1
    GGA      =           TRUE
    Meta     =          FALSE

    X_LRC        =          FALSE
    X_Hybrid     =           TRUE
    X_Alpha      =   2.000000E-01
    X_Omega      =   0.000000E+00
    C_LRC        =          FALSE
    C_Hybrid     =          FALSE
    C_Alpha      =   0.000000E+00
    C_Omega      =   0.000000E+00

   => Exchange Functionals <=

    0.8000    B3_X
    0.2000      HF 

   => Correlation Functionals <=

    0.1900 VWN3RPA_C
    0.8100   LYP_C

   => Molecular Quadrature <=

    Radial Scheme    =       TREUTLER
    Pruning Scheme   =           FLAT
    Nuclear Scheme   =       TREUTLER

    BS radius alpha  =              1
    Pruning alpha    =              1
    Radial Points    =             75
    Spherical Points =            302
    Total Points     =          88298
    Total Blocks     =             86
    Max Points       =           4808
    Max Functions    =             38


  -Total Gradient:
     Atom            X                  Y                   Z
    ------   -----------------  -----------------  -----------------
       1       -0.001582726904     0.001101094932    -0.002227934988
       2        0.001563454410    -0.001306234407     0.002128445731
       3       -0.000187901490    -0.000684114071     0.001719199506
       4        0.000207828972     0.000896241484    -0.001616322690


*** tstop() called on computer03 at Fri Aug 11 14:10:01 2017
Module time:
	user time   =       5.64 seconds =       0.09 minutes
	system time =       0.23 seconds =       0.00 minutes
	total time  =          1 seconds =       0.02 minutes
Total time:
	user time   =      89.04 seconds =       1.48 minutes
	system time =       3.29 seconds =       0.05 minutes
	total time  =         26 seconds =       0.43 minutes

			-----------------------------------------
			 OPTKING 2.0: for geometry optimizations 
			  - R.A. King,  Bethel University        
			-----------------------------------------
	At level 1: Red. Int., RFO, no backsteps, dynamic trust

	Previous internal coordinate definitions found.
	---Fragment 1 Geometry and Gradient---
	 O          -1.3864717972        0.0118606596        0.0016974042
	 O           1.3687963977       -0.2004349436       -0.0931127088
	 H          -1.6985720050        1.7057924520        0.6490264755
	 H           1.9790934226        1.2870182789        0.8018007470
	            -0.0015827269        0.0011010949       -0.0022279350
	             0.0015634544       -0.0013062344        0.0021284457
	            -0.0001879015       -0.0006841141        0.0017191995
	             0.0002078290        0.0008962415       -0.0016163227

	---Fragment 1 Intrafragment Coordinates---
	 - Coordinate -           - BOHR/RAD -       - ANG/DEG -
	 R(1,2)           =         2.765061	       1.463207
	 R(1,3)           =         1.840067	       0.973721
	 R(2,4)           =         1.840068	       0.973722
	 B(1,2,4)         =         1.825290	     104.581403
	 B(2,1,3)         =         1.825290	     104.581434
	*D(3,1,2,4)       =         0.174533	       9.999988

	Current energy   :      -151.5388640487

	Energy change for the previous step:
		Projected    :        -0.0000565214
		Actual       :        -0.0000658842

	Performing BFGS update.
	Previous computed or guess Hessian on step 1.
	Steps to be used in Hessian update: 3 2
	Taking RFO optimization step.
	Going to follow RFO solution 1.
	Using RFO vector 1.
	Norm of target step-size    0.00563
	Projected energy change by RFO approximation:        -0.0000077514

	Back-transformation to cartesian coordinates...
	Successfully converged to displaced geometry.

	Back-transformation to cartesian coordinates to adjust frozen coordinates...
	Successfully converged to displaced geometry.

	--- Internal Coordinate Step in ANG or DEG, aJ/ANG or AJ/DEG ---
	 ---------------------------------------------------------------------------
	   Coordinate                Previous        Force       Change         New 
	   ----------                --------       ------       ------       ------
	    1 R(1,2)          =      1.463207    -0.014654    -0.002890     1.460318
	    2 R(1,3)          =      0.973721    -0.000043    -0.000085     0.973637
	    3 R(2,4)          =      0.973722    -0.000046    -0.000085     0.973637
	    4 B(1,2,4)        =    104.581403    -0.000028    -0.055515   104.525888
	    5 B(2,1,3)        =    104.581434    -0.000028    -0.055558   104.525876
	    6 *D(3,1,2,4)     =      9.999988     0.000000    -0.000000     9.999988
	 ---------------------------------------------------------------------------
	Successfully symmetrized geometry.

  ==> Convergence Check <==

  Measures of convergence in internal coordinates in au.
  Criteria marked as inactive (o), active & met (*), and active & unmet ( ).
  ---------------------------------------------------------------------------------------------
   Step     Total Energy     Delta E     MAX Force     RMS Force      MAX Disp      RMS Disp   
  ---------------------------------------------------------------------------------------------
    Convergence Criteria    1.00e-06 *    3.00e-04 *             o    1.20e-03 *             o
  ---------------------------------------------------------------------------------------------
      4    -151.53886405   -6.59e-05      1.78e-03      7.56e-04 o    5.46e-03      2.30e-03 o  ~
  ---------------------------------------------------------------------------------------------

	Writing optimization data to binary file.
	Structure for next step:
	Cartesian Geometry (in Angstrom)
	    O    -0.7322565327   0.0060515560   0.0009068894
	    O     0.7228898416  -0.1059794444  -0.0493490261
	    H    -0.8964796246   0.9025004589   0.3435128068
	    H     1.0449384378   0.6813654448   0.4242991339
			--------------------------
			 OPTKING Finished Execution 
			--------------------------

    Structure for next step:
    Molecular point group: c1
    Full point group: C1

    Geometry (in Angstrom), charge = 0, multiplicity = 1:

    O           -0.732250683144     0.006112673718     0.000936524255
    O            0.722895691113    -0.105918326650    -0.049319391288
    H           -0.896473775045     0.902561576697     0.343542441631
    H            1.044944287329     0.681426562520     0.424328768758

gradient() will perform analytic gradient computation.

*** tstart() called on computer03
*** at Fri Aug 11 14:10:01 2017

   => Loading Basis Set <=

    Name: CC-PVDZ
    Role: ORBITAL
    Keyword: BASIS
    atoms 1-2 entry O          line   190 file /home/raimis/opt/miniconda3/envs/htmd/share/psi4/basis/cc-pvdz.gbs 
    atoms 3-4 entry H          line    20 file /home/raimis/opt/miniconda3/envs/htmd/share/psi4/basis/cc-pvdz.gbs 


         ---------------------------------------------------------
                                   SCF
            by Justin Turney, Rob Parrish, and Andy Simmonett
                              RKS Reference
                        8 Threads,   1907 MiB Core
         ---------------------------------------------------------

  ==> Geometry <==

    Molecular point group: c1
    Full point group: C1

    Geometry (in Angstrom), charge = 0, multiplicity = 1:

       Center              X                  Y                   Z               Mass       
    ------------   -----------------  -----------------  -----------------  -----------------
           O         -0.732250683144     0.006112673718     0.000936524255    15.994914619560
           O          0.722895691113    -0.105918326650    -0.049319391288    15.994914619560
           H         -0.896473775045     0.902561576697     0.343542441631     1.007825032070
           H          1.044944287329     0.681426562520     0.424328768758     1.007825032070

  Running in c1 symmetry.

  Rotational constants: A =     10.01126  B =      0.88808  C =      0.81669 [cm^-1]
  Rotational constants: A = 300129.95163  B =  26624.07946  C =  24483.71104 [MHz]
  Nuclear repulsion =   36.505425301107799

  Charge       = 0
  Multiplicity = 1
  Electrons    = 18
  Nalpha       = 9
  Nbeta        = 9

  ==> Algorithm <==

  SCF Algorithm Type is DF.
  DIIS enabled.
  MOM disabled.
  Fractional occupation disabled.
  Guess Type is READ.
  Energy threshold   = 1.00e-08
  Density threshold  = 1.00e-08
  Integral threshold = 0.00e+00

  ==> Primary Basis <==

  Basis Set: CC-PVDZ
    Blend: CC-PVDZ
    Number of shells: 18
    Number of basis function: 38
    Number of Cartesian functions: 40
    Spherical Harmonics?: true
    Max angular momentum: 2

  ==> DFT Potential <==

   => B3LYP Composite Functional <= 

    B3LYP Hybrid-GGA Exchange-Correlation Functional (VWN1-RPA)

    P.J. Stephens et. al., J. Phys. Chem., 98, 11623-11627, 1994

    Points   =           5000
    Deriv    =              1
    GGA      =           TRUE
    Meta     =          FALSE

    X_LRC        =          FALSE
    X_Hybrid     =           TRUE
    X_Alpha      =   2.000000E-01
    X_Omega      =   0.000000E+00
    C_LRC        =          FALSE
    C_Hybrid     =          FALSE
    C_Alpha      =   0.000000E+00
    C_Omega      =   0.000000E+00

   => Exchange Functionals <=

    0.8000    B3_X
    0.2000      HF 

   => Correlation Functionals <=

    0.1900 VWN3RPA_C
    0.8100   LYP_C

   => Molecular Quadrature <=

    Radial Scheme    =       TREUTLER
    Pruning Scheme   =           FLAT
    Nuclear Scheme   =       TREUTLER

    BS radius alpha  =              1
    Pruning alpha    =              1
    Radial Points    =             75
    Spherical Points =            302
    Total Points     =          88298
    Total Blocks     =             86
    Max Points       =           4808
    Max Functions    =             38

   => -D3ZERO: Empirical Dispersion <=

    Grimme's -D3 (zero-damping) Dispersion Correction
    Grimme S.; Antony J.; Ehrlich S.; Krieg H. (2010), J. Chem. Phys., 132: 154104

        S6 =   1.000000E+00
        S8 =   1.703000E+00
       SR6 =   1.261000E+00
    ALPHA6 =   1.400000E+01

   => Loading Basis Set <=

    Name: (CC-PVDZ AUX)
    Role: JKFIT
    Keyword: DF_BASIS_SCF
    atoms 1-2 entry O          line   220 file /home/raimis/opt/miniconda3/envs/htmd/share/psi4/basis/cc-pvdz-jkfit.gbs 
    atoms 3-4 entry H          line    50 file /home/raimis/opt/miniconda3/envs/htmd/share/psi4/basis/cc-pvdz-jkfit.gbs 

  Reading orbitals from file 180, no projection.

  ==> Pre-Iterations <==

   -------------------------------------------------------
    Irrep   Nso     Nmo     Nalpha   Nbeta   Ndocc  Nsocc
   -------------------------------------------------------
     A         38      38       0       0       0       0
   -------------------------------------------------------
    Total      38      38       9       9       9       0
   -------------------------------------------------------

  ==> Integral Setup <==

  ==> DFJK: Density-Fitted J/K Matrices <==

    J tasked:                  Yes
    K tasked:                  Yes
    wK tasked:                  No
    OpenMP threads:              8
    Integrals threads:           8
    Memory (MB):              1430
    Algorithm:                Core
    Integral Cache:           NONE
    Schwarz Cutoff:          1E-12
    Fitting Condition:       1E-12

   => Auxiliary Basis Set <=

  Basis Set: (CC-PVDZ AUX)
    Blend: CC-PVDZ-JKFIT
    Number of shells: 66
    Number of basis function: 186
    Number of Cartesian functions: 212
    Spherical Harmonics?: true
    Max angular momentum: 3

  Minimum eigenvalue in the overlap matrix is 2.4826906937E-02.
  Using Symmetric Orthogonalization.

  SCF Guess: Orbitals guess was supplied from a previous computation.

  ==> Iterations <==

                           Total Energy        Delta E     RMS |[F,P]|

   @DF-RKS iter   0:  -151.54024339550438   -1.51540e+02   2.40820e-04 
   @DF-RKS iter   1:  -151.53886849282557    1.37490e-03   8.06316e-05 
   @DF-RKS iter   2:  -151.53886906675982   -5.73934e-07   3.62387e-05 DIIS
   @DF-RKS iter   3:  -151.53886927864093   -2.11881e-07   6.13997e-06 DIIS
   @DF-RKS iter   4:  -151.53886928657769   -7.93676e-09   3.88971e-07 DIIS
   @DF-RKS iter   5:  -151.53886928663911   -6.14193e-11   6.90945e-08 DIIS
   @DF-RKS iter   6:  -151.53886928664045   -1.33582e-12   1.89165e-08 DIIS
   @DF-RKS iter   7:  -151.53886928664042    2.84217e-14   1.68740e-08 DIIS
   @DF-RKS iter   8:  -151.53886928664073   -3.12639e-13   7.06098e-10 DIIS

  ==> Post-Iterations <==

    Orbital Energies (a.u.)
    -----------------------

    Doubly Occupied:                                                      

       1A    -19.190018     2A    -19.189989     3A     -1.107734  
       4A     -0.894230     5A     -0.563636     6A     -0.418288  
       7A     -0.394910     8A     -0.371565     9A     -0.246819  

    Virtual:                                                              

      10A      0.010535    11A      0.020527    12A      0.129569  
      13A      0.551776    14A      0.577066    15A      0.858195  
      16A      0.870207    17A      0.942596    18A      0.943919  
      19A      0.980108    20A      1.071309    21A      1.246596  
      22A      1.254854    23A      1.342179    24A      1.511675  
      25A      1.535439    26A      1.819603    27A      2.026342  
      28A      2.100424    29A      2.313255    30A      2.374272  
      31A      2.632932    32A      2.851744    33A      2.935013  
      34A      2.972697    35A      3.185879    36A      3.533485  
      37A      3.538096    38A      3.791814  

    Final Occupation by Irrep:
              A 
    DOCC [     9 ]

  Energy converged.

  @DF-RKS Final Energy:  -151.53886928664073

   => Energetics <=

    Nuclear Repulsion Energy =             36.5054253011077989
    One-Electron Energy =                -280.9530429174817527
    Two-Electron Energy =                 107.3662230541441573
    DFT Exchange-Correlation Energy =     -14.4571756444109738
    Empirical Dispersion Energy =          -0.0002990800000000
    PCM Polarization Energy =               0.0000000000000000
    EFP Energy =                            0.0000000000000000
    Total Energy =                       -151.5388692866407325



Properties will be evaluated at   0.000000,   0.000000,   0.000000 Bohr

Properties computed using the SCF density matrix

  Nuclear Dipole Moment: (a.u.)
     X:     0.1391      Y:     1.4845      Z:     0.7196

  Electronic Dipole Moment: (a.u.)
     X:    -0.0348      Y:    -0.3716      Z:    -0.1801

  Dipole Moment: (a.u.)
     X:     0.1043      Y:     1.1129      Z:     0.5395     Total:     1.2412

  Dipole Moment: (Debye)
     X:     0.2651      Y:     2.8287      Z:     1.3713     Total:     3.1547


*** tstop() called on computer03 at Fri Aug 11 14:10:05 2017
Module time:
	user time   =      14.27 seconds =       0.24 minutes
	system time =       0.50 seconds =       0.01 minutes
	total time  =          4 seconds =       0.07 minutes
Total time:
	user time   =     103.45 seconds =       1.72 minutes
	system time =       3.79 seconds =       0.06 minutes
	total time  =         30 seconds =       0.50 minutes

*** tstart() called on computer03
*** at Fri Aug 11 14:10:05 2017


         ------------------------------------------------------------
                                   SCF GRAD                          
                          Rob Parrish, Justin Turney,                
                       Andy Simmonett, and Alex Sokolov              
         ------------------------------------------------------------

  ==> Geometry <==

    Molecular point group: c1
    Full point group: C1

    Geometry (in Angstrom), charge = 0, multiplicity = 1:

       Center              X                  Y                   Z               Mass       
    ------------   -----------------  -----------------  -----------------  -----------------
           O         -0.732250683144     0.006112673718     0.000936524255    15.994914619560
           O          0.722895691113    -0.105918326650    -0.049319391288    15.994914619560
           H         -0.896473775045     0.902561576697     0.343542441631     1.007825032070
           H          1.044944287329     0.681426562520     0.424328768758     1.007825032070

  Nuclear repulsion =   36.505425301107799

  ==> Basis Set <==

  Basis Set: CC-PVDZ
    Blend: CC-PVDZ
    Number of shells: 18
    Number of basis function: 38
    Number of Cartesian functions: 40
    Spherical Harmonics?: true
    Max angular momentum: 2

  ==> DFJKGrad: Density-Fitted SCF Gradients <==

    Gradient:                    1
    J tasked:                  Yes
    K tasked:                  Yes
    wK tasked:                  No
    OpenMP threads:              8
    Integrals threads:           8
    Memory (MB):              1430
    Schwarz Cutoff:          0E+00
    Fitting Condition:       1E-12

   => Auxiliary Basis Set <=

  Basis Set: (CC-PVDZ AUX)
    Blend: CC-PVDZ-JKFIT
    Number of shells: 66
    Number of basis function: 186
    Number of Cartesian functions: 212
    Spherical Harmonics?: true
    Max angular momentum: 3

  ==> DFT Potential <==

   => B3LYP Composite Functional <= 

    B3LYP Hybrid-GGA Exchange-Correlation Functional (VWN1-RPA)

    P.J. Stephens et. al., J. Phys. Chem., 98, 11623-11627, 1994

    Points   =           5000
    Deriv    =              1
    GGA      =           TRUE
    Meta     =          FALSE

    X_LRC        =          FALSE
    X_Hybrid     =           TRUE
    X_Alpha      =   2.000000E-01
    X_Omega      =   0.000000E+00
    C_LRC        =          FALSE
    C_Hybrid     =          FALSE
    C_Alpha      =   0.000000E+00
    C_Omega      =   0.000000E+00

   => Exchange Functionals <=

    0.8000    B3_X
    0.2000      HF 

   => Correlation Functionals <=

    0.1900 VWN3RPA_C
    0.8100   LYP_C

   => Molecular Quadrature <=

    Radial Scheme    =       TREUTLER
    Pruning Scheme   =           FLAT
    Nuclear Scheme   =       TREUTLER

    BS radius alpha  =              1
    Pruning alpha    =              1
    Radial Points    =             75
    Spherical Points =            302
    Total Points     =          88298
    Total Blocks     =             86
    Max Points       =           4808
    Max Functions    =             38


  -Total Gradient:
     Atom            X                  Y                   Z
    ------   -----------------  -----------------  -----------------
       1       -0.000148531714     0.000904908146    -0.002301169950
       2        0.000114485741    -0.001266403718     0.002125874459
       3        0.000091373119    -0.000632129787     0.001758405503
       4       -0.000056675972     0.001000572668    -0.001579742177


*** tstop() called on computer03 at Fri Aug 11 14:10:07 2017
Module time:
	user time   =       5.48 seconds =       0.09 minutes
	system time =       0.24 seconds =       0.00 minutes
	total time  =          2 seconds =       0.03 minutes
Total time:
	user time   =     109.08 seconds =       1.82 minutes
	system time =       4.05 seconds =       0.07 minutes
	total time  =         32 seconds =       0.53 minutes

			-----------------------------------------
			 OPTKING 2.0: for geometry optimizations 
			  - R.A. King,  Bethel University        
			-----------------------------------------
	At level 1: Red. Int., RFO, no backsteps, dynamic trust

	Previous internal coordinate definitions found.
	---Fragment 1 Geometry and Gradient---
	 O          -1.3837532518        0.0115512793        0.0017697744
	 O           1.3660748788       -0.2001566298       -0.0932001426
	 H          -1.6940899201        1.7055941980        0.6492011297
	 H           1.9746585272        1.2877095828        0.8018651633
	            -0.0001485317        0.0009049081       -0.0023011700
	             0.0001144857       -0.0012664037        0.0021258745
	             0.0000913731       -0.0006321298        0.0017584055
	            -0.0000566760        0.0010005727       -0.0015797422

	---Fragment 1 Intrafragment Coordinates---
	 - Coordinate -           - BOHR/RAD -       - ANG/DEG -
	 R(1,2)           =         2.759600	       1.460318
	 R(1,3)           =         1.839907	       0.973637
	 R(2,4)           =         1.839908	       0.973637
	 B(1,2,4)         =         1.824321	     104.525888
	 B(2,1,3)         =         1.824321	     104.525876
	*D(3,1,2,4)       =         0.174533	       9.999988

	Current energy   :      -151.5388692866

	Energy change for the previous step:
		Projected    :        -0.0000077514
		Actual       :        -0.0000052379

	Performing BFGS update.
	Previous computed or guess Hessian on step 1.
	Steps to be used in Hessian update: 4 3
	Taking RFO optimization step.
	Going to follow RFO solution 1.
	Using RFO vector 1.
	Norm of target step-size    0.00120
	Projected energy change by RFO approximation:        -0.0000003411

	Back-transformation to cartesian coordinates...
	Successfully converged to displaced geometry.

	Back-transformation to cartesian coordinates to adjust frozen coordinates...
	Successfully converged to displaced geometry.

	--- Internal Coordinate Step in ANG or DEG, aJ/ANG or AJ/DEG ---
	 ---------------------------------------------------------------------------
	   Coordinate                Previous        Force       Change         New 
	   ----------                --------       ------       ------       ------
	    1 R(1,2)          =      1.460318    -0.000486    -0.000242     1.460076
	    2 R(1,3)          =      0.973637    -0.000162    -0.000012     0.973625
	    3 R(2,4)          =      0.973637    -0.000166    -0.000012     0.973625
	    4 B(1,2,4)        =    104.525888     0.000012     0.044803   104.570691
	    5 B(2,1,3)        =    104.525876     0.000012     0.044813   104.570689
	    6 *D(3,1,2,4)     =      9.999988     0.000000    -0.000000     9.999988
	 ---------------------------------------------------------------------------
	Successfully symmetrized geometry.

  ==> Convergence Check <==

  Measures of convergence in internal coordinates in au.
  Criteria marked as inactive (o), active & met (*), and active & unmet ( ).
  ---------------------------------------------------------------------------------------------
   Step     Total Energy     Delta E     MAX Force     RMS Force      MAX Disp      RMS Disp   
  ---------------------------------------------------------------------------------------------
    Convergence Criteria    1.00e-06 *    3.00e-04 *             o    1.20e-03 *             o
  ---------------------------------------------------------------------------------------------
      5    -151.53886929   -5.24e-06      1.60e-04 *    9.61e-05 o    7.82e-04 *    4.89e-04 o  ~
  ---------------------------------------------------------------------------------------------


  **** Optimization is complete! (in 5 steps) ****

  ==> Optimization Summary <==

  Measures of convergence in internal coordinates in au.
  --------------------------------------------------------------------------------------------------------------- ~
   Step         Total Energy             Delta E       MAX Force       RMS Force        MAX Disp        RMS Disp  ~
  --------------------------------------------------------------------------------------------------------------- ~
      1    -151.533871374994   -151.533871374994      0.03643045      0.02384304      0.20589421      0.12208222  ~
      2    -151.537157514349     -0.003286139355      0.02087548      0.01290739      0.05912663      0.03732349  ~
      3    -151.538798164500     -0.001640650151      0.00593907      0.00282814      0.01181448      0.00627407  ~
      4    -151.538864048705     -0.000065884205      0.00177872      0.00075617      0.00546041      0.00230023  ~
      5    -151.538869286641     -0.000005237935      0.00015996      0.00009612      0.00078214      0.00048867  ~
  --------------------------------------------------------------------------------------------------------------- ~

	Writing optimization data to binary file.
	Final energy is   -151.5388692866407
	Final (previous) structure:
	Cartesian Geometry (in Angstrom)
	    O    -0.7322506831   0.0061126737   0.0009365243
	    O     0.7228956911  -0.1059183267  -0.0493193913
	    H    -0.8964737750   0.9025615767   0.3435424416
	    H     1.0449442873   0.6814265625   0.4243287688
	Saving final (previous) structure.
			--------------------------
			 OPTKING Finished Execution 
			--------------------------

    Final optimized geometry and variables:
    Molecular point group: c1
    Full point group: C1

    Geometry (in Angstrom), charge = 0, multiplicity = 1:

    O           -0.732250683144     0.006112673718     0.000936524255
    O            0.722895691113    -0.105918326650    -0.049319391288
    H           -0.896473775045     0.902561576697     0.343542441631
    H            1.044944287329     0.681426562520     0.424328768758

	Cleaning optimization helper files.


Properties will be evaluated at   0.000000,   0.000000,   0.000000 Bohr

Properties computed using the  density matrix

  Nuclear Dipole Moment: (a.u.)
     X:     0.1391      Y:     1.4845      Z:     0.7196

  Electronic Dipole Moment: (a.u.)
     X:    -0.0348      Y:    -0.3716      Z:    -0.1801

  Dipole Moment: (a.u.)
     X:     0.1043      Y:     1.1129      Z:     0.5395     Total:     1.2412

  Dipole Moment: (Debye)
     X:     0.2651      Y:     2.8287      Z:     1.3713     Total:     3.1547

  Quadrupole Moment: (Debye Ang)
    XX:   -10.4586     YY:    -9.3345     ZZ:   -11.6230
    XY:     0.0011     XZ:     0.3471     YZ:     1.4077

  Traceless Quadrupole Moment: (Debye Ang)
    XX:     0.0134     YY:     1.1375     ZZ:    -1.1510
    XY:     0.0011     XZ:     0.3471     YZ:     1.4077

  Mulliken Charges: (a.u.)
   Center  Symbol    Alpha    Beta     Spin     Total
       1     O     4.08069  4.08069  0.00000 -0.16137
       2     O     4.08069  4.08069  0.00000 -0.16137
       3     H     0.41931  0.41931  0.00000  0.16137
       4     H     0.41931  0.41931  0.00000  0.16137

   Total alpha =  9.00000, Total beta =  9.00000, Total charge = -0.00000


*** Psi4 exiting successfully. Buy a developer a beer!
