    -----------------------------------------------------------------------
          Psi4: An Open-Source Ab Initio Electronic Structure Package
                              Psi4 (no tag) Driver

                          Git: Rev {detached?}  

    J. M. Turney, A. C. Simmonett, R. M. Parrish, E. G. Hohenstein,
    F. A. Evangelista, J. T. Fermann, B. J. Mintz, L. A. Burns, J. J. Wilke,
    M. L. Abrams, N. J. Russ, M. L. Leininger, C. L. Janssen, E. T. Seidl,
    W. D. Allen, H. F. Schaefer, R. A. King, E. F. Valeev, C. D. Sherrill,
    and T. D. Crawford, WIREs Comput. Mol. Sci. 2, 556-565 (2012)
    (doi: 10.1002/wcms.93)

                         Additional Contributions by
    A. E. DePrince, M. Saitow, U. Bozkaya, A. Yu. Sokolov
    -----------------------------------------------------------------------


    Psi4 started on: Tue Jul  5 17:05:15 2016

    Process ID:  17138
    PSI4DATADIR: /export131/home/mjharvey/miniconda3/share
    Memory level set to 256.000 MB

  ==> Input File <==

--------------------------------------------------------------------------
set {
	reference rhf
	basis 6-31G*
}


set_num_threads( 1 )
memory 2 gb

molecule MOL {
0 1

H	 -0.000158	 1.970498	 0.756846
O	 -0.000074	 1.880206	 -0.189275
C	 -0.000015	 0.544847	 -0.545111
C	 -1.146713	 -0.178430	 0.153418
C	 1.372058	 -0.064025	 -0.275501
H	 -0.178470	 0.486751	 -1.608540
F	 -0.678302	 -0.874140	 1.167382
F	 -2.054295	 0.655115	 0.615863
F	 -1.744027	 -1.021779	 -0.673369
F	 2.283717	 0.570380	 -0.981153
F	 1.423530	 -1.339565	 -0.596012
F	 1.696156	 0.053849	 1.002248

	symmetry c1
}
set optking {
	frozen_dihedral = ("
		6 3 2 1
	")
}

ee = energy('scf')
oeprop('DIPOLE', 'QUADRUPOLE', 'MULLIKEN_CHARGES')
f=open( 'psi4out.xyz', 'w' )
f.write( "12  " )
f.write( str(ee) + "\n" )
f.write( MOL.save_string_xyz() )
f.close()
--------------------------------------------------------------------------

  Memory set to   2.000 GiB by Python script.

*** tstart() called on cx1-3-4-4.cx1.hpc.ic.ac.uk
*** at Tue Jul  5 17:05:16 2016


         ---------------------------------------------------------
                                   SCF
            by Justin Turney, Rob Parrish, and Andy Simmonett
                              RHF Reference
                        1 Threads,   2000 MiB Core
         ---------------------------------------------------------

  ==> Geometry <==

    Molecular point group: c1
    Full point group: C1

    Geometry (in Angstrom), charge = 0, multiplicity = 1:

       Center              X                  Y                   Z               Mass       
    ------------   -----------------  -----------------  -----------------  -----------------
           H         -0.119979153814     1.976358804917     0.767136161199     1.007825032070
           O         -0.119895153814     1.886066804917    -0.178984838801    15.994914619560
           C         -0.119836153814     0.550707804917    -0.534820838801    12.000000000000
           C         -1.266534153814    -0.172569195083     0.163708161199    12.000000000000
           C          1.252236846186    -0.058164195083    -0.265210838801    12.000000000000
           H         -0.298291153814     0.492611804917    -1.598249838801     1.007825032070
           F         -0.798123153814    -0.868279195083     1.177672161199    18.998403224000
           F         -2.174116153814     0.660975804917     0.626153161199    18.998403224000
           F         -1.863848153814    -1.015918195083    -0.663078838801    18.998403224000
           F          2.163895846186     0.576240804917    -0.970862838801    18.998403224000
           F          1.303708846186    -1.333704195083    -0.585721838801    18.998403224000
           F          1.576334846186     0.059709804917     1.012538161199    18.998403224000

  Running in c1 symmetry.

  Rotational constants: A =      0.07238  B =      0.03588  C =      0.03176 [cm^-1]
  Rotational constants: A =   2170.04053  B =   1075.70642  C =    951.99324 [MHz]
  Nuclear repulsion =  671.666176156243978

  Charge       = 0
  Multiplicity = 1
  Electrons    = 82
  Nalpha       = 41
  Nbeta        = 41

  ==> Algorithm <==

  SCF Algorithm Type is DF.
  DIIS enabled.
  MOM disabled.
  Fractional occupation disabled.
  Guess Type is CORE.
  Energy threshold   = 1.00e-06
  Density threshold  = 1.00e-06
  Integral threshold = 0.00e+00

  ==> Primary Basis <==

  Basis Set: 6-31G*
    Number of shells: 64
    Number of basis function: 154
    Number of Cartesian functions: 154
    Spherical Harmonics?: false
    Max angular momentum: 2

  ==> Pre-Iterations <==

   -------------------------------------------------------
    Irrep   Nso     Nmo     Nalpha   Nbeta   Ndocc  Nsocc
   -------------------------------------------------------
     A        154     154       0       0       0       0
   -------------------------------------------------------
    Total     154     154      41      41      41       0
   -------------------------------------------------------

 OEINTS: Overlap, kinetic, potential, dipole, and quadrupole integrals
         stored in file 35.

  ==> Integral Setup <==

  ==> DFJK: Density-Fitted J/K Matrices <==

    J tasked:                  Yes
    K tasked:                  Yes
    wK tasked:                  No
    OpenMP threads:              1
    Integrals threads:           1
    Memory (MB):              1430
    Algorithm:                Core
    Integral Cache:           NONE
    Schwarz Cutoff:          1E-12
    Fitting Condition:       1E-12

   => Auxiliary Basis Set <=

  Basis Set: 
    Number of shells: 258
    Number of basis function: 860
    Number of Cartesian functions: 860
    Spherical Harmonics?: false
    Max angular momentum: 3

  Minimum eigenvalue in the overlap matrix is 1.1428095810E-03.
  Using Symmetric Orthogonalization.
  SCF Guess: Core (One-Electron) Hamiltonian.

  ==> Iterations <==

                           Total Energy        Delta E     RMS |[F,P]|

   @DF-RHF iter   1:  -701.65615987007811   -7.01656e+02   6.78460e-02 
   @DF-RHF iter   2:  -564.75180480528377    1.36904e+02   8.57627e-02 DIIS
   @DF-RHF iter   3:  -737.08535245813357   -1.72334e+02   4.68557e-02 DIIS
   @DF-RHF iter   4:  -733.48288518584184    3.60247e+00   4.60859e-02 DIIS
   @DF-RHF iter   5:  -773.81665236782885   -4.03338e+01   3.07443e-02 DIIS
   @DF-RHF iter   6:  -785.62794599228175   -1.18113e+01   8.60994e-03 DIIS
   @DF-RHF iter   7:  -786.15712806515728   -5.29182e-01   3.62332e-03 DIIS
   @DF-RHF iter   8:  -786.25748320786954   -1.00355e-01   1.13351e-03 DIIS
   @DF-RHF iter   9:  -786.26871767389696   -1.12345e-02   4.29518e-04 DIIS
   @DF-RHF iter  10:  -786.27083342235812   -2.11575e-03   1.26843e-04 DIIS
   @DF-RHF iter  11:  -786.27102677501227   -1.93353e-04   6.10048e-05 DIIS
   @DF-RHF iter  12:  -786.27107170900911   -4.49340e-05   1.01758e-05 DIIS
   @DF-RHF iter  13:  -786.27107369992893   -1.99092e-06   2.90490e-06 DIIS
   @DF-RHF iter  14:  -786.27107389246055   -1.92532e-07   8.50976e-07 DIIS

  ==> Post-Iterations <==

    Orbital Energies (a.u.)
    -----------------------

    Doubly Occupied:                                                      

       1A    -26.365623     2A    -26.361769     3A    -26.361309  
       4A    -26.359446     5A    -26.357549     6A    -26.356288  
       7A    -20.614872     8A    -11.527519     9A    -11.523971  
      10A    -11.347482    11A     -1.765811    12A     -1.757429  
      13A     -1.662885    14A     -1.658547    15A     -1.656853  
      16A     -1.652580    17A     -1.434236    18A     -1.101326  
      19A     -0.997250    20A     -0.937122    21A     -0.866364  
      22A     -0.860930    23A     -0.851644    24A     -0.844735  
      25A     -0.834536    26A     -0.811318    27A     -0.737193  
      28A     -0.731484    29A     -0.724759    30A     -0.721724  
      31A     -0.687918    32A     -0.685401    33A     -0.683695  
      34A     -0.676855    35A     -0.666618    36A     -0.662111  
      37A     -0.655746    38A     -0.651122    39A     -0.618325  
      40A     -0.547597    41A     -0.506271  

    Virtual:                                                              

      42A      0.206750    43A      0.243848    44A      0.283249  
      45A      0.335022    46A      0.367686    47A      0.407160  
      48A      0.452674    49A      0.462576    50A      0.488022  
      51A      0.535724    52A      0.546966    53A      0.668793  
      54A      0.673137    55A      0.716357    56A      0.734809  
      57A      0.746450    58A      0.787069    59A      0.794351  
      60A      0.846995    61A      0.910747    62A      0.966339  
      63A      1.052263    64A      1.084576    65A      1.111296  
      66A      1.169488    67A      1.210587    68A      1.247684  
      69A      1.290848    70A      1.311784    71A      1.344014  
      72A      1.358289    73A      1.363432    74A      1.378938  
      75A      1.426974    76A      1.463451    77A      1.534103  
      78A      1.571481    79A      1.586754    80A      1.599403  
      81A      1.612867    82A      1.617762    83A      1.631983  
      84A      1.639801    85A      1.646472    86A      1.658533  
      87A      1.664220    88A      1.677002    89A      1.713563  
      90A      1.721121    91A      1.741399    92A      1.794519  
      93A      1.859877    94A      1.897397    95A      1.908343  
      96A      1.967801    97A      1.987291    98A      2.002720  
      99A      2.019429   100A      2.083877   101A      2.092655  
     102A      2.104681   103A      2.115285   104A      2.119946  
     105A      2.136336   106A      2.160885   107A      2.174328  
     108A      2.195275   109A      2.279857   110A      2.302167  
     111A      2.315511   112A      2.332144   113A      2.339936  
     114A      2.355831   115A      2.375839   116A      2.396192  
     117A      2.402147   118A      2.414414   119A      2.450652  
     120A      2.470804   121A      2.514693   122A      2.549484  
     123A      2.580928   124A      2.626341   125A      2.672816  
     126A      2.737994   127A      2.779776   128A      2.801216  
     129A      2.846257   130A      2.928000   131A      2.977635  
     132A      3.063252   133A      3.123612   134A      3.163634  
     135A      3.191363   136A      3.249388   137A      3.264437  
     138A      3.307269   139A      3.411714   140A      3.416410  
     141A      3.426218   142A      3.455047   143A      3.472459  
     144A      3.478678   145A      4.159379   146A      4.592805  
     147A      4.742340   148A      4.837504   149A      5.026634  
     150A      5.170650   151A      5.299607   152A      5.496081  
     153A      5.843738   154A      6.467269  

    Final Occupation by Irrep:
              A 
    DOCC [    41 ]

  Energy converged.

  @DF-RHF Final Energy:  -786.27107389246055

   => Energetics <=

    Nuclear Repulsion Energy =            671.6661761562439779
    One-Electron Energy =               -2430.2218166519783153
    Two-Electron Energy =                 972.2845666032736744
    DFT Exchange-Correlation Energy =       0.0000000000000000
    Empirical Dispersion Energy =           0.0000000000000000
    PCM Polarization Energy =               0.0000000000000000
    EFP Energy =                            0.0000000000000000
    Total Energy =                       -786.2710738924605494

    Alert: EFP and PCM quantities not currently incorporated into SCF psivars.

Properties will be evaluated at   0.000000,   0.000000,   0.000000 Bohr
  ==> Properties <==


Properties computed using the SCF density matrix

  Nuclear Dipole Moment: (a.u.)
     X:    -0.5888      Y:     4.1358      Z:    -1.3429

  Electronic Dipole Moment: (a.u.)
     X:     0.4409      Y:    -3.9330      Z:     1.3731

  Dipole Moment: (a.u.)
     X:    -0.1479      Y:     0.2028      Z:     0.0302     Total:     0.2528

  Dipole Moment: (Debye)
     X:    -0.3758      Y:     0.5154      Z:     0.0768     Total:     0.6425


  Saving occupied orbitals to File 180.

*** tstop() called on cx1-3-4-4.cx1.hpc.ic.ac.uk at Tue Jul  5 17:05:34 2016
Module time:
	user time   =      18.04 seconds =       0.30 minutes
	system time =       0.20 seconds =       0.00 minutes
	total time  =         18 seconds =       0.30 minutes
Total time:
	user time   =      18.04 seconds =       0.30 minutes
	system time =       0.20 seconds =       0.00 minutes
	total time  =         18 seconds =       0.30 minutes


Properties will be evaluated at   0.000000,   0.000000,   0.000000 Bohr

Properties computed using the  density matrix

  Nuclear Dipole Moment: (a.u.)
     X:    -0.5888      Y:     4.1358      Z:    -1.3429

  Electronic Dipole Moment: (a.u.)
     X:     0.4409      Y:    -3.9330      Z:     1.3731

  Dipole Moment: (a.u.)
     X:    -0.1479      Y:     0.2028      Z:     0.0302     Total:     0.2528

  Dipole Moment: (Debye)
     X:    -0.3758      Y:     0.5154      Z:     0.0768     Total:     0.6425

  Quadrupole Moment: (Debye Ang)
    XX:   -56.4539     YY:   -55.1767     ZZ:   -50.0301
    XY:    -0.3861     XZ:     0.5848     YZ:     2.9214

  Traceless Quadrupole Moment: (Debye Ang)
    XX:    -2.5670     YY:    -1.2898     ZZ:     3.8568
    XY:    -0.3861     XZ:     0.5848     YZ:     2.9214

  Mulliken Charges: (a.u.)
   Center  Symbol    Alpha    Beta     Spin     Total
       1     H     0.26766  0.26766  0.00000  0.46469
       2     O     4.36032  4.36032  0.00000 -0.72065
       3     C     3.06511  3.06511  0.00000 -0.13022
       4     C     2.43843  2.43843  0.00000  1.12314
       5     C     2.43407  2.43407  0.00000  1.13187
       6     H     0.37322  0.37322  0.00000  0.25355
       7     F     4.67604  4.67604  0.00000 -0.35208
       8     F     4.67367  4.67367  0.00000 -0.34734
       9     F     4.67848  4.67848  0.00000 -0.35697
      10     F     4.67512  4.67512  0.00000 -0.35024
      11     F     4.67550  4.67550  0.00000 -0.35100
      12     F     4.68237  4.68237  0.00000 -0.36475

   Total alpha = 41.00000, Total beta = 41.00000, Total charge = -0.00000


*** PSI4 exiting successfully. Buy a developer a beer!
