    -----------------------------------------------------------------------
          Psi4: An Open-Source Ab Initio Electronic Structure Package
                              Psi4 (no tag) Driver

                          Git: Rev {detached?}  

    J. M. Turney, A. C. Simmonett, R. M. Parrish, E. G. Hohenstein,
    F. A. Evangelista, J. T. Fermann, B. J. Mintz, L. A. Burns, J. J. Wilke,
    M. L. Abrams, N. J. Russ, M. L. Leininger, C. L. Janssen, E. T. Seidl,
    W. D. Allen, H. F. Schaefer, R. A. King, E. F. Valeev, C. D. Sherrill,
    and T. D. Crawford, WIREs Comput. Mol. Sci. 2, 556-565 (2012)
    (doi: 10.1002/wcms.93)

                         Additional Contributions by
    A. E. DePrince, M. Saitow, U. Bozkaya, A. Yu. Sokolov
    -----------------------------------------------------------------------


    Psi4 started on: Tue Jul  5 16:38:24 2016

    Process ID:  20062
    PSI4DATADIR: /export131/home/mjharvey/miniconda3/share
    Memory level set to 256.000 MB

  ==> Input File <==

--------------------------------------------------------------------------
set {
	reference rhf
	basis 6-31G*
}


set_num_threads( 1 )
memory 2 gb

molecule MOL {
0 1

O	 -0.806752	 -1.114546	 1.082146
C	 -0.561929	 -0.074560	 0.531515
C	 -1.597472	 1.034011	 0.503089
N	 0.623947	 0.147590	 -0.102813
H	 -1.868528	 1.298769	 -0.513038
H	 -2.472791	 0.671041	 1.019920
H	 -1.237628	 1.928840	 0.999450
C	 1.712855	 0.741041	 0.648167
C	 0.783484	 0.161229	 -1.540383
H	 2.624993	 0.689001	 0.063947
H	 1.847862	 0.202571	 1.569993
H	 1.511813	 1.785347	 0.877138
H	 1.779150	 -0.185961	 -1.789676
H	 0.078413	 -0.495711	 -2.024366
H	 0.664004	 1.161385	 -1.952967

	symmetry c1
}
set optking {
	frozen_dihedral = ("
		2 4 8 10
	")
}

ee = energy('scf')
oeprop('DIPOLE', 'QUADRUPOLE', 'MULLIKEN_CHARGES')
f=open( 'psi4out.xyz', 'w' )
f.write( "15  " )
f.write( str(ee) + "\n" )
f.write( MOL.save_string_xyz() )
f.close()
--------------------------------------------------------------------------

  Memory set to   2.000 GiB by Python script.

*** tstart() called on cx1-3-2-1.cx1.hpc.ic.ac.uk
*** at Tue Jul  5 16:38:24 2016


         ---------------------------------------------------------
                                   SCF
            by Justin Turney, Rob Parrish, and Andy Simmonett
                              RHF Reference
                        1 Threads,   2000 MiB Core
         ---------------------------------------------------------

  ==> Geometry <==

    Molecular point group: c1
    Full point group: C1

    Geometry (in Angstrom), charge = 0, multiplicity = 1:

       Center              X                  Y                   Z               Mass       
    ------------   -----------------  -----------------  -----------------  -----------------
           O         -0.839217237993    -1.271787722634     0.900512954798    15.994914619560
           C         -0.594394237993    -0.231801722634     0.349881954798    12.000000000000
           C         -1.629937237993     0.876769277366     0.321455954798    12.000000000000
           N          0.591481762007    -0.009651722634    -0.284446045202    14.003074004780
           H         -1.900993237993     1.141527277366    -0.694671045202     1.007825032070
           H         -2.505256237993     0.513799277366     0.838286954798     1.007825032070
           H         -1.270093237993     1.771598277366     0.817816954798     1.007825032070
           C          1.680389762007     0.583799277366     0.466533954798    12.000000000000
           C          0.751018762007     0.003987277366    -1.722016045202    12.000000000000
           H          2.592527762007     0.531759277366    -0.117686045202     1.007825032070
           H          1.815396762007     0.045329277366     1.388359954798     1.007825032070
           H          1.479347762007     1.628105277366     0.695504954798     1.007825032070
           H          1.746684762007    -0.343202722634    -1.971309045202     1.007825032070
           H          0.045947762007    -0.652952722634    -2.205999045202     1.007825032070
           H          0.631538762007     1.004143277366    -2.134600045202     1.007825032070

  Running in c1 symmetry.

  Rotational constants: A =      0.16431  B =      0.09130  C =      0.08555 [cm^-1]
  Rotational constants: A =   4926.03333  B =   2736.99170  C =   2564.83030 [MHz]
  Nuclear repulsion =  251.076291789170824

  Charge       = 0
  Multiplicity = 1
  Electrons    = 48
  Nalpha       = 24
  Nbeta        = 24

  ==> Algorithm <==

  SCF Algorithm Type is DF.
  DIIS enabled.
  MOM disabled.
  Fractional occupation disabled.
  Guess Type is CORE.
  Energy threshold   = 1.00e-06
  Density threshold  = 1.00e-06
  Integral threshold = 0.00e+00

  ==> Primary Basis <==

  Basis Set: 6-31G*
    Number of shells: 54
    Number of basis function: 108
    Number of Cartesian functions: 108
    Spherical Harmonics?: false
    Max angular momentum: 2

  ==> Pre-Iterations <==

   -------------------------------------------------------
    Irrep   Nso     Nmo     Nalpha   Nbeta   Ndocc  Nsocc
   -------------------------------------------------------
     A        108     108       0       0       0       0
   -------------------------------------------------------
    Total     108     108      24      24      24       0
   -------------------------------------------------------

 OEINTS: Overlap, kinetic, potential, dipole, and quadrupole integrals
         stored in file 35.

  ==> Integral Setup <==

  ==> DFJK: Density-Fitted J/K Matrices <==

    J tasked:                  Yes
    K tasked:                  Yes
    wK tasked:                  No
    OpenMP threads:              1
    Integrals threads:           1
    Memory (MB):              1430
    Algorithm:                Core
    Integral Cache:           NONE
    Schwarz Cutoff:          1E-12
    Fitting Condition:       1E-12

   => Auxiliary Basis Set <=

  Basis Set: 
    Number of shells: 225
    Number of basis function: 711
    Number of Cartesian functions: 711
    Spherical Harmonics?: false
    Max angular momentum: 3

  Minimum eigenvalue in the overlap matrix is 4.0856112064E-03.
  Using Symmetric Orthogonalization.
  SCF Guess: Core (One-Electron) Hamiltonian.

  ==> Iterations <==

                           Total Energy        Delta E     RMS |[F,P]|

   @DF-RHF iter   1:  -203.36568951888407   -2.03366e+02   8.91515e-02 
   @DF-RHF iter   2:  -227.59109339133099   -2.42254e+01   4.66881e-02 DIIS
   @DF-RHF iter   3:  -222.58286036575245    5.00823e+00   7.49296e-02 DIIS
   @DF-RHF iter   4:  -266.89979761621669   -4.43169e+01   5.06409e-02 DIIS
   @DF-RHF iter   5:  -275.70446640009834   -8.80467e+00   3.89135e-02 DIIS
   @DF-RHF iter   6:  -280.72042122405185   -5.01595e+00   2.70407e-02 DIIS
   @DF-RHF iter   7:  -283.71126746818720   -2.99085e+00   1.64524e-02 DIIS
   @DF-RHF iter   8:  -285.52724721160200   -1.81598e+00   7.43038e-03 DIIS
   @DF-RHF iter   9:  -285.92316552823104   -3.95918e-01   2.61886e-03 DIIS
   @DF-RHF iter  10:  -285.98071874840866   -5.75532e-02   8.62278e-04 DIIS
   @DF-RHF iter  11:  -285.98937483948100   -8.65609e-03   4.05018e-04 DIIS
   @DF-RHF iter  12:  -285.99119496162609   -1.82012e-03   1.54293e-04 DIIS
   @DF-RHF iter  13:  -285.99172734456317   -5.32383e-04   8.37376e-05 DIIS
   @DF-RHF iter  14:  -285.99183194464933   -1.04600e-04   2.41311e-05 DIIS
   @DF-RHF iter  15:  -285.99184554369037   -1.35990e-05   7.08674e-06 DIIS
   @DF-RHF iter  16:  -285.99184658083129   -1.03714e-06   2.34584e-06 DIIS
   @DF-RHF iter  17:  -285.99184668386022   -1.03029e-07   9.09081e-07 DIIS

  ==> Post-Iterations <==

    Orbital Energies (a.u.)
    -----------------------

    Doubly Occupied:                                                      

       1A    -20.547496     2A    -15.547496     3A    -11.347921  
       4A    -11.260568     5A    -11.257460     6A    -11.225026  
       7A     -1.397661     8A     -1.236330     9A     -1.006478  
      10A     -0.973074    11A     -0.917913    12A     -0.738958  
      13A     -0.675873    14A     -0.659693    15A     -0.642547  
      16A     -0.599991    17A     -0.583639    18A     -0.581762  
      19A     -0.560105    20A     -0.547492    21A     -0.533348  
      22A     -0.483946    23A     -0.424431    24A     -0.349599  

    Virtual:                                                              

      25A      0.165152    26A      0.213554    27A      0.271735  
      28A      0.280828    29A      0.284009    30A      0.298331  
      31A      0.319751    32A      0.331584    33A      0.333474  
      34A      0.352189    35A      0.376063    36A      0.409013  
      37A      0.425586    38A      0.529759    39A      0.581950  
      40A      0.706226    41A      0.721245    42A      0.735043  
      43A      0.764291    44A      0.790612    45A      0.818055  
      46A      0.828559    47A      0.868390    48A      0.903048  
      49A      0.948410    50A      0.976974    51A      0.988666  
      52A      1.055355    53A      1.104523    54A      1.109382  
      55A      1.126287    56A      1.129626    57A      1.156583  
      58A      1.164961    59A      1.177878    60A      1.206304  
      61A      1.233084    62A      1.250439    63A      1.256105  
      64A      1.273809    65A      1.322263    66A      1.349013  
      67A      1.353970    68A      1.374021    69A      1.533255  
      70A      1.592713    71A      1.684326    72A      1.734384  
      73A      1.741688    74A      1.895524    75A      1.970599  
      76A      1.990856    77A      2.091126    78A      2.125662  
      79A      2.160407    80A      2.203232    81A      2.222153  
      82A      2.292548    83A      2.299563    84A      2.341114  
      85A      2.381240    86A      2.425687    87A      2.461651  
      88A      2.472430    89A      2.558235    90A      2.595887  
      91A      2.623400    92A      2.693273    93A      2.702141  
      94A      2.740212    95A      2.770316    96A      2.882028  
      97A      3.005017    98A      3.100695    99A      3.217988  
     100A      3.285448   101A      3.362854   102A      3.452678  
     103A      4.377987   104A      4.494236   105A      4.622289  
     106A      4.658592   107A      4.810199   108A      4.912033  

    Final Occupation by Irrep:
              A 
    DOCC [    24 ]

  Energy converged.

  @DF-RHF Final Energy:  -285.99184668386022

   => Energetics <=

    Nuclear Repulsion Energy =            251.0762917891708241
    One-Electron Energy =                -885.9385055278726213
    Two-Electron Energy =                 348.8703670548411537
    DFT Exchange-Correlation Energy =       0.0000000000000000
    Empirical Dispersion Energy =           0.0000000000000000
    PCM Polarization Energy =               0.0000000000000000
    EFP Energy =                            0.0000000000000000
    Total Energy =                       -285.9918466838606719

    Alert: EFP and PCM quantities not currently incorporated into SCF psivars.

Properties will be evaluated at   0.000000,   0.000000,   0.000000 Bohr
  ==> Properties <==


Properties computed using the SCF density matrix

  Nuclear Dipole Moment: (a.u.)
     X:     2.4646      Y:     5.2813      Z:    -3.1675

  Electronic Dipole Moment: (a.u.)
     X:    -2.0478      Y:    -4.1465      Z:     2.5046

  Dipole Moment: (a.u.)
     X:     0.4168      Y:     1.1349      Z:    -0.6629     Total:     1.3788

  Dipole Moment: (Debye)
     X:     1.0594      Y:     2.8846      Z:    -1.6849     Total:     3.5046


  Saving occupied orbitals to File 180.

*** tstop() called on cx1-3-2-1.cx1.hpc.ic.ac.uk at Tue Jul  5 16:38:33 2016
Module time:
	user time   =       8.67 seconds =       0.14 minutes
	system time =       0.05 seconds =       0.00 minutes
	total time  =          9 seconds =       0.15 minutes
Total time:
	user time   =       8.67 seconds =       0.14 minutes
	system time =       0.05 seconds =       0.00 minutes
	total time  =          9 seconds =       0.15 minutes


Properties will be evaluated at   0.000000,   0.000000,   0.000000 Bohr

Properties computed using the  density matrix

  Nuclear Dipole Moment: (a.u.)
     X:     2.4646      Y:     5.2813      Z:    -3.1675

  Electronic Dipole Moment: (a.u.)
     X:    -2.0478      Y:    -4.1465      Z:     2.5046

  Dipole Moment: (a.u.)
     X:     0.4168      Y:     1.1349      Z:    -0.6629     Total:     1.3788

  Dipole Moment: (Debye)
     X:     1.0594      Y:     2.8846      Z:    -1.6849     Total:     3.5046

  Quadrupole Moment: (Debye Ang)
    XX:   -35.3915     YY:   -41.6118     ZZ:   -36.5763
    XY:    -1.7457     XZ:     1.1474     YZ:     3.2432

  Traceless Quadrupole Moment: (Debye Ang)
    XX:     2.4684     YY:    -3.7519     ZZ:     1.2835
    XY:    -1.7457     XZ:     1.1474     YZ:     3.2432

  Mulliken Charges: (a.u.)
   Center  Symbol    Alpha    Beta     Spin     Total
       1     O     4.24986  4.24986  0.00000 -0.49972
       2     C     2.65728  2.65728  0.00000  0.68543
       3     C     3.28548  3.28548  0.00000 -0.57097
       4     N     3.82718  3.82718  0.00000 -0.65435
       5     H     0.40867  0.40867  0.00000  0.18267
       6     H     0.39840  0.39840  0.00000  0.20320
       7     H     0.40825  0.40825  0.00000  0.18349
       8     C     3.13953  3.13953  0.00000 -0.27907
       9     C     3.13571  3.13571  0.00000 -0.27142
      10     H     0.41198  0.41198  0.00000  0.17604
      11     H     0.40438  0.40438  0.00000  0.19125
      12     H     0.42654  0.42654  0.00000  0.14693
      13     H     0.41066  0.41066  0.00000  0.17869
      14     H     0.40903  0.40903  0.00000  0.18195
      15     H     0.42705  0.42705  0.00000  0.14589

   Total alpha = 24.00000, Total beta = 24.00000, Total charge =  0.00000


*** PSI4 exiting successfully. Buy a developer a beer!
