    -----------------------------------------------------------------------
          Psi4: An Open-Source Ab Initio Electronic Structure Package
                              Psi4 (no tag) Driver

                          Git: Rev {detached?}  

    J. M. Turney, A. C. Simmonett, R. M. Parrish, E. G. Hohenstein,
    F. A. Evangelista, J. T. Fermann, B. J. Mintz, L. A. Burns, J. J. Wilke,
    M. L. Abrams, N. J. Russ, M. L. Leininger, C. L. Janssen, E. T. Seidl,
    W. D. Allen, H. F. Schaefer, R. A. King, E. F. Valeev, C. D. Sherrill,
    and T. D. Crawford, WIREs Comput. Mol. Sci. 2, 556-565 (2012)
    (doi: 10.1002/wcms.93)

                         Additional Contributions by
    A. E. DePrince, M. Saitow, U. Bozkaya, A. Yu. Sokolov
    -----------------------------------------------------------------------


    Psi4 started on: Tue Jul  5 17:06:09 2016

    Process ID:  22497
    PSI4DATADIR: /export131/home/mjharvey/miniconda3/share
    Memory level set to 256.000 MB

  ==> Input File <==

--------------------------------------------------------------------------
set {
	reference rhf
	basis 6-31G*
}


set_num_threads( 1 )
memory 2 gb

molecule MOL {
0 1

O	 -1.639565	 0.156985	 2.225673
C	 -0.833093	 0.610524	 1.479901
C	 0.079190	 1.765370	 1.793616
O	 -0.632575	 0.154573	 0.251549
H	 -0.089820	 2.568449	 1.085486
H	 -0.108204	 2.112805	 2.798608
H	 1.112374	 1.452976	 1.695146
C	 0.160891	 -1.019931	 0.106212
C	 1.589627	 -0.672828	 0.480843
H	 0.089836	 -1.367806	 -0.916050
H	 -0.238459	 -1.792301	 0.749618
C	 1.722001	 0.048570	 1.823400
H	 1.992087	 -0.045559	 -0.311932
H	 2.181606	 -1.584278	 0.489726
C	 0.938030	 -0.641001	 2.939143
H	 2.773202	 0.101679	 2.099546
H	 1.378146	 1.072119	 1.716299
H	 1.047027	 -0.110418	 3.879693
H	 1.283598	 -1.659565	 3.092076
H	 -0.121838	 -0.683666	 2.704755

	symmetry c1
}
set optking {
	frozen_dihedral = ("
		16 12 9 8,
		2 4 8 10,
		12 9 8 10
	")
}

ee = energy('scf')
oeprop('DIPOLE', 'QUADRUPOLE', 'MULLIKEN_CHARGES')
f=open( 'psi4out.xyz', 'w' )
f.write( "20  " )
f.write( str(ee) + "\n" )
f.write( MOL.save_string_xyz() )
f.close()
--------------------------------------------------------------------------

  Memory set to   2.000 GiB by Python script.

*** tstart() called on cx1-1-1-1.cx1.hpc.ic.ac.uk
*** at Tue Jul  5 17:06:10 2016


         ---------------------------------------------------------
                                   SCF
            by Justin Turney, Rob Parrish, and Andy Simmonett
                              RHF Reference
                        1 Threads,   2000 MiB Core
         ---------------------------------------------------------

  ==> Geometry <==

    Molecular point group: c1
    Full point group: C1

    Geometry (in Angstrom), charge = 0, multiplicity = 1:

       Center              X                  Y                   Z               Mass       
    ------------   -----------------  -----------------  -----------------  -----------------
           O         -1.802594230176     0.104120306258     0.827263155919    15.994914619560
           C         -0.996122230176     0.557659306258     0.081491155919    12.000000000000
           C         -0.083839230176     1.712505306258     0.395206155919    12.000000000000
           O         -0.795604230176     0.101708306258    -1.146860844081    15.994914619560
           H         -0.252849230176     2.515584306258    -0.312923844081     1.007825032070
           H         -0.271233230176     2.059940306258     1.400198155919     1.007825032070
           H          0.949344769824     1.400111306258     0.296736155919     1.007825032070
           C         -0.002138230176    -1.072795693742    -1.292197844081    12.000000000000
           C          1.426597769824    -0.725692693742    -0.917566844081    12.000000000000
           H         -0.073193230176    -1.420670693742    -2.314459844081     1.007825032070
           H         -0.401488230176    -1.845165693742    -0.648791844081     1.007825032070
           C          1.558971769824    -0.004294693742     0.424990155919    12.000000000000
           H          1.829057769824    -0.098423693742    -1.710341844081     1.007825032070
           H          2.018576769824    -1.637142693742    -0.908683844081     1.007825032070
           C          0.775000769824    -0.693865693742     1.540733155919    12.000000000000
           H          2.610172769824     0.048814306258     0.701136155919     1.007825032070
           H          1.215116769824     1.019254306258     0.317889155919     1.007825032070
           H          0.883997769824    -0.163282693742     2.481283155919     1.007825032070
           H          1.120568769824    -1.712429693742     1.693666155919     1.007825032070
           H         -0.284867230176    -0.736530693742     1.306345155919     1.007825032070

  Running in c1 symmetry.

  Rotational constants: A =      0.08865  B =      0.07070  C =      0.05686 [cm^-1]
  Rotational constants: A =   2657.68415  B =   2119.44500  C =   1704.71655 [MHz]
  Nuclear repulsion =  434.079247429100235

  Charge       = 0
  Multiplicity = 1
  Electrons    = 64
  Nalpha       = 32
  Nbeta        = 32

  ==> Algorithm <==

  SCF Algorithm Type is DF.
  DIIS enabled.
  MOM disabled.
  Fractional occupation disabled.
  Guess Type is CORE.
  Energy threshold   = 1.00e-06
  Density threshold  = 1.00e-06
  Integral threshold = 0.00e+00

  ==> Primary Basis <==

  Basis Set: 6-31G*
    Number of shells: 72
    Number of basis function: 144
    Number of Cartesian functions: 144
    Spherical Harmonics?: false
    Max angular momentum: 2

  ==> Pre-Iterations <==

   -------------------------------------------------------
    Irrep   Nso     Nmo     Nalpha   Nbeta   Ndocc  Nsocc
   -------------------------------------------------------
     A        144     144       0       0       0       0
   -------------------------------------------------------
    Total     144     144      32      32      32       0
   -------------------------------------------------------

 OEINTS: Overlap, kinetic, potential, dipole, and quadrupole integrals
         stored in file 35.

  ==> Integral Setup <==

  ==> DFJK: Density-Fitted J/K Matrices <==

    J tasked:                  Yes
    K tasked:                  Yes
    wK tasked:                  No
    OpenMP threads:              1
    Integrals threads:           1
    Memory (MB):              1430
    Algorithm:                Core
    Integral Cache:           NONE
    Schwarz Cutoff:          1E-12
    Fitting Condition:       1E-12

   => Auxiliary Basis Set <=

  Basis Set: 
    Number of shells: 300
    Number of basis function: 948
    Number of Cartesian functions: 948
    Spherical Harmonics?: false
    Max angular momentum: 3

  Minimum eigenvalue in the overlap matrix is 5.2237443236E-04.
  Using Symmetric Orthogonalization.
  SCF Guess: Core (One-Electron) Hamiltonian.

  ==> Iterations <==

                           Total Energy        Delta E     RMS |[F,P]|

   @DF-RHF iter   1:  -294.51580087143412   -2.94516e+02   7.24610e-02 
   @DF-RHF iter   2:  -273.90997012091674    2.06058e+01   5.29857e-02 DIIS
   @DF-RHF iter   3:  -303.97645051863213   -3.00665e+01   5.82074e-02 DIIS
   @DF-RHF iter   4:  -373.45691396284604   -6.94805e+01   2.32094e-02 DIIS
   @DF-RHF iter   5:  -379.95872696909163   -6.50181e+00   1.49530e-02 DIIS
   @DF-RHF iter   6:  -383.31626468750022   -3.35754e+00   3.90242e-03 DIIS
   @DF-RHF iter   7:  -383.45346591498850   -1.37201e-01   1.71175e-03 DIIS
   @DF-RHF iter   8:  -383.47530794194148   -2.18420e-02   8.06951e-04 DIIS
   @DF-RHF iter   9:  -383.48202757478742   -6.71963e-03   3.66075e-04 DIIS
   @DF-RHF iter  10:  -383.48364474998999   -1.61718e-03   1.37429e-04 DIIS
   @DF-RHF iter  11:  -383.48393363918711   -2.88889e-04   3.53399e-05 DIIS
   @DF-RHF iter  12:  -383.48395926532174   -2.56261e-05   1.25227e-05 DIIS
   @DF-RHF iter  13:  -383.48396340718790   -4.14187e-06   5.87406e-06 DIIS
   @DF-RHF iter  14:  -383.48396448299826   -1.07581e-06   1.79675e-06 DIIS
   @DF-RHF iter  15:  -383.48396460615248   -1.23154e-07   6.14398e-07 DIIS

  ==> Post-Iterations <==

    Orbital Energies (a.u.)
    -----------------------

    Doubly Occupied:                                                      

       1A    -20.589456     2A    -20.548680     3A    -11.381800  
       4A    -11.297528     5A    -11.233880     6A    -11.206697  
       7A    -11.206127     8A    -11.205250     9A     -1.470919  
      10A     -1.372448    11A     -1.166941    12A     -1.069722  
      13A     -0.975564    14A     -0.904467    15A     -0.901856  
      16A     -0.766484    17A     -0.736258    18A     -0.707549  
      19A     -0.680800    20A     -0.666691    21A     -0.607993  
      22A     -0.598580    23A     -0.579668    24A     -0.574835  
      25A     -0.553885    26A     -0.543483    27A     -0.513570  
      28A     -0.477596    29A     -0.455517    30A     -0.448813  
      31A     -0.437812    32A     -0.334191  

    Virtual:                                                              

      33A      0.152313    34A      0.225710    35A      0.263612  
      36A      0.273053    37A      0.282842    38A      0.297087  
      39A      0.300944    40A      0.313039    41A      0.323793  
      42A      0.346112    43A      0.353575    44A      0.360091  
      45A      0.387483    46A      0.392068    47A      0.406260  
      48A      0.429449    49A      0.465757    50A      0.557099  
      51A      0.561996    52A      0.595086    53A      0.673104  
      54A      0.695347    55A      0.728492    56A      0.752367  
      57A      0.774819    58A      0.794984    59A      0.800624  
      60A      0.827464    61A      0.852494    62A      0.881534  
      63A      0.900274    64A      0.906789    65A      0.961162  
      66A      0.995194    67A      1.002660    68A      1.032107  
      69A      1.057931    70A      1.075480    71A      1.092080  
      72A      1.120251    73A      1.129077    74A      1.158583  
      75A      1.166998    76A      1.182927    77A      1.187482  
      78A      1.205233    79A      1.219978    80A      1.225593  
      81A      1.233263    82A      1.293300    83A      1.318076  
      84A      1.391341    85A      1.404939    86A      1.433166  
      87A      1.438739    88A      1.485941    89A      1.507882  
      90A      1.583586    91A      1.653031    92A      1.696141  
      93A      1.722189    94A      1.757841    95A      1.793435  
      96A      1.869598    97A      1.901969    98A      1.929055  
      99A      1.947775   100A      2.002994   101A      2.025393  
     102A      2.043741   103A      2.103286   104A      2.141812  
     105A      2.164894   106A      2.176475   107A      2.218672  
     108A      2.267967   109A      2.292734   110A      2.293278  
     111A      2.323772   112A      2.359615   113A      2.385019  
     114A      2.411757   115A      2.466607   116A      2.485849  
     117A      2.508982   118A      2.590111   119A      2.617752  
     120A      2.656291   121A      2.667470   122A      2.687400  
     123A      2.751825   124A      2.778785   125A      2.812658  
     126A      2.842016   127A      2.922531   128A      2.974065  
     129A      3.025162   130A      3.082258   131A      3.184558  
     132A      3.231704   133A      3.320822   134A      3.379633  
     135A      3.494133   136A      3.537207   137A      4.478988  
     138A      4.599964   139A      4.680102   140A      4.757535  
     141A      4.859633   142A      4.906256   143A      4.953688  
     144A      5.087208  

    Final Occupation by Irrep:
              A 
    DOCC [    32 ]

  Energy converged.

  @DF-RHF Final Energy:  -383.48396460615248

   => Energetics <=

    Nuclear Repulsion Energy =            434.0792474291002350
    One-Electron Energy =               -1382.6963255421587746
    Two-Electron Energy =                 565.1331135069057154
    DFT Exchange-Correlation Energy =       0.0000000000000000
    Empirical Dispersion Energy =           0.0000000000000000
    PCM Polarization Energy =               0.0000000000000000
    EFP Energy =                            0.0000000000000000
    Total Energy =                       -383.4839646061528811

    Alert: EFP and PCM quantities not currently incorporated into SCF psivars.

Properties will be evaluated at   0.000000,   0.000000,   0.000000 Bohr
  ==> Properties <==


Properties computed using the SCF density matrix

  Nuclear Dipole Moment: (a.u.)
     X:     8.7465      Y:    -0.5333      Z:     2.1566

  Electronic Dipole Moment: (a.u.)
     X:    -7.4209      Y:     0.5294      Z:    -2.5923

  Dipole Moment: (a.u.)
     X:     1.3256      Y:    -0.0039      Z:    -0.4357     Total:     1.3954

  Dipole Moment: (Debye)
     X:     3.3693      Y:    -0.0099      Z:    -1.1074     Total:     3.5467


  Saving occupied orbitals to File 180.

*** tstop() called on cx1-1-1-1.cx1.hpc.ic.ac.uk at Tue Jul  5 17:06:27 2016
Module time:
	user time   =      16.15 seconds =       0.27 minutes
	system time =       0.15 seconds =       0.00 minutes
	total time  =         17 seconds =       0.28 minutes
Total time:
	user time   =      16.15 seconds =       0.27 minutes
	system time =       0.15 seconds =       0.00 minutes
	total time  =         17 seconds =       0.28 minutes


Properties will be evaluated at   0.000000,   0.000000,   0.000000 Bohr

Properties computed using the  density matrix

  Nuclear Dipole Moment: (a.u.)
     X:     8.7465      Y:    -0.5333      Z:     2.1566

  Electronic Dipole Moment: (a.u.)
     X:    -7.4209      Y:     0.5294      Z:    -2.5923

  Dipole Moment: (a.u.)
     X:     1.3256      Y:    -0.0039      Z:    -0.4357     Total:     1.3954

  Dipole Moment: (Debye)
     X:     3.3693      Y:    -0.0099      Z:    -1.1074     Total:     3.5467

  Quadrupole Moment: (Debye Ang)
    XX:   -56.6306     YY:   -46.4573     ZZ:   -51.2745
    XY:     0.3239     XZ:     1.5086     YZ:     2.3023

  Traceless Quadrupole Moment: (Debye Ang)
    XX:    -5.1765     YY:     4.9969     ZZ:     0.1796
    XY:     0.3239     XZ:     1.5086     YZ:     2.3023

  Mulliken Charges: (a.u.)
   Center  Symbol    Alpha    Beta     Spin     Total
       1     O     4.26651  4.26651  0.00000 -0.53303
       2     C     2.63995  2.63995  0.00000  0.72009
       3     C     3.28716  3.28716  0.00000 -0.57432
       4     O     4.31064  4.31064  0.00000 -0.62128
       5     H     0.39965  0.39965  0.00000  0.20071
       6     H     0.39580  0.39580  0.00000  0.20839
       7     H     0.41913  0.41913  0.00000  0.16175
       8     C     3.01391  3.01391  0.00000 -0.02781
       9     C     3.16629  3.16629  0.00000 -0.33258
      10     H     0.40052  0.40052  0.00000  0.19897
      11     H     0.40498  0.40498  0.00000  0.19003
      12     C     3.18635  3.18635  0.00000 -0.37269
      13     H     0.41435  0.41435  0.00000  0.17129
      14     H     0.41315  0.41315  0.00000  0.17371
      15     C     3.28115  3.28115  0.00000 -0.56231
      16     H     0.41153  0.41153  0.00000  0.17695
      17     H     0.38904  0.38904  0.00000  0.22193
      18     H     0.41484  0.41484  0.00000  0.17032
      19     H     0.41476  0.41476  0.00000  0.17048
      20     H     0.37030  0.37030  0.00000  0.25940

   Total alpha = 32.00000, Total beta = 32.00000, Total charge = -0.00000


*** PSI4 exiting successfully. Buy a developer a beer!
