    -----------------------------------------------------------------------
          Psi4: An Open-Source Ab Initio Electronic Structure Package
                              Psi4 (no tag) Driver

                          Git: Rev {detached?}  

    J. M. Turney, A. C. Simmonett, R. M. Parrish, E. G. Hohenstein,
    F. A. Evangelista, J. T. Fermann, B. J. Mintz, L. A. Burns, J. J. Wilke,
    M. L. Abrams, N. J. Russ, M. L. Leininger, C. L. Janssen, E. T. Seidl,
    W. D. Allen, H. F. Schaefer, R. A. King, E. F. Valeev, C. D. Sherrill,
    and T. D. Crawford, WIREs Comput. Mol. Sci. 2, 556-565 (2012)
    (doi: 10.1002/wcms.93)

                         Additional Contributions by
    A. E. DePrince, M. Saitow, U. Bozkaya, A. Yu. Sokolov
    -----------------------------------------------------------------------


    Psi4 started on: Tue Jul  5 17:01:16 2016

    Process ID:  22179
    PSI4DATADIR: /export131/home/mjharvey/miniconda3/share
    Memory level set to 256.000 MB

  ==> Input File <==

--------------------------------------------------------------------------
set {
	reference rhf
	basis 6-31G*
}


set_num_threads( 1 )
memory 2 gb

molecule MOL {
0 1

O	 3.225979	 0.970355	 -0.599647
C	 2.701189	 0.057885	 -0.047330
C	 1.245376	 -0.013843	 0.345420
O	 3.347903	 -1.046386	 0.304773
C	 0.455112	 1.231400	 -0.050772
H	 0.838542	 -0.913825	 -0.103701
H	 1.208210	 -0.175333	 1.419774
C	 -0.998893	 1.219485	 0.433193
H	 0.482531	 1.345121	 -1.130325
H	 0.957290	 2.103070	 0.354729
C	 -1.883438	 0.145884	 -0.207175
H	 -1.431207	 2.195402	 0.224832
H	 -1.019646	 1.105716	 1.516076
C	 -3.347647	 0.245583	 0.225435
H	 -1.822183	 0.231698	 -1.291012
H	 -1.510341	 -0.844814	 0.042401
C	 -4.239992	 -0.825570	 -0.404234
H	 -3.732888	 1.230466	 -0.033079
H	 -3.408585	 0.170602	 1.310038
C	 -5.076738	 -0.297124	 -1.568838
H	 -3.621684	 -1.651268	 -0.750009
H	 -4.900288	 -1.237065	 0.356333
H	 -5.698292	 -1.079188	 -1.993872
H	 -4.443786	 0.090065	 -2.362344
H	 -5.731746	 0.507853	 -1.247510
C	 4.728119	 -1.109107	 -0.004993
H	 4.882018	 -1.033965	 -1.071845
H	 5.068212	 -2.067527	 0.355250
H	 5.265056	 -0.311663	 0.488280

	symmetry c1
}
set optking {
	frozen_dihedral = ("
		17 14 11 15,
		15 11 8 5,
		6 3 5 9,
		11 8 5 9,
		2 4 26 27,
		1 2 4 26,
		6 3 2 1
	")
}

ee = energy('scf')
oeprop('DIPOLE', 'QUADRUPOLE', 'MULLIKEN_CHARGES')
f=open( 'psi4out.xyz', 'w' )
f.write( "29  " )
f.write( str(ee) + "\n" )
f.write( MOL.save_string_xyz() )
f.close()
--------------------------------------------------------------------------

  Memory set to   2.000 GiB by Python script.

*** tstart() called on cx1-3-14-1.cx1.hpc.ic.ac.uk
*** at Tue Jul  5 17:01:17 2016


         ---------------------------------------------------------
                                   SCF
            by Justin Turney, Rob Parrish, and Andy Simmonett
                              RHF Reference
                        1 Threads,   2000 MiB Core
         ---------------------------------------------------------

  ==> Geometry <==

    Molecular point group: c1
    Full point group: C1

    Geometry (in Angstrom), charge = 0, multiplicity = 1:

       Center              X                  Y                   Z               Mass       
    ------------   -----------------  -----------------  -----------------  -----------------
           O          3.166653019017     0.930503574788    -0.447781219231    15.994914619560
           C          2.641863019017     0.018033574788     0.104535780769    12.000000000000
           C          1.186050019017    -0.053694425212     0.497285780769    12.000000000000
           O          3.288577019017    -1.086237425212     0.456638780769    15.994914619560
           C          0.395786019017     1.191548574788     0.101093780769    12.000000000000
           H          0.779216019017    -0.953676425212     0.048164780769     1.007825032070
           H          1.148884019017    -0.215184425212     1.571639780769     1.007825032070
           C         -1.058218980983     1.179633574788     0.585058780769    12.000000000000
           H          0.423205019017     1.305269574788    -0.978459219231     1.007825032070
           H          0.897964019017     2.063218574788     0.506594780769     1.007825032070
           C         -1.942763980983     0.106032574788    -0.055309219231    12.000000000000
           H         -1.490532980983     2.155550574788     0.376697780769     1.007825032070
           H         -1.078971980983     1.065864574788     1.667941780769     1.007825032070
           C         -3.406972980983     0.205731574788     0.377300780769    12.000000000000
           H         -1.881508980983     0.191846574788    -1.139146219231     1.007825032070
           H         -1.569666980983    -0.884665425212     0.194266780769     1.007825032070
           C         -4.299317980983    -0.865421425212    -0.252368219231    12.000000000000
           H         -3.792213980983     1.190614574788     0.118786780769     1.007825032070
           H         -3.467910980983     0.130750574788     1.461903780769     1.007825032070
           C         -5.136063980983    -0.336975425212    -1.416972219231    12.000000000000
           H         -3.681009980983    -1.691119425212    -0.598143219231     1.007825032070
           H         -4.959613980983    -1.276916425212     0.508198780769     1.007825032070
           H         -5.757617980983    -1.119039425212    -1.842006219231     1.007825032070
           H         -4.503111980983     0.050213574788    -2.210478219231     1.007825032070
           H         -5.791071980983     0.468001574788    -1.095644219231     1.007825032070
           C          4.668793019017    -1.148958425212     0.146872780769    12.000000000000
           H          4.822692019017    -1.073816425212    -0.919979219231     1.007825032070
           H          5.008886019017    -2.107378425212     0.507115780769     1.007825032070
           H          5.205730019017    -0.351514425212     0.640145780769     1.007825032070

  Running in c1 symmetry.

  Rotational constants: A =      0.09771  B =      0.00970  C =      0.00934 [cm^-1]
  Rotational constants: A =   2929.34105  B =    290.87438  C =    279.90307 [MHz]
  Nuclear repulsion =  613.275064037096854

  Charge       = 0
  Multiplicity = 1
  Electrons    = 88
  Nalpha       = 44
  Nbeta        = 44

  ==> Algorithm <==

  SCF Algorithm Type is DF.
  DIIS enabled.
  MOM disabled.
  Fractional occupation disabled.
  Guess Type is CORE.
  Energy threshold   = 1.00e-06
  Density threshold  = 1.00e-06
  Integral threshold = 0.00e+00

  ==> Primary Basis <==

  Basis Set: 6-31G*
    Number of shells: 102
    Number of basis function: 201
    Number of Cartesian functions: 201
    Spherical Harmonics?: false
    Max angular momentum: 2

  ==> Pre-Iterations <==

   -------------------------------------------------------
    Irrep   Nso     Nmo     Nalpha   Nbeta   Ndocc  Nsocc
   -------------------------------------------------------
     A        201     201       0       0       0       0
   -------------------------------------------------------
    Total     201     201      44      44      44       0
   -------------------------------------------------------

 OEINTS: Overlap, kinetic, potential, dipole, and quadrupole integrals
         stored in file 35.

  ==> Integral Setup <==

  ==> DFJK: Density-Fitted J/K Matrices <==

    J tasked:                  Yes
    K tasked:                  Yes
    wK tasked:                  No
    OpenMP threads:              1
    Integrals threads:           1
    Memory (MB):              1430
    Algorithm:                Core
    Integral Cache:           NONE
    Schwarz Cutoff:          1E-12
    Fitting Condition:       1E-12

   => Auxiliary Basis Set <=

  Basis Set: 
    Number of shells: 426
    Number of basis function: 1341
    Number of Cartesian functions: 1341
    Spherical Harmonics?: false
    Max angular momentum: 3

  Minimum eigenvalue in the overlap matrix is 2.4977358139E-03.
  Using Symmetric Orthogonalization.
  SCF Guess: Core (One-Electron) Hamiltonian.

  ==> Iterations <==

                           Total Energy        Delta E     RMS |[F,P]|

   @DF-RHF iter   1:  -323.72694891868809   -3.23727e+02   5.93648e-02 
   @DF-RHF iter   2:   112.58141898278694    4.36308e+02   8.08157e-02 DIIS
   @DF-RHF iter   3:  -202.00532757428437   -3.14587e+02   5.74354e-02 DIIS
   @DF-RHF iter   4:  -297.86113182116583   -9.58558e+01   5.47682e-02 DIIS
   @DF-RHF iter   5:  -394.67413629584041   -9.68130e+01   5.18448e-02 DIIS
   @DF-RHF iter   6:  -484.59923349276755   -8.99251e+01   1.28320e-02 DIIS
   @DF-RHF iter   7:  -394.66479744887977    8.99344e+01   3.48386e-02 DIIS
   @DF-RHF iter   8:  -475.67412622946335   -8.10093e+01   1.90494e-02 DIIS
   @DF-RHF iter   9:  -500.81089303295698   -2.51368e+01   3.50429e-03 DIIS
   @DF-RHF iter  10:  -501.00731570240396   -1.96423e-01   1.21175e-03 DIIS
   @DF-RHF iter  11:  -501.03610166512317   -2.87860e-02   3.12309e-04 DIIS
   @DF-RHF iter  12:  -501.03833829761766   -2.23663e-03   1.70831e-04 DIIS
   @DF-RHF iter  13:  -501.03900902812256   -6.70731e-04   7.88229e-05 DIIS
   @DF-RHF iter  14:  -501.03916350638610   -1.54478e-04   4.24457e-05 DIIS
   @DF-RHF iter  15:  -501.03921447697053   -5.09706e-05   1.40989e-05 DIIS
   @DF-RHF iter  16:  -501.03922049605330   -6.01908e-06   3.35779e-06 DIIS
   @DF-RHF iter  17:  -501.03922089137859   -3.95325e-07   9.63267e-07 DIIS

  ==> Post-Iterations <==

    Orbital Energies (a.u.)
    -----------------------

    Doubly Occupied:                                                      

       1A    -20.603342     2A    -20.545249     3A    -11.372001  
       4A    -11.280669     5A    -11.234766     6A    -11.219019  
       7A    -11.217326     8A    -11.216217     9A    -11.214456  
      10A    -11.213108    11A    -11.208982    12A     -1.469071  
      13A     -1.362525    14A     -1.098248    15A     -1.066987  
      16A     -1.018719    17A     -0.976370    18A     -0.928174  
      19A     -0.864880    20A     -0.800704    21A     -0.787234  
      22A     -0.764015    23A     -0.700555    24A     -0.682363  
      25A     -0.672122    26A     -0.641805    27A     -0.630877  
      28A     -0.605937    29A     -0.601752    30A     -0.582351  
      31A     -0.562696    32A     -0.554175    33A     -0.533119  
      34A     -0.523781    35A     -0.515329    36A     -0.514448  
      37A     -0.498830    38A     -0.476323    39A     -0.473935  
      40A     -0.459883    41A     -0.456185    42A     -0.453229  
      43A     -0.440425    44A     -0.434941  

    Virtual:                                                              

      45A      0.199200    46A      0.226026    47A      0.237355  
      48A      0.257244    49A      0.262668    50A      0.265070  
      51A      0.283621    52A      0.298112    53A      0.301729  
      54A      0.309275    55A      0.315682    56A      0.316654  
      57A      0.324229    58A      0.327227    59A      0.332028  
      60A      0.344638    61A      0.352699    62A      0.358195  
      63A      0.366712    64A      0.374583    65A      0.402654  
      66A      0.424423    67A      0.431875    68A      0.451879  
      69A      0.470372    70A      0.472275    71A      0.493259  
      72A      0.536993    73A      0.585978    74A      0.713970  
      75A      0.719738    76A      0.723160    77A      0.726704  
      78A      0.738173    79A      0.750744    80A      0.766559  
      81A      0.774818    82A      0.787104    83A      0.797492  
      84A      0.801381    85A      0.842123    86A      0.849108  
      87A      0.889821    88A      0.917071    89A      0.926451  
      90A      0.946760    91A      0.963521    92A      0.976388  
      93A      0.988582    94A      0.996666    95A      1.019326  
      96A      1.047332    97A      1.085819    98A      1.096212  
      99A      1.122839   100A      1.126420   101A      1.128125  
     102A      1.133877   103A      1.137219   104A      1.144270  
     105A      1.154897   106A      1.164403   107A      1.175938  
     108A      1.180735   109A      1.188350   110A      1.196068  
     111A      1.206426   112A      1.207995   113A      1.216427  
     114A      1.219952   115A      1.237290   116A      1.244711  
     117A      1.264365   118A      1.274313   119A      1.280182  
     120A      1.283509   121A      1.301446   122A      1.319706  
     123A      1.370984   124A      1.395563   125A      1.412165  
     126A      1.459592   127A      1.503712   128A      1.565913  
     129A      1.647017   130A      1.665103   131A      1.686582  
     132A      1.719734   133A      1.741534   134A      1.789999  
     135A      1.805304   136A      1.852935   137A      1.875471  
     138A      1.891475   139A      1.929008   140A      1.961340  
     141A      1.996550   142A      2.021661   143A      2.041157  
     144A      2.075124   145A      2.099117   146A      2.138203  
     147A      2.154296   148A      2.182601   149A      2.200122  
     150A      2.216974   151A      2.239121   152A      2.255233  
     153A      2.277424   154A      2.290398   155A      2.300057  
     156A      2.318298   157A      2.362223   158A      2.367003  
     159A      2.377704   160A      2.399558   161A      2.406370  
     162A      2.436561   163A      2.447579   164A      2.481559  
     165A      2.526887   166A      2.547051   167A      2.608028  
     168A      2.620643   169A      2.663629   170A      2.675618  
     171A      2.683919   172A      2.695245   173A      2.744174  
     174A      2.760087   175A      2.791018   176A      2.802893  
     177A      2.827474   178A      2.846809   179A      2.907666  
     180A      2.929539   181A      2.968737   182A      3.023839  
     183A      3.034880   184A      3.067515   185A      3.130257  
     186A      3.163742   187A      3.181996   188A      3.349865  
     189A      3.450995   190A      3.581183   191A      4.416954  
     192A      4.540380   193A      4.583919   194A      4.622383  
     195A      4.672150   196A      4.730934   197A      4.795171  
     198A      4.848251   199A      4.904340   200A      4.970962  
     201A      5.033239  

    Final Occupation by Irrep:
              A 
    DOCC [    44 ]

  Energy converged.

  @DF-RHF Final Energy:  -501.03922089137859

   => Energetics <=

    Nuclear Repulsion Energy =            613.2750640370968540
    One-Electron Energy =               -1897.6743547359435524
    Two-Electron Energy =                 783.3600698074677666
    DFT Exchange-Correlation Energy =       0.0000000000000000
    Empirical Dispersion Energy =           0.0000000000000000
    PCM Polarization Energy =               0.0000000000000000
    EFP Energy =                            0.0000000000000000
    Total Energy =                       -501.0392208913789318

    Alert: EFP and PCM quantities not currently incorporated into SCF psivars.

Properties will be evaluated at   0.000000,   0.000000,   0.000000 Bohr
  ==> Properties <==


Properties computed using the SCF density matrix

  Nuclear Dipole Moment: (a.u.)
     X:   -18.4246      Y:    -0.9869      Z:    -1.1084

  Electronic Dipole Moment: (a.u.)
     X:    18.2668      Y:     0.3671      Z:     1.4429

  Dipole Moment: (a.u.)
     X:    -0.1578      Y:    -0.6198      Z:     0.3345     Total:     0.7218

  Dipole Moment: (Debye)
     X:    -0.4011      Y:    -1.5754      Z:     0.8502     Total:     1.8346


  Saving occupied orbitals to File 180.

*** tstop() called on cx1-3-14-1.cx1.hpc.ic.ac.uk at Tue Jul  5 17:02:00 2016
Module time:
	user time   =      42.85 seconds =       0.71 minutes
	system time =       0.36 seconds =       0.01 minutes
	total time  =         43 seconds =       0.72 minutes
Total time:
	user time   =      42.85 seconds =       0.71 minutes
	system time =       0.36 seconds =       0.01 minutes
	total time  =         43 seconds =       0.72 minutes


Properties will be evaluated at   0.000000,   0.000000,   0.000000 Bohr

Properties computed using the  density matrix

  Nuclear Dipole Moment: (a.u.)
     X:   -18.4246      Y:    -0.9869      Z:    -1.1084

  Electronic Dipole Moment: (a.u.)
     X:    18.2668      Y:     0.3671      Z:     1.4429

  Dipole Moment: (a.u.)
     X:    -0.1578      Y:    -0.6198      Z:     0.3345     Total:     0.7218

  Dipole Moment: (Debye)
     X:    -0.4011      Y:    -1.5754      Z:     0.8502     Total:     1.8346

  Quadrupole Moment: (Debye Ang)
    XX:   -66.7835     YY:   -72.5024     ZZ:   -70.1522
    XY:    -7.5820     XZ:     2.2177     YZ:     2.0797

  Traceless Quadrupole Moment: (Debye Ang)
    XX:     3.0292     YY:    -2.6897     ZZ:    -0.3395
    XY:    -7.5820     XZ:     2.2177     YZ:     2.0797

  Mulliken Charges: (a.u.)
   Center  Symbol    Alpha    Beta     Spin     Total
       1     O     4.28593  4.28593  0.00000 -0.57186
       2     C     2.60485  2.60485  0.00000  0.79029
       3     C     3.20968  3.20968  0.00000 -0.41936
       4     O     4.30746  4.30746  0.00000 -0.61492
       5     C     3.15371  3.15371  0.00000 -0.30742
       6     H     0.39895  0.39895  0.00000  0.20211
       7     H     0.40122  0.40122  0.00000  0.19755
       8     C     3.15695  3.15695  0.00000 -0.31390
       9     H     0.41319  0.41319  0.00000  0.17362
      10     H     0.40880  0.40880  0.00000  0.18240
      11     C     3.15678  3.15678  0.00000 -0.31356
      12     H     0.41817  0.41817  0.00000  0.16366
      13     H     0.42380  0.42380  0.00000  0.15239
      14     C     3.15399  3.15399  0.00000 -0.30797
      15     H     0.42249  0.42249  0.00000  0.15502
      16     H     0.42293  0.42293  0.00000  0.15414
      17     C     3.15445  3.15445  0.00000 -0.30890
      18     H     0.42107  0.42107  0.00000  0.15785
      19     H     0.42149  0.42149  0.00000  0.15702
      20     C     3.24009  3.24009  0.00000 -0.48018
      21     H     0.42138  0.42138  0.00000  0.15725
      22     H     0.42040  0.42040  0.00000  0.15920
      23     H     0.42009  0.42009  0.00000  0.15982
      24     H     0.42180  0.42180  0.00000  0.15641
      25     H     0.42119  0.42119  0.00000  0.15763
      26     C     3.09242  3.09242  0.00000 -0.18484
      27     H     0.40909  0.40909  0.00000  0.18182
      28     H     0.40851  0.40851  0.00000  0.18297
      29     H     0.40912  0.40912  0.00000  0.18176

   Total alpha = 44.00000, Total beta = 44.00000, Total charge =  0.00000


*** PSI4 exiting successfully. Buy a developer a beer!
