    -----------------------------------------------------------------------
          Psi4: An Open-Source Ab Initio Electronic Structure Package
                              Psi4 (no tag) Driver

                          Git: Rev {detached?}  

    J. M. Turney, A. C. Simmonett, R. M. Parrish, E. G. Hohenstein,
    F. A. Evangelista, J. T. Fermann, B. J. Mintz, L. A. Burns, J. J. Wilke,
    M. L. Abrams, N. J. Russ, M. L. Leininger, C. L. Janssen, E. T. Seidl,
    W. D. Allen, H. F. Schaefer, R. A. King, E. F. Valeev, C. D. Sherrill,
    and T. D. Crawford, WIREs Comput. Mol. Sci. 2, 556-565 (2012)
    (doi: 10.1002/wcms.93)

                         Additional Contributions by
    A. E. DePrince, M. Saitow, U. Bozkaya, A. Yu. Sokolov
    -----------------------------------------------------------------------


    Psi4 started on: Tue Jul  5 16:29:39 2016

    Process ID:  21143
    PSI4DATADIR: /export131/home/mjharvey/miniconda3/share
    Memory level set to 256.000 MB

  ==> Input File <==

--------------------------------------------------------------------------
set {
	reference rhf
	basis 6-31G*
}


set_num_threads( 1 )
memory 2 gb

molecule MOL {
0 1

H	 1.977260	 1.199629	 -2.458942
C	 1.793313	 0.808663	 -1.462174
C	 0.311496	 0.495713	 -1.279412
H	 2.109791	 1.549941	 -0.736838
H	 2.417626	 -0.069187	 -1.335107
N	 -0.000257	 -0.000071	 0.054619
H	 -0.246850	 1.408778	 -1.443544
H	 -0.021865	 -0.206424	 -2.049192
C	 -1.363055	 0.315058	 0.462241
C	 0.316347	 -1.413429	 0.212222
C	 -2.412078	 -0.285320	 -0.468531
H	 -1.482241	 1.391144	 0.451970
H	 -1.549931	 -0.001174	 1.492681
C	 0.664409	 -1.784418	 1.650436
H	 1.172419	 -1.642809	 -0.409614
H	 -0.500484	 -2.043859	 -0.151278
H	 -2.262839	 0.075384	 -1.480151
H	 -2.369300	 -1.368867	 -0.491760
H	 -3.410332	 -0.003975	 -0.144961
H	 1.512679	 -1.201175	 1.990875
H	 -0.159238	 -1.603468	 2.332648
H	 0.919939	 -2.838200	 1.718083

	symmetry c1
}
ee = energy('scf')
oeprop('DIPOLE', 'QUADRUPOLE', 'MULLIKEN_CHARGES')
f=open( 'psi4out.xyz', 'w' )
f.write( "22  " )
f.write( str(ee) + "\n" )
f.write( MOL.save_string_xyz() )
f.close()
--------------------------------------------------------------------------

  Memory set to   2.000 GiB by Python script.

*** tstart() called on cx1-3-15-2.cx1.hpc.ic.ac.uk
*** at Tue Jul  5 16:29:40 2016


         ---------------------------------------------------------
                                   SCF
            by Justin Turney, Rob Parrish, and Andy Simmonett
                              RHF Reference
                        1 Threads,   2000 MiB Core
         ---------------------------------------------------------

  ==> Geometry <==

    Molecular point group: c1
    Full point group: C1

    Geometry (in Angstrom), charge = 0, multiplicity = 1:

       Center              X                  Y                   Z               Mass       
    ------------   -----------------  -----------------  -----------------  -----------------
           H          2.077997254349     1.474172375067    -2.334395895386     1.007825032070
           C          1.894050254349     1.083206375067    -1.337627895386    12.000000000000
           C          0.412233254349     0.770256375067    -1.154865895386    12.000000000000
           H          2.210528254349     1.824484375067    -0.612291895386     1.007825032070
           H          2.518363254349     0.205356375067    -1.210560895386     1.007825032070
           N          0.100480254349     0.274472375067     0.179165104614    14.003074004780
           H         -0.146112745651     1.683321375067    -1.318997895386     1.007825032070
           H          0.078872254349     0.068119375067    -1.924645895386     1.007825032070
           C         -1.262317745651     0.589601375067     0.586787104614    12.000000000000
           C          0.417084254349    -1.138885624933     0.336768104614    12.000000000000
           C         -2.311340745651    -0.010776624933    -0.343984895386    12.000000000000
           H         -1.381503745651     1.665687375067     0.576516104614     1.007825032070
           H         -1.449193745651     0.273369375067     1.617227104614     1.007825032070
           C          0.765146254349    -1.509874624933     1.774982104614    12.000000000000
           H          1.273156254349    -1.368265624933    -0.285067895386     1.007825032070
           H         -0.399746745651    -1.769315624933    -0.026731895386     1.007825032070
           H         -2.162101745651     0.349927375067    -1.355604895386     1.007825032070
           H         -2.268562745651    -1.094323624933    -0.367213895386     1.007825032070
           H         -3.309594745651     0.270568375067    -0.020414895386     1.007825032070
           H          1.613416254349    -0.926631624933     2.115421104614     1.007825032070
           H         -0.058500745651    -1.328924624933     2.457194104614     1.007825032070
           H          1.020676254349    -2.563656624933     1.842629104614     1.007825032070

  Running in c1 symmetry.

  Rotational constants: A =      0.08641  B =      0.07396  C =      0.04603 [cm^-1]
  Rotational constants: A =   2590.60066  B =   2217.13627  C =   1379.88133 [MHz]
  Nuclear repulsion =  340.405497427545015

  Charge       = 0
  Multiplicity = 1
  Electrons    = 58
  Nalpha       = 29
  Nbeta        = 29

  ==> Algorithm <==

  SCF Algorithm Type is DF.
  DIIS enabled.
  MOM disabled.
  Fractional occupation disabled.
  Guess Type is CORE.
  Energy threshold   = 1.00e-06
  Density threshold  = 1.00e-06
  Integral threshold = 0.00e+00

  ==> Primary Basis <==

  Basis Set: 6-31G*
    Number of shells: 72
    Number of basis function: 135
    Number of Cartesian functions: 135
    Spherical Harmonics?: false
    Max angular momentum: 2

  ==> Pre-Iterations <==

   -------------------------------------------------------
    Irrep   Nso     Nmo     Nalpha   Nbeta   Ndocc  Nsocc
   -------------------------------------------------------
     A        135     135       0       0       0       0
   -------------------------------------------------------
    Total     135     135      29      29      29       0
   -------------------------------------------------------

 OEINTS: Overlap, kinetic, potential, dipole, and quadrupole integrals
         stored in file 35.

  ==> Integral Setup <==

  ==> DFJK: Density-Fitted J/K Matrices <==

    J tasked:                  Yes
    K tasked:                  Yes
    wK tasked:                  No
    OpenMP threads:              1
    Integrals threads:           1
    Memory (MB):              1430
    Algorithm:                Core
    Integral Cache:           NONE
    Schwarz Cutoff:          1E-12
    Fitting Condition:       1E-12

   => Auxiliary Basis Set <=

  Basis Set: 
    Number of shells: 303
    Number of basis function: 942
    Number of Cartesian functions: 942
    Spherical Harmonics?: false
    Max angular momentum: 3

  Minimum eigenvalue in the overlap matrix is 4.5979960595E-03.
  Using Symmetric Orthogonalization.
  SCF Guess: Core (One-Electron) Hamiltonian.

  ==> Iterations <==

                           Total Energy        Delta E     RMS |[F,P]|

   @DF-RHF iter   1:  -154.37597313850733   -1.54376e+02   8.82703e-02 
   @DF-RHF iter   2:  -197.45322619431317   -4.30773e+01   5.29860e-02 DIIS
   @DF-RHF iter   3:  -239.60376829737027   -4.21505e+01   5.32984e-02 DIIS
   @DF-RHF iter   4:  -279.49255062065515   -3.98888e+01   3.11796e-02 DIIS
   @DF-RHF iter   5:  -289.42506289715072   -9.93251e+00   9.66620e-03 DIIS
   @DF-RHF iter   6:  -290.31335999492489   -8.88297e-01   1.95658e-03 DIIS
   @DF-RHF iter   7:  -290.36333082862188   -4.99708e-02   5.74022e-04 DIIS
   @DF-RHF iter   8:  -290.36746796292198   -4.13713e-03   1.97721e-04 DIIS
   @DF-RHF iter   9:  -290.36794359051680   -4.75628e-04   6.77578e-05 DIIS
   @DF-RHF iter  10:  -290.36800561590485   -6.20254e-05   1.99009e-05 DIIS
   @DF-RHF iter  11:  -290.36801087533138   -5.25943e-06   5.26227e-06 DIIS
   @DF-RHF iter  12:  -290.36801119331642   -3.17985e-07   1.24477e-06 DIIS
   @DF-RHF iter  13:  -290.36801121372002   -2.04036e-08   2.94280e-07 DIIS

  ==> Post-Iterations <==

    Orbital Energies (a.u.)
    -----------------------

    Doubly Occupied:                                                      

       1A    -15.536311     2A    -11.240737     3A    -11.240500  
       4A    -11.238252     5A    -11.204991     6A    -11.204711  
       7A    -11.203894     8A     -1.224735     9A     -1.023803  
      10A     -1.020789    11A     -0.954441    12A     -0.859580  
      13A     -0.844906    14A     -0.759061    15A     -0.661572  
      16A     -0.642790    17A     -0.618314    18A     -0.597997  
      19A     -0.569530    20A     -0.550897    21A     -0.542853  
      22A     -0.518727    23A     -0.513155    24A     -0.507713  
      25A     -0.492369    26A     -0.481608    27A     -0.465733  
      28A     -0.461388    29A     -0.337617  

    Virtual:                                                              

      30A      0.226136    31A      0.252598    32A      0.262878  
      33A      0.277397    34A      0.299813    35A      0.304893  
      36A      0.311080    37A      0.318471    38A      0.321764  
      39A      0.333569    40A      0.349755    41A      0.359258  
      42A      0.370439    43A      0.383008    44A      0.392349  
      45A      0.394123    46A      0.424708    47A      0.432944  
      48A      0.458583    49A      0.470552    50A      0.490179  
      51A      0.712646    52A      0.717135    53A      0.736591  
      54A      0.750926    55A      0.755446    56A      0.762419  
      57A      0.794521    58A      0.803612    59A      0.830899  
      60A      0.887030    61A      0.910216    62A      0.934162  
      63A      0.941562    64A      0.971053    65A      0.980407  
      66A      1.052220    67A      1.070713    68A      1.109217  
      69A      1.134285    70A      1.141624    71A      1.150647  
      72A      1.171092    73A      1.176701    74A      1.181851  
      75A      1.192648    76A      1.197118    77A      1.205000  
      78A      1.223528    79A      1.247352    80A      1.260335  
      81A      1.278125    82A      1.283374    83A      1.297716  
      84A      1.308485    85A      1.318365    86A      1.355098  
      87A      1.383268    88A      1.487862    89A      1.562372  
      90A      1.659290    91A      1.676152    92A      1.689722  
      93A      1.718706    94A      1.829880    95A      1.915903  
      96A      1.940393    97A      2.006747    98A      2.070754  
      99A      2.113304   100A      2.135628   101A      2.204106  
     102A      2.259105   103A      2.272879   104A      2.290769  
     105A      2.312518   106A      2.329122   107A      2.335743  
     108A      2.365904   109A      2.404323   110A      2.468502  
     111A      2.515887   112A      2.534878   113A      2.590294  
     114A      2.654866   115A      2.660382   116A      2.675335  
     117A      2.687643   118A      2.699294   119A      2.706236  
     120A      2.718609   121A      2.794362   122A      2.880475  
     123A      2.933081   124A      3.002839   125A      3.090589  
     126A      3.143858   127A      3.215790   128A      3.242688  
     129A      4.496540   130A      4.631919   131A      4.650564  
     132A      4.694270   133A      4.861952   134A      4.884551  
     135A      4.937480  

    Final Occupation by Irrep:
              A 
    DOCC [    29 ]

  Energy converged.

  @DF-RHF Final Energy:  -290.36801121372002

   => Energetics <=

    Nuclear Repulsion Energy =            340.4054974275450149
    One-Electron Energy =               -1066.5089001953792831
    Two-Electron Energy =                 435.7353915541153810
    DFT Exchange-Correlation Energy =       0.0000000000000000
    Empirical Dispersion Energy =           0.0000000000000000
    PCM Polarization Energy =               0.0000000000000000
    EFP Energy =                            0.0000000000000000
    Total Energy =                       -290.3680112137188871

    Alert: EFP and PCM quantities not currently incorporated into SCF psivars.

Properties will be evaluated at   0.000000,   0.000000,   0.000000 Bohr
  ==> Properties <==


Properties computed using the SCF density matrix

  Nuclear Dipole Moment: (a.u.)
     X:    -0.3587      Y:    -1.1596      Z:    -0.7945

  Electronic Dipole Moment: (a.u.)
     X:     0.1553      Y:     1.0453      Z:     0.5900

  Dipole Moment: (a.u.)
     X:    -0.2034      Y:    -0.1143      Z:    -0.2045     Total:     0.3102

  Dipole Moment: (Debye)
     X:    -0.5169      Y:    -0.2905      Z:    -0.5199     Total:     0.7886


  Saving occupied orbitals to File 180.

*** tstop() called on cx1-3-15-2.cx1.hpc.ic.ac.uk at Tue Jul  5 16:29:56 2016
Module time:
	user time   =      15.62 seconds =       0.26 minutes
	system time =       0.07 seconds =       0.00 minutes
	total time  =         16 seconds =       0.27 minutes
Total time:
	user time   =      15.62 seconds =       0.26 minutes
	system time =       0.07 seconds =       0.00 minutes
	total time  =         16 seconds =       0.27 minutes


Properties will be evaluated at   0.000000,   0.000000,   0.000000 Bohr

Properties computed using the  density matrix

  Nuclear Dipole Moment: (a.u.)
     X:    -0.3587      Y:    -1.1596      Z:    -0.7945

  Electronic Dipole Moment: (a.u.)
     X:     0.1553      Y:     1.0453      Z:     0.5900

  Dipole Moment: (a.u.)
     X:    -0.2034      Y:    -0.1143      Z:    -0.2045     Total:     0.3102

  Dipole Moment: (Debye)
     X:    -0.5169      Y:    -0.2905      Z:    -0.5199     Total:     0.7886

  Quadrupole Moment: (Debye Ang)
    XX:   -47.8111     YY:   -47.0260     ZZ:   -47.9102
    XY:    -1.1178     XZ:    -1.2693     YZ:    -0.8041

  Traceless Quadrupole Moment: (Debye Ang)
    XX:    -0.2287     YY:     0.5564     ZZ:    -0.3278
    XY:    -1.1178     XZ:    -1.2693     YZ:    -0.8041

  Mulliken Charges: (a.u.)
   Center  Symbol    Alpha    Beta     Spin     Total
       1     H     0.42367  0.42367  0.00000  0.15265
       2     C     3.23405  3.23405  0.00000 -0.46809
       3     C     3.06225  3.06225  0.00000 -0.12451
       4     H     0.41507  0.41507  0.00000  0.16986
       5     H     0.42128  0.42128  0.00000  0.15743
       6     N     3.78019  3.78019  0.00000 -0.56039
       7     H     0.41895  0.41895  0.00000  0.16209
       8     H     0.43110  0.43110  0.00000  0.13781
       9     C     3.06542  3.06542  0.00000 -0.13085
      10     C     3.06195  3.06195  0.00000 -0.12391
      11     C     3.25045  3.25045  0.00000 -0.50089
      12     H     0.41642  0.41642  0.00000  0.16716
      13     H     0.41680  0.41680  0.00000  0.16640
      14     C     3.23475  3.23475  0.00000 -0.46949
      15     H     0.41837  0.41837  0.00000  0.16326
      16     H     0.43088  0.43088  0.00000  0.13823
      17     H     0.41824  0.41824  0.00000  0.16353
      18     H     0.41833  0.41833  0.00000  0.16335
      19     H     0.42100  0.42100  0.00000  0.15801
      20     H     0.41513  0.41513  0.00000  0.16974
      21     H     0.42164  0.42164  0.00000  0.15673
      22     H     0.42406  0.42406  0.00000  0.15189

   Total alpha = 29.00000, Total beta = 29.00000, Total charge =  0.00000


*** PSI4 exiting successfully. Buy a developer a beer!
