    -----------------------------------------------------------------------
          Psi4: An Open-Source Ab Initio Electronic Structure Package
                              Psi4 (no tag) Driver

                          Git: Rev {detached?}  

    J. M. Turney, A. C. Simmonett, R. M. Parrish, E. G. Hohenstein,
    F. A. Evangelista, J. T. Fermann, B. J. Mintz, L. A. Burns, J. J. Wilke,
    M. L. Abrams, N. J. Russ, M. L. Leininger, C. L. Janssen, E. T. Seidl,
    W. D. Allen, H. F. Schaefer, R. A. King, E. F. Valeev, C. D. Sherrill,
    and T. D. Crawford, WIREs Comput. Mol. Sci. 2, 556-565 (2012)
    (doi: 10.1002/wcms.93)

                         Additional Contributions by
    A. E. DePrince, M. Saitow, U. Bozkaya, A. Yu. Sokolov
    -----------------------------------------------------------------------


    Psi4 started on: Tue Jul  5 16:29:26 2016

    Process ID:  11242
    PSI4DATADIR: /export131/home/mjharvey/miniconda3/share
    Memory level set to 256.000 MB

  ==> Input File <==

--------------------------------------------------------------------------
set {
	reference rhf
	basis 6-31G*
}


set_num_threads( 1 )
memory 2 gb

molecule MOL {
0 1

H	 2.854433	 -0.412297	 0.000205
O	 2.016374	 -0.864452	 0.000222
C	 1.050802	 0.053862	 0.000068
C	 -0.317825	 -0.576376	 0.000164
O	 1.285589	 1.218281	 -0.000078
C	 -1.454050	 0.441901	 -0.000474
H	 -0.373732	 -1.230137	 -0.866135
H	 -0.373964	 -1.229201	 0.867154
C	 -2.825813	 -0.230754	 0.000056
H	 -1.357295	 1.085224	 -0.868380
H	 -1.357194	 1.086477	 0.866496
H	 -2.959421	 -0.858027	 -0.876869
H	 -3.619064	 0.509429	 -0.000080
H	 -2.959061	 -0.857292	 0.877556

	symmetry c1
}
ee = energy('scf')
oeprop('DIPOLE', 'QUADRUPOLE', 'MULLIKEN_CHARGES')
oeprop('GRID_ESP')
f=open( 'psi4out.xyz', 'w' )
f.write( "14  " )
f.write( str(ee) + "\n" )
f.write( MOL.save_string_xyz() )
f.close()
--------------------------------------------------------------------------

  Memory set to   2.000 GiB by Python script.

*** tstart() called on cx1-3-16-4.cx1.hpc.ic.ac.uk
*** at Tue Jul  5 16:29:26 2016


         ---------------------------------------------------------
                                   SCF
            by Justin Turney, Rob Parrish, and Andy Simmonett
                              RHF Reference
                        1 Threads,   2000 MiB Core
         ---------------------------------------------------------

  ==> Geometry <==

    Molecular point group: c1
    Full point group: C1

    Geometry (in Angstrom), charge = 0, multiplicity = 1:

       Center              X                  Y                   Z               Mass       
    ------------   -----------------  -----------------  -----------------  -----------------
           H          2.854122969034    -0.412323387813     0.000204797246     1.007825032070
           O          2.016063969034    -0.864478387813     0.000221797246    15.994914619560
           C          1.050491969034     0.053835612187     0.000067797246    12.000000000000
           C         -0.318135030966    -0.576402387813     0.000163797246    12.000000000000
           O          1.285278969034     1.218254612187    -0.000078202754    15.994914619560
           C         -1.454360030966     0.441874612187    -0.000474202754    12.000000000000
           H         -0.374042030966    -1.230163387813    -0.866135202754     1.007825032070
           H         -0.374274030966    -1.229227387813     0.867153797246     1.007825032070
           C         -2.826123030966    -0.230780387813     0.000055797246    12.000000000000
           H         -1.357605030966     1.085197612187    -0.868380202754     1.007825032070
           H         -1.357504030966     1.086450612187     0.866495797246     1.007825032070
           H         -2.959731030966    -0.858053387813    -0.876869202754     1.007825032070
           H         -3.619374030966     0.509402612187    -0.000080202754     1.007825032070
           H         -2.959371030966    -0.857318387813     0.877555797246     1.007825032070

  Running in c1 symmetry.

  Rotational constants: A =      0.30865  B =      0.06135  C =      0.05264 [cm^-1]
  Rotational constants: A =   9253.06521  B =   1839.32984  C =   1578.24014 [MHz]
  Nuclear repulsion =  239.966070495696300

  Charge       = 0
  Multiplicity = 1
  Electrons    = 48
  Nalpha       = 24
  Nbeta        = 24

  ==> Algorithm <==

  SCF Algorithm Type is DF.
  DIIS enabled.
  MOM disabled.
  Fractional occupation disabled.
  Guess Type is CORE.
  Energy threshold   = 1.00e-06
  Density threshold  = 1.00e-06
  Integral threshold = 0.00e+00

  ==> Primary Basis <==

  Basis Set: 6-31G*
    Number of shells: 52
    Number of basis function: 106
    Number of Cartesian functions: 106
    Spherical Harmonics?: false
    Max angular momentum: 2

  ==> Pre-Iterations <==

   -------------------------------------------------------
    Irrep   Nso     Nmo     Nalpha   Nbeta   Ndocc  Nsocc
   -------------------------------------------------------
     A        106     106       0       0       0       0
   -------------------------------------------------------
    Total     106     106      24      24      24       0
   -------------------------------------------------------

 OEINTS: Overlap, kinetic, potential, dipole, and quadrupole integrals
         stored in file 35.

  ==> Integral Setup <==

  ==> DFJK: Density-Fitted J/K Matrices <==

    J tasked:                  Yes
    K tasked:                  Yes
    wK tasked:                  No
    OpenMP threads:              1
    Integrals threads:           1
    Memory (MB):              1430
    Algorithm:                Core
    Integral Cache:           NONE
    Schwarz Cutoff:          1E-12
    Fitting Condition:       1E-12

   => Auxiliary Basis Set <=

  Basis Set: 
    Number of shells: 216
    Number of basis function: 686
    Number of Cartesian functions: 686
    Spherical Harmonics?: false
    Max angular momentum: 3

  Minimum eigenvalue in the overlap matrix is 3.2161357709E-03.
  Using Symmetric Orthogonalization.
  SCF Guess: Core (One-Electron) Hamiltonian.

  ==> Iterations <==

                           Total Energy        Delta E     RMS |[F,P]|

   @DF-RHF iter   1:  -242.04736051152960   -2.42047e+02   7.38191e-02 
   @DF-RHF iter   2:  -135.24662595590874    1.06801e+02   9.51728e-02 DIIS
   @DF-RHF iter   3:  -284.37930720090787   -1.49133e+02   3.15858e-02 DIIS
   @DF-RHF iter   4:  -209.80534125988410    7.45740e+01   9.22099e-02 DIIS
   @DF-RHF iter   5:  -235.78964290306416   -2.59843e+01   7.88139e-02 DIIS
   @DF-RHF iter   6:  -245.74949251919864   -9.95985e+00   6.59109e-02 DIIS
   @DF-RHF iter   7:  -264.56148049139233   -1.88120e+01   5.36666e-02 DIIS
   @DF-RHF iter   8:  -280.05294146562278   -1.54915e+01   4.35027e-02 DIIS
   @DF-RHF iter   9:  -289.84033525175846   -9.78739e+00   3.41265e-02 DIIS
   @DF-RHF iter  10:  -304.03937499787241   -1.41990e+01   1.56302e-02 DIIS
   @DF-RHF iter  11:  -305.57078489276319   -1.53141e+00   7.39843e-03 DIIS
   @DF-RHF iter  12:  -305.82655561660579   -2.55771e-01   2.81930e-03 DIIS
   @DF-RHF iter  13:  -305.87040678098913   -4.38512e-02   1.07564e-03 DIIS
   @DF-RHF iter  14:  -305.87903293394277   -8.62615e-03   4.98025e-04 DIIS
   @DF-RHF iter  15:  -305.88065553637466   -1.62260e-03   1.60132e-04 DIIS
   @DF-RHF iter  16:  -305.88085001038905   -1.94474e-04   5.55536e-05 DIIS
   @DF-RHF iter  17:  -305.88087560720317   -2.55968e-05   1.53377e-05 DIIS
   @DF-RHF iter  18:  -305.88087731058852   -1.70339e-06   3.65120e-06 DIIS
   @DF-RHF iter  19:  -305.88087745624296   -1.45654e-07   1.17487e-06 DIIS
   @DF-RHF iter  20:  -305.88087747429029   -1.80473e-08   3.07094e-07 DIIS

  ==> Post-Iterations <==

    Orbital Energies (a.u.)
    -----------------------

    Doubly Occupied:                                                      

       1A    -20.613138     2A    -20.552237     3A    -11.381784  
       4A    -11.241380     5A    -11.225654     6A    -11.217131  
       7A     -1.475213     8A     -1.366312     9A     -1.083201  
      10A     -0.979733    11A     -0.857332    12A     -0.791239  
      13A     -0.700039    14A     -0.688916    15A     -0.667533  
      16A     -0.615442    17A     -0.594085    18A     -0.572974  
      19A     -0.545405    20A     -0.505236    21A     -0.491624  
      22A     -0.482518    23A     -0.479018    24A     -0.444785  

    Virtual:                                                              

      25A      0.195533    26A      0.225414    27A      0.235993  
      28A      0.280222    29A      0.291760    30A      0.303074  
      31A      0.326663    32A      0.339538    33A      0.359364  
      34A      0.391645    35A      0.416289    36A      0.460316  
      37A      0.505149    38A      0.545460    39A      0.736409  
      40A      0.736593    41A      0.748202    42A      0.748357  
      43A      0.786516    44A      0.840319    45A      0.857521  
      46A      0.941763    47A      0.950761    48A      0.961150  
      49A      1.025184    50A      1.058966    51A      1.076391  
      52A      1.109771    53A      1.126017    54A      1.128913  
      55A      1.156819    56A      1.174159    57A      1.203192  
      58A      1.219499    59A      1.227089    60A      1.227227  
      61A      1.236935    62A      1.260977    63A      1.283013  
      64A      1.371605    65A      1.402238    66A      1.535262  
      67A      1.620795    68A      1.670907    69A      1.677060  
      70A      1.749379    71A      1.804322    72A      1.874395  
      73A      1.980887    74A      1.982293    75A      2.054896  
      76A      2.071873    77A      2.111159    78A      2.137086  
      79A      2.154498    80A      2.257397    81A      2.258901  
      82A      2.279015    83A      2.292895    84A      2.363913  
      85A      2.371694    86A      2.441318    87A      2.555781  
      88A      2.651787    89A      2.672233    90A      2.702436  
      91A      2.752524    92A      2.817442    93A      2.823251  
      94A      2.942844    95A      3.003195    96A      3.019969  
      97A      3.116203    98A      3.280687    99A      3.388924  
     100A      3.507887   101A      4.265932   102A      4.517812  
     103A      4.576527   104A      4.710837   105A      4.823535  
     106A      4.983183  

    Final Occupation by Irrep:
              A 
    DOCC [    24 ]

  Energy converged.

  @DF-RHF Final Energy:  -305.88087747429029

   => Energetics <=

    Nuclear Repulsion Energy =            239.9660704956963002
    One-Electron Energy =                -892.5500879886711800
    Two-Electron Energy =                 346.7031400186850192
    DFT Exchange-Correlation Energy =       0.0000000000000000
    Empirical Dispersion Energy =           0.0000000000000000
    PCM Polarization Energy =               0.0000000000000000
    EFP Energy =                            0.0000000000000000
    Total Energy =                       -305.8808774742898891

    Alert: EFP and PCM quantities not currently incorporated into SCF psivars.

Properties will be evaluated at   0.000000,   0.000000,   0.000000 Bohr
  ==> Properties <==


Properties computed using the SCF density matrix

  Nuclear Dipole Moment: (a.u.)
     X:    -9.4974      Y:    -1.7851      Z:    -0.0001

  Electronic Dipole Moment: (a.u.)
     X:     9.3592      Y:     1.1681      Z:     0.0002

  Dipole Moment: (a.u.)
     X:    -0.1381      Y:    -0.6171      Z:     0.0001     Total:     0.6323

  Dipole Moment: (Debye)
     X:    -0.3511      Y:    -1.5684      Z:     0.0003     Total:     1.6072


  Saving occupied orbitals to File 180.

*** tstop() called on cx1-3-16-4.cx1.hpc.ic.ac.uk at Tue Jul  5 16:29:34 2016
Module time:
	user time   =       7.91 seconds =       0.13 minutes
	system time =       0.06 seconds =       0.00 minutes
	total time  =          8 seconds =       0.13 minutes
Total time:
	user time   =       7.91 seconds =       0.13 minutes
	system time =       0.06 seconds =       0.00 minutes
	total time  =          8 seconds =       0.13 minutes


Properties will be evaluated at   0.000000,   0.000000,   0.000000 Bohr

Properties computed using the  density matrix

  Nuclear Dipole Moment: (a.u.)
     X:    -9.4974      Y:    -1.7851      Z:    -0.0001

  Electronic Dipole Moment: (a.u.)
     X:     9.3592      Y:     1.1681      Z:     0.0002

  Dipole Moment: (a.u.)
     X:    -0.1381      Y:    -0.6171      Z:     0.0001     Total:     0.6323

  Dipole Moment: (Debye)
     X:    -0.3511      Y:    -1.5684      Z:     0.0003     Total:     1.6072

  Quadrupole Moment: (Debye Ang)
    XX:   -32.1949     YY:   -42.1985     ZZ:   -35.7858
    XY:    -1.5551     XZ:     0.0005     YZ:     0.0010

  Traceless Quadrupole Moment: (Debye Ang)
    XX:     4.5315     YY:    -5.4721     ZZ:     0.9406
    XY:    -1.5551     XZ:     0.0005     YZ:     0.0010

  Mulliken Charges: (a.u.)
   Center  Symbol    Alpha    Beta     Spin     Total
       1     H     0.26775  0.26775  0.00000  0.46450
       2     O     4.35113  4.35113  0.00000 -0.70226
       3     C     2.62335  2.62335  0.00000  0.75330
       4     C     3.20935  3.20935  0.00000 -0.41869
       5     O     4.27914  4.27914  0.00000 -0.55828
       6     C     3.15241  3.15241  0.00000 -0.30482
       7     H     0.39880  0.39880  0.00000  0.20240
       8     H     0.39880  0.39880  0.00000  0.20240
       9     C     3.24293  3.24293  0.00000 -0.48585
      10     H     0.41012  0.41012  0.00000  0.17976
      11     H     0.41010  0.41010  0.00000  0.17980
      12     H     0.42084  0.42084  0.00000  0.15833
      13     H     0.41445  0.41445  0.00000  0.17110
      14     H     0.42084  0.42084  0.00000  0.15832

   Total alpha = 24.00000, Total beta = 24.00000, Total charge =  0.00000



Properties will be evaluated at   0.000000,   0.000000,   0.000000 Bohr

Properties computed using the  density matrix


 Electrostatic potential computed on the grid and written to grid_esp.dat

*** PSI4 exiting successfully. Buy a developer a beer!
