    -----------------------------------------------------------------------
          Psi4: An Open-Source Ab Initio Electronic Structure Package
                              Psi4 (no tag) Driver

                          Git: Rev {detached?}  

    J. M. Turney, A. C. Simmonett, R. M. Parrish, E. G. Hohenstein,
    F. A. Evangelista, J. T. Fermann, B. J. Mintz, L. A. Burns, J. J. Wilke,
    M. L. Abrams, N. J. Russ, M. L. Leininger, C. L. Janssen, E. T. Seidl,
    W. D. Allen, H. F. Schaefer, R. A. King, E. F. Valeev, C. D. Sherrill,
    and T. D. Crawford, WIREs Comput. Mol. Sci. 2, 556-565 (2012)
    (doi: 10.1002/wcms.93)

                         Additional Contributions by
    A. E. DePrince, M. Saitow, U. Bozkaya, A. Yu. Sokolov
    -----------------------------------------------------------------------


    Psi4 started on: Tue Jul  5 16:42:57 2016

    Process ID:   5665
    PSI4DATADIR: /export131/home/mjharvey/miniconda3/share
    Memory level set to 256.000 MB

  ==> Input File <==

--------------------------------------------------------------------------
set {
	reference rhf
	basis 6-31G*
}


set_num_threads( 1 )
memory 2 gb

molecule MOL {
0 1

H	 -3.161837	 0.500524	 -0.000234
C	 -2.367097	 -0.232926	 -0.000000
O	 -1.158440	 0.455814	 -0.000122
H	 -2.468853	 -0.861886	 -0.882833
H	 -2.468942	 -0.861421	 0.883154
C	 -1.058687	 1.440634	 0.983775
C	 -2.177979	 2.447697	 0.784597
H	 -0.088592	 1.935662	 0.922425
H	 -1.127055	 0.989610	 1.974638
C	 -1.943600	 3.350119	 -0.426015
H	 -3.112390	 1.906264	 0.673299
H	 -2.267773	 3.045503	 1.686409
H	 -1.875019	 2.772522	 -1.343676
H	 -2.756604	 4.058599	 -0.544020
H	 -1.023913	 3.919430	 -0.323715

	symmetry c1
}
set optking {
	frozen_dihedral = ("
		6 3 2 4,
		11 7 6 8
	")
}

ee = energy('scf')
oeprop('DIPOLE', 'QUADRUPOLE', 'MULLIKEN_CHARGES')
f=open( 'psi4out.xyz', 'w' )
f.write( "15  " )
f.write( str(ee) + "\n" )
f.write( MOL.save_string_xyz() )
f.close()
--------------------------------------------------------------------------

  Memory set to   2.000 GiB by Python script.

*** tstart() called on cx1-3-16-3.cx1.hpc.ic.ac.uk
*** at Tue Jul  5 16:42:58 2016


         ---------------------------------------------------------
                                   SCF
            by Justin Turney, Rob Parrish, and Andy Simmonett
                              RHF Reference
                        1 Threads,   2000 MiB Core
         ---------------------------------------------------------

  ==> Geometry <==

    Molecular point group: c1
    Full point group: C1

    Geometry (in Angstrom), charge = 0, multiplicity = 1:

       Center              X                  Y                   Z               Mass       
    ------------   -----------------  -----------------  -----------------  -----------------
           H         -1.412111170789    -0.969616964993    -0.259107916841     1.007825032070
           C         -0.617371170789    -1.703066964993    -0.258873916841    12.000000000000
           O          0.591285829211    -1.014326964993    -0.258995916841    15.994914619560
           H         -0.719127170789    -2.332026964993    -1.141706916841     1.007825032070
           H         -0.719216170789    -2.331561964993     0.624280083159     1.007825032070
           C          0.691038829211    -0.029506964993     0.724901083159    12.000000000000
           C         -0.428253170789     0.977556035007     0.525723083159    12.000000000000
           H          1.661133829211     0.465521035007     0.663551083159     1.007825032070
           H          0.622670829211    -0.480530964993     1.715764083159     1.007825032070
           C         -0.193874170789     1.879978035007    -0.684888916841    12.000000000000
           H         -1.362664170789     0.436123035007     0.414425083159     1.007825032070
           H         -0.518047170789     1.575362035007     1.427535083159     1.007825032070
           H         -0.125293170789     1.302381035007    -1.602549916841     1.007825032070
           H         -1.006878170789     2.588458035007    -0.802893916841     1.007825032070
           H          0.725812829211     2.449289035007    -0.582588916841     1.007825032070

  Running in c1 symmetry.

  Rotational constants: A =      0.29886  B =      0.10764  C =      0.09939 [cm^-1]
  Rotational constants: A =   8959.51683  B =   3226.85714  C =   2979.78571 [MHz]
  Nuclear repulsion =  197.551842074438298

  Charge       = 0
  Multiplicity = 1
  Electrons    = 42
  Nalpha       = 21
  Nbeta        = 21

  ==> Algorithm <==

  SCF Algorithm Type is DF.
  DIIS enabled.
  MOM disabled.
  Fractional occupation disabled.
  Guess Type is CORE.
  Energy threshold   = 1.00e-06
  Density threshold  = 1.00e-06
  Integral threshold = 0.00e+00

  ==> Primary Basis <==

  Basis Set: 6-31G*
    Number of shells: 50
    Number of basis function: 95
    Number of Cartesian functions: 95
    Spherical Harmonics?: false
    Max angular momentum: 2

  ==> Pre-Iterations <==

   -------------------------------------------------------
    Irrep   Nso     Nmo     Nalpha   Nbeta   Ndocc  Nsocc
   -------------------------------------------------------
     A         95      95       0       0       0       0
   -------------------------------------------------------
    Total      95      95      21      21      21       0
   -------------------------------------------------------

 OEINTS: Overlap, kinetic, potential, dipole, and quadrupole integrals
         stored in file 35.

  ==> Integral Setup <==

  ==> DFJK: Density-Fitted J/K Matrices <==

    J tasked:                  Yes
    K tasked:                  Yes
    wK tasked:                  No
    OpenMP threads:              1
    Integrals threads:           1
    Memory (MB):              1430
    Algorithm:                Core
    Integral Cache:           NONE
    Schwarz Cutoff:          1E-12
    Fitting Condition:       1E-12

   => Auxiliary Basis Set <=

  Basis Set: 
    Number of shells: 210
    Number of basis function: 655
    Number of Cartesian functions: 655
    Spherical Harmonics?: false
    Max angular momentum: 3

  Minimum eigenvalue in the overlap matrix is 5.0717098806E-03.
  Using Symmetric Orthogonalization.
  SCF Guess: Core (One-Electron) Hamiltonian.

  ==> Iterations <==

                           Total Energy        Delta E     RMS |[F,P]|

   @DF-RHF iter   1:  -183.01184304943553   -1.83012e+02   8.01152e-02 
   @DF-RHF iter   2:  -155.35800714688258    2.76538e+01   7.07789e-02 DIIS
   @DF-RHF iter   3:  -201.71544276635495   -4.63574e+01   5.28290e-02 DIIS
   @DF-RHF iter   4:  -219.07259504408728   -1.73572e+01   4.63456e-02 DIIS
   @DF-RHF iter   5:  -231.72518608682054   -1.26526e+01   9.28833e-03 DIIS
   @DF-RHF iter   6:  -232.05913861665698   -3.33953e-01   3.62742e-03 DIIS
   @DF-RHF iter   7:  -232.11444538069139   -5.53068e-02   1.21318e-03 DIIS
   @DF-RHF iter   8:  -232.12154145644882   -7.09608e-03   3.18817e-04 DIIS
   @DF-RHF iter   9:  -232.12216176064379   -6.20304e-04   1.16951e-04 DIIS
   @DF-RHF iter  10:  -232.12224569010465   -8.39295e-05   2.73474e-05 DIIS
   @DF-RHF iter  11:  -232.12225168461464   -5.99451e-06   8.91224e-06 DIIS
   @DF-RHF iter  12:  -232.12225228989792   -6.05283e-07   1.82675e-06 DIIS
   @DF-RHF iter  13:  -232.12225232150530   -3.16074e-08   4.28435e-07 DIIS

  ==> Post-Iterations <==

    Orbital Energies (a.u.)
    -----------------------

    Doubly Occupied:                                                      

       1A    -20.552248     2A    -11.267773     3A    -11.262066  
       4A    -11.214434     5A    -11.208659     6A     -1.380113  
       7A     -1.053146     8A     -0.958956     9A     -0.894926  
      10A     -0.792492    11A     -0.684381    12A     -0.664110  
      13A     -0.627598    14A     -0.591606    15A     -0.573822  
      16A     -0.537609    17A     -0.520770    18A     -0.497591  
      19A     -0.480735    20A     -0.446798    21A     -0.404839  

    Virtual:                                                              

      22A      0.235653    23A      0.273443    24A      0.281391  
      25A      0.290806    26A      0.297405    27A      0.319095  
      28A      0.330347    29A      0.338565    30A      0.356196  
      31A      0.364799    32A      0.390977    33A      0.424268  
      34A      0.450209    35A      0.475412    36A      0.695011  
      37A      0.724527    38A      0.750034    39A      0.769359  
      40A      0.790243    41A      0.808162    42A      0.849727  
      43A      0.921853    44A      0.946349    45A      0.972116  
      46A      0.991761    47A      1.095606    48A      1.111763  
      49A      1.136581    50A      1.139346    51A      1.159507  
      52A      1.167512    53A      1.191641    54A      1.207182  
      55A      1.224928    56A      1.243428    57A      1.262632  
      58A      1.270208    59A      1.300898    60A      1.431958  
      61A      1.472486    62A      1.529171    63A      1.643073  
      64A      1.683985    65A      1.740792    66A      1.823736  
      67A      1.879275    68A      1.916543    69A      1.982483  
      70A      2.115298    71A      2.170997    72A      2.232773  
      73A      2.277555    74A      2.314157    75A      2.395823  
      76A      2.452754    77A      2.472275    78A      2.500733  
      79A      2.511034    80A      2.573626    81A      2.620061  
      82A      2.706650    83A      2.712913    84A      2.754514  
      85A      2.861583    86A      2.925735    87A      2.969394  
      88A      3.061118    89A      3.145146    90A      3.309787  
      91A      4.372518    92A      4.598086    93A      4.681941  
      94A      4.783463    95A      4.938936  

    Final Occupation by Irrep:
              A 
    DOCC [    21 ]

  Energy converged.

  @DF-RHF Final Energy:  -232.12225232150530

   => Energetics <=

    Nuclear Repulsion Energy =            197.5518420744382979
    One-Electron Energy =                -706.1187250839146827
    Two-Electron Energy =                 276.4446306879717667
    DFT Exchange-Correlation Energy =       0.0000000000000000
    Empirical Dispersion Energy =           0.0000000000000000
    PCM Polarization Energy =               0.0000000000000000
    EFP Energy =                            0.0000000000000000
    Total Energy =                       -232.1222523215046181

    Alert: EFP and PCM quantities not currently incorporated into SCF psivars.

Properties will be evaluated at   0.000000,   0.000000,   0.000000 Bohr
  ==> Properties <==


Properties computed using the SCF density matrix

  Nuclear Dipole Moment: (a.u.)
     X:    -2.6724      Y:     2.5295      Z:     0.4269

  Electronic Dipole Moment: (a.u.)
     X:     2.2130      Y:    -2.3914      Z:    -0.0818

  Dipole Moment: (a.u.)
     X:    -0.4595      Y:     0.1381      Z:     0.3451     Total:     0.5910

  Dipole Moment: (Debye)
     X:    -1.1679      Y:     0.3510      Z:     0.8772     Total:     1.5022


  Saving occupied orbitals to File 180.

*** tstop() called on cx1-3-16-3.cx1.hpc.ic.ac.uk at Tue Jul  5 16:43:05 2016
Module time:
	user time   =       6.60 seconds =       0.11 minutes
	system time =       0.04 seconds =       0.00 minutes
	total time  =          7 seconds =       0.12 minutes
Total time:
	user time   =       6.60 seconds =       0.11 minutes
	system time =       0.04 seconds =       0.00 minutes
	total time  =          7 seconds =       0.12 minutes


Properties will be evaluated at   0.000000,   0.000000,   0.000000 Bohr

Properties computed using the  density matrix

  Nuclear Dipole Moment: (a.u.)
     X:    -2.6724      Y:     2.5295      Z:     0.4269

  Electronic Dipole Moment: (a.u.)
     X:     2.2130      Y:    -2.3914      Z:    -0.0818

  Dipole Moment: (a.u.)
     X:    -0.4595      Y:     0.1381      Z:     0.3451     Total:     0.5910

  Dipole Moment: (Debye)
     X:    -1.1679      Y:     0.3510      Z:     0.8772     Total:     1.5022

  Quadrupole Moment: (Debye Ang)
    XX:   -33.3724     YY:   -32.9546     ZZ:   -33.1634
    XY:     2.7603     XZ:     1.4055     YZ:     0.1472

  Traceless Quadrupole Moment: (Debye Ang)
    XX:    -0.2089     YY:     0.2088     ZZ:     0.0001
    XY:     2.7603     XZ:     1.4055     YZ:     0.1472

  Mulliken Charges: (a.u.)
   Center  Symbol    Alpha    Beta     Spin     Total
       1     H     0.43011  0.43011  0.00000  0.13979
       2     C     3.08227  3.08227  0.00000 -0.16454
       3     O     4.30281  4.30281  0.00000 -0.60563
       4     H     0.41173  0.41173  0.00000  0.17654
       5     H     0.42964  0.42964  0.00000  0.14072
       6     C     2.99316  2.99316  0.00000  0.01368
       7     C     3.17562  3.17562  0.00000 -0.35123
       8     H     0.41397  0.41397  0.00000  0.17207
       9     H     0.42916  0.42916  0.00000  0.14167
      10     C     3.24046  3.24046  0.00000 -0.48092
      11     H     0.41667  0.41667  0.00000  0.16666
      12     H     0.42128  0.42128  0.00000  0.15744
      13     H     0.41202  0.41202  0.00000  0.17596
      14     H     0.41983  0.41983  0.00000  0.16034
      15     H     0.42128  0.42128  0.00000  0.15744

   Total alpha = 21.00000, Total beta = 21.00000, Total charge = -0.00000


*** PSI4 exiting successfully. Buy a developer a beer!
