    -----------------------------------------------------------------------
          Psi4: An Open-Source Ab Initio Electronic Structure Package
                              Psi4 (no tag) Driver

                          Git: Rev {detached?}  

    J. M. Turney, A. C. Simmonett, R. M. Parrish, E. G. Hohenstein,
    F. A. Evangelista, J. T. Fermann, B. J. Mintz, L. A. Burns, J. J. Wilke,
    M. L. Abrams, N. J. Russ, M. L. Leininger, C. L. Janssen, E. T. Seidl,
    W. D. Allen, H. F. Schaefer, R. A. King, E. F. Valeev, C. D. Sherrill,
    and T. D. Crawford, WIREs Comput. Mol. Sci. 2, 556-565 (2012)
    (doi: 10.1002/wcms.93)

                         Additional Contributions by
    A. E. DePrince, M. Saitow, U. Bozkaya, A. Yu. Sokolov
    -----------------------------------------------------------------------


    Psi4 started on: Tue Jul  5 16:31:38 2016

    Process ID:  28882
    PSI4DATADIR: /export131/home/mjharvey/miniconda3/share
    Memory level set to 256.000 MB

  ==> Input File <==

--------------------------------------------------------------------------
set {
	reference rhf
	basis 6-31G*
}


set_num_threads( 1 )
memory 2 gb

molecule MOL {
0 1

H	 -1.293510	 1.368411	 1.958559
C	 -1.007494	 0.755919	 1.126421
C	 -1.926035	 0.445256	 0.069399
C	 0.230409	 0.252256	 1.040768
H	 -2.927843	 0.834907	 0.109358
C	 -1.545253	 -0.323004	 -0.961254
H	 0.976802	 0.437557	 1.789744
N	 0.640212	 -0.532897	 -0.000111
H	 -2.204134	 -0.575989	 -1.768861
C	 -0.198134	 -0.870913	 -1.054245
C	 2.010177	 -1.032049	 0.000042
O	 0.182998	 -1.565119	 -1.963653
H	 2.187698	 -1.635381	 -0.882279
H	 2.677579	 -0.189247	 -0.001871
H	 2.188882	 -1.632203	 0.884288

	symmetry c1
}
ee = energy('scf')
oeprop('DIPOLE', 'QUADRUPOLE', 'MULLIKEN_CHARGES')
f=open( 'psi4out.xyz', 'w' )
f.write( "15  " )
f.write( str(ee) + "\n" )
f.write( MOL.save_string_xyz() )
f.close()
--------------------------------------------------------------------------

  Memory set to   2.000 GiB by Python script.

*** tstart() called on cx1-3-2-3.cx1.hpc.ic.ac.uk
*** at Tue Jul  5 16:31:38 2016


         ---------------------------------------------------------
                                   SCF
            by Justin Turney, Rob Parrish, and Andy Simmonett
                              RHF Reference
                        1 Threads,   2000 MiB Core
         ---------------------------------------------------------

  ==> Geometry <==

    Molecular point group: c1
    Full point group: C1

    Geometry (in Angstrom), charge = 0, multiplicity = 1:

       Center              X                  Y                   Z               Mass       
    ------------   -----------------  -----------------  -----------------  -----------------
           H         -1.149305037566     1.764268898443     2.202946757552     1.007825032070
           C         -0.863289037566     1.151776898443     1.370808757552    12.000000000000
           C         -1.781830037566     0.841113898443     0.313786757552    12.000000000000
           C          0.374613962434     0.648113898443     1.285155757552    12.000000000000
           H         -2.783638037566     1.230764898443     0.353745757552     1.007825032070
           C         -1.401048037566     0.072853898443    -0.716866242448    12.000000000000
           H          1.121006962434     0.833414898443     2.034131757552     1.007825032070
           N          0.784416962434    -0.137039101557     0.244276757552    14.003074004780
           H         -2.059929037566    -0.180131101557    -1.524473242448     1.007825032070
           C         -0.053929037566    -0.475055101557    -0.809857242448    12.000000000000
           C          2.154381962434    -0.636191101557     0.244429757552    12.000000000000
           O          0.327202962434    -1.169261101557    -1.719265242448    15.994914619560
           H          2.331902962434    -1.239523101557    -0.637891242448     1.007825032070
           H          2.821783962434     0.206610898443     0.242516757552     1.007825032070
           H          2.333086962434    -1.236345101557     1.128675757552     1.007825032070

  Running in c1 symmetry.

  Rotational constants: A =      0.11492  B =      0.07865  C =      0.04710 [cm^-1]
  Rotational constants: A =   3445.16166  B =   2357.98122  C =   1412.10669 [MHz]
  Nuclear repulsion =  357.546885562655063

  Charge       = 0
  Multiplicity = 1
  Electrons    = 58
  Nalpha       = 29
  Nbeta        = 29

  ==> Algorithm <==

  SCF Algorithm Type is DF.
  DIIS enabled.
  MOM disabled.
  Fractional occupation disabled.
  Guess Type is CORE.
  Energy threshold   = 1.00e-06
  Density threshold  = 1.00e-06
  Integral threshold = 0.00e+00

  ==> Primary Basis <==

  Basis Set: 6-31G*
    Number of shells: 62
    Number of basis function: 134
    Number of Cartesian functions: 134
    Spherical Harmonics?: false
    Max angular momentum: 2

  ==> Pre-Iterations <==

   -------------------------------------------------------
    Irrep   Nso     Nmo     Nalpha   Nbeta   Ndocc  Nsocc
   -------------------------------------------------------
     A        134     134       0       0       0       0
   -------------------------------------------------------
    Total     134     134      29      29      29       0
   -------------------------------------------------------

 OEINTS: Overlap, kinetic, potential, dipole, and quadrupole integrals
         stored in file 35.

  ==> Integral Setup <==

  ==> DFJK: Density-Fitted J/K Matrices <==

    J tasked:                  Yes
    K tasked:                  Yes
    wK tasked:                  No
    OpenMP threads:              1
    Integrals threads:           1
    Memory (MB):              1430
    Algorithm:                Core
    Integral Cache:           NONE
    Schwarz Cutoff:          1E-12
    Fitting Condition:       1E-12

   => Auxiliary Basis Set <=

  Basis Set: 
    Number of shells: 255
    Number of basis function: 823
    Number of Cartesian functions: 823
    Spherical Harmonics?: false
    Max angular momentum: 3

  Minimum eigenvalue in the overlap matrix is 7.0192919215E-04.
  Using Symmetric Orthogonalization.
  SCF Guess: Core (One-Electron) Hamiltonian.

  ==> Iterations <==

                           Total Energy        Delta E     RMS |[F,P]|

   @DF-RHF iter   1:  -284.73746422888820   -2.84737e+02   6.98547e-02 
   @DF-RHF iter   2:  -277.25117943654294    7.48628e+00   5.28958e-02 DIIS
   @DF-RHF iter   3:  -320.96456942452022   -4.37134e+01   5.11354e-02 DIIS
   @DF-RHF iter   4:  -356.20506674152574   -3.52405e+01   1.77349e-02 DIIS
   @DF-RHF iter   5:  -358.52165798848119   -2.31659e+00   1.38439e-02 DIIS
   @DF-RHF iter   6:  -360.52449803924372   -2.00284e+00   2.02785e-03 DIIS
   @DF-RHF iter   7:  -360.58248659394070   -5.79886e-02   8.04744e-04 DIIS
   @DF-RHF iter   8:  -360.59130951042897   -8.82292e-03   3.54981e-04 DIIS
   @DF-RHF iter   9:  -360.59431046107699   -3.00095e-03   1.94991e-04 DIIS
   @DF-RHF iter  10:  -360.59537174998212   -1.06129e-03   5.81291e-05 DIIS
   @DF-RHF iter  11:  -360.59546926564434   -9.75157e-05   2.06327e-05 DIIS
   @DF-RHF iter  12:  -360.59548068786484   -1.14222e-05   1.18891e-05 DIIS
   @DF-RHF iter  13:  -360.59548379724441   -3.10938e-06   4.80434e-06 DIIS
   @DF-RHF iter  14:  -360.59548436495464   -5.67710e-07   1.25108e-06 DIIS
   @DF-RHF iter  15:  -360.59548438996200   -2.50074e-08   5.98436e-07 DIIS

  ==> Post-Iterations <==

    Orbital Energies (a.u.)
    -----------------------

    Doubly Occupied:                                                      

       1A    -20.508183     2A    -15.620917     3A    -11.343147  
       4A    -11.296678     5A    -11.264458     6A    -11.260297  
       7A    -11.233942     8A    -11.229047     9A     -1.383728  
      10A     -1.281005    11A     -1.114733    12A     -1.025599  
      13A     -0.970100    14A     -0.871993    15A     -0.835076  
      16A     -0.715296    17A     -0.698235    18A     -0.660389  
      19A     -0.649180    20A     -0.621674    21A     -0.606486  
      22A     -0.570272    23A     -0.554303    24A     -0.547283  
      25A     -0.525616    26A     -0.475803    27A     -0.413149  
      28A     -0.405893    29A     -0.305125  

    Virtual:                                                              

      30A      0.108671    31A      0.182455    32A      0.230614  
      33A      0.252305    34A      0.289701    35A      0.305245  
      36A      0.306707    37A      0.326172    38A      0.331245  
      39A      0.345772    40A      0.372030    41A      0.429314  
      42A      0.462052    43A      0.478965    44A      0.506331  
      45A      0.531081    46A      0.633135    47A      0.693907  
      48A      0.699172    49A      0.738426    50A      0.746372  
      51A      0.755984    52A      0.790285    53A      0.798633  
      54A      0.806703    55A      0.822054    56A      0.854267  
      57A      0.865876    58A      0.901037    59A      0.948328  
      60A      0.958319    61A      0.969325    62A      0.980960  
      63A      1.048647    64A      1.072625    65A      1.100808  
      66A      1.111957    67A      1.117363    68A      1.142208  
      69A      1.168316    70A      1.172070    71A      1.194252  
      72A      1.207903    73A      1.230144    74A      1.251079  
      75A      1.297317    76A      1.326826    77A      1.357718  
      78A      1.405733    79A      1.430518    80A      1.481955  
      81A      1.494063    82A      1.555147    83A      1.608666  
      84A      1.629041    85A      1.698250    86A      1.699847  
      87A      1.717748    88A      1.745500    89A      1.766463  
      90A      1.768016    91A      1.936781    92A      1.993447  
      93A      2.065374    94A      2.097710    95A      2.170335  
      96A      2.179281    97A      2.205132    98A      2.238986  
      99A      2.269275   100A      2.294029   101A      2.345229  
     102A      2.358290   103A      2.373180   104A      2.443875  
     105A      2.445772   106A      2.469240   107A      2.508563  
     108A      2.555259   109A      2.626930   110A      2.648387  
     111A      2.654041   112A      2.710070   113A      2.715668  
     114A      2.734924   115A      2.921596   116A      2.945578  
     117A      3.020145   118A      3.031538   119A      3.047440  
     120A      3.096767   121A      3.167794   122A      3.203813  
     123A      3.257796   124A      3.406502   125A      3.602385  
     126A      3.820382   127A      4.446220   128A      4.504436  
     129A      4.560522   130A      4.643087   131A      4.683021  
     132A      4.770544   133A      4.916163   134A      5.161068  

    Final Occupation by Irrep:
              A 
    DOCC [    29 ]

  Energy converged.

  @DF-RHF Final Energy:  -360.59548438996200

   => Energetics <=

    Nuclear Repulsion Energy =            357.5468855626550635
    One-Electron Energy =               -1198.3098063002412346
    Two-Electron Energy =                 480.1674363476245730
    DFT Exchange-Correlation Energy =       0.0000000000000000
    Empirical Dispersion Energy =           0.0000000000000000
    PCM Polarization Energy =               0.0000000000000000
    EFP Energy =                            0.0000000000000000
    Total Energy =                       -360.5954843899616549

    Alert: EFP and PCM quantities not currently incorporated into SCF psivars.

Properties will be evaluated at   0.000000,   0.000000,   0.000000 Bohr
  ==> Properties <==


Properties computed using the SCF density matrix

  Nuclear Dipole Moment: (a.u.)
     X:     2.4507      Y:     1.2876      Z:     3.5531

  Electronic Dipole Moment: (a.u.)
     X:    -2.3206      Y:    -0.4314      Z:    -2.0748

  Dipole Moment: (a.u.)
     X:     0.1301      Y:     0.8563      Z:     1.4783     Total:     1.7133

  Dipole Moment: (Debye)
     X:     0.3306      Y:     2.1764      Z:     3.7574     Total:     4.3548


  Saving occupied orbitals to File 180.

*** tstop() called on cx1-3-2-3.cx1.hpc.ic.ac.uk at Tue Jul  5 16:31:50 2016
Module time:
	user time   =      11.39 seconds =       0.19 minutes
	system time =       0.06 seconds =       0.00 minutes
	total time  =         12 seconds =       0.20 minutes
Total time:
	user time   =      11.39 seconds =       0.19 minutes
	system time =       0.06 seconds =       0.00 minutes
	total time  =         12 seconds =       0.20 minutes


Properties will be evaluated at   0.000000,   0.000000,   0.000000 Bohr

Properties computed using the  density matrix

  Nuclear Dipole Moment: (a.u.)
     X:     2.4507      Y:     1.2876      Z:     3.5531

  Electronic Dipole Moment: (a.u.)
     X:    -2.3206      Y:    -0.4314      Z:    -2.0748

  Dipole Moment: (a.u.)
     X:     0.1301      Y:     0.8563      Z:     1.4783     Total:     1.7133

  Dipole Moment: (Debye)
     X:     0.3306      Y:     2.1764      Z:     3.7574     Total:     4.3548

  Quadrupole Moment: (Debye Ang)
    XX:   -38.7638     YY:   -49.5217     ZZ:   -50.3584
    XY:    -1.8368     XZ:     3.1334     YZ:    -1.9745

  Traceless Quadrupole Moment: (Debye Ang)
    XX:     7.4508     YY:    -3.3070     ZZ:    -4.1438
    XY:    -1.8368     XZ:     3.1334     YZ:    -1.9745

  Mulliken Charges: (a.u.)
   Center  Symbol    Alpha    Beta     Spin     Total
       1     H     0.39278  0.39278  0.00000  0.21444
       2     C     3.16136  3.16136  0.00000 -0.32272
       3     C     3.05840  3.05840  0.00000 -0.11680
       4     C     2.92113  2.92113  0.00000  0.15775
       5     H     0.39088  0.39088  0.00000  0.21825
       6     C     3.16981  3.16981  0.00000 -0.33962
       7     H     0.38789  0.38789  0.00000  0.22422
       8     N     3.86531  3.86531  0.00000 -0.73063
       9     H     0.38641  0.38641  0.00000  0.22717
      10     C     2.59386  2.59386  0.00000  0.81228
      11     C     3.15648  3.15648  0.00000 -0.31296
      12     O     4.32193  4.32193  0.00000 -0.64385
      13     H     0.37347  0.37347  0.00000  0.25306
      14     H     0.40984  0.40984  0.00000  0.18031
      15     H     0.41045  0.41045  0.00000  0.17911

   Total alpha = 29.00000, Total beta = 29.00000, Total charge =  0.00000


*** PSI4 exiting successfully. Buy a developer a beer!
