    -----------------------------------------------------------------------
          Psi4: An Open-Source Ab Initio Electronic Structure Package
                              Psi4 (no tag) Driver

                          Git: Rev {detached?}  

    J. M. Turney, A. C. Simmonett, R. M. Parrish, E. G. Hohenstein,
    F. A. Evangelista, J. T. Fermann, B. J. Mintz, L. A. Burns, J. J. Wilke,
    M. L. Abrams, N. J. Russ, M. L. Leininger, C. L. Janssen, E. T. Seidl,
    W. D. Allen, H. F. Schaefer, R. A. King, E. F. Valeev, C. D. Sherrill,
    and T. D. Crawford, WIREs Comput. Mol. Sci. 2, 556-565 (2012)
    (doi: 10.1002/wcms.93)

                         Additional Contributions by
    A. E. DePrince, M. Saitow, U. Bozkaya, A. Yu. Sokolov
    -----------------------------------------------------------------------


    Psi4 started on: Tue Jul  5 16:27:46 2016

    Process ID:  27951
    PSI4DATADIR: /export131/home/mjharvey/miniconda3/share
    Memory level set to 256.000 MB

  ==> Input File <==

--------------------------------------------------------------------------
set {
	reference rhf
	basis 6-31G*
}


set_num_threads( 1 )
memory 2 gb

molecule MOL {
0 1

H	 -2.063000	 -0.744720	 -1.959298
C	 -1.450168	 -0.459726	 -1.127060
C	 -1.953768	 0.369099	 -0.070197
C	 -0.178425	 -0.870462	 -1.041127
H	 -2.971418	 0.715245	 -0.110381
C	 -1.168214	 0.712400	 0.960586
H	 0.273962	 -1.492544	 -1.789969
N	 0.640212	 -0.532897	 -0.000111
H	 -1.510072	 1.330008	 1.768081
C	 0.215607	 0.265280	 1.053882
C	 2.010177	 -1.032049	 0.000042
O	 0.953813	 0.551651	 1.963415
H	 2.187698	 -1.635381	 -0.882279
H	 2.677579	 -0.189247	 -0.001871
H	 2.188882	 -1.632203	 0.884288

	symmetry c1
}
ee = energy('scf')
oeprop('DIPOLE', 'QUADRUPOLE', 'MULLIKEN_CHARGES')
f=open( 'psi4out.xyz', 'w' )
f.write( "15  " )
f.write( str(ee) + "\n" )
f.write( MOL.save_string_xyz() )
f.close()
--------------------------------------------------------------------------

  Memory set to   2.000 GiB by Python script.

*** tstart() called on cx1-3-2-3.cx1.hpc.ic.ac.uk
*** at Tue Jul  5 16:27:47 2016


         ---------------------------------------------------------
                                   SCF
            by Justin Turney, Rob Parrish, and Andy Simmonett
                              RHF Reference
                        1 Threads,   2000 MiB Core
         ---------------------------------------------------------

  ==> Geometry <==

    Molecular point group: c1
    Full point group: C1

    Geometry (in Angstrom), charge = 0, multiplicity = 1:

       Center              X                  Y                   Z               Mass       
    ------------   -----------------  -----------------  -----------------  -----------------
           H         -2.014522223161    -0.611743308012    -2.203297487115     1.007825032070
           C         -1.401690223161    -0.326749308012    -1.371059487115    12.000000000000
           C         -1.905290223161     0.502075691988    -0.314196487115    12.000000000000
           C         -0.129947223161    -0.737485308012    -1.285126487115    12.000000000000
           H         -2.922940223161     0.848221691988    -0.354380487115     1.007825032070
           C         -1.119736223161     0.845376691988     0.716586512885    12.000000000000
           H          0.322439776839    -1.359567308012    -2.033968487115     1.007825032070
           N          0.688689776839    -0.399920308012    -0.244110487115    14.003074004780
           H         -1.461594223161     1.462984691988     1.524081512885     1.007825032070
           C          0.264084776839     0.398256691988     0.809882512885    12.000000000000
           C          2.058654776839    -0.899072308012    -0.243957487115    12.000000000000
           O          1.002290776839     0.684627691988     1.719415512885    15.994914619560
           H          2.236175776839    -1.502404308012    -1.126278487115     1.007825032070
           H          2.726056776839    -0.056270308012    -0.245870487115     1.007825032070
           H          2.237359776839    -1.499226308012     0.640288512885     1.007825032070

  Running in c1 symmetry.

  Rotational constants: A =      0.11492  B =      0.07866  C =      0.04710 [cm^-1]
  Rotational constants: A =   3445.18213  B =   2358.04217  C =   1412.13206 [MHz]
  Nuclear repulsion =  357.484717311060422

  Charge       = 0
  Multiplicity = 1
  Electrons    = 58
  Nalpha       = 29
  Nbeta        = 29

  ==> Algorithm <==

  SCF Algorithm Type is DF.
  DIIS enabled.
  MOM disabled.
  Fractional occupation disabled.
  Guess Type is CORE.
  Energy threshold   = 1.00e-06
  Density threshold  = 1.00e-06
  Integral threshold = 0.00e+00

  ==> Primary Basis <==

  Basis Set: 6-31G*
    Number of shells: 62
    Number of basis function: 134
    Number of Cartesian functions: 134
    Spherical Harmonics?: false
    Max angular momentum: 2

  ==> Pre-Iterations <==

   -------------------------------------------------------
    Irrep   Nso     Nmo     Nalpha   Nbeta   Ndocc  Nsocc
   -------------------------------------------------------
     A        134     134       0       0       0       0
   -------------------------------------------------------
    Total     134     134      29      29      29       0
   -------------------------------------------------------

 OEINTS: Overlap, kinetic, potential, dipole, and quadrupole integrals
         stored in file 35.

  ==> Integral Setup <==

  ==> DFJK: Density-Fitted J/K Matrices <==

    J tasked:                  Yes
    K tasked:                  Yes
    wK tasked:                  No
    OpenMP threads:              1
    Integrals threads:           1
    Memory (MB):              1430
    Algorithm:                Core
    Integral Cache:           NONE
    Schwarz Cutoff:          1E-12
    Fitting Condition:       1E-12

   => Auxiliary Basis Set <=

  Basis Set: 
    Number of shells: 255
    Number of basis function: 823
    Number of Cartesian functions: 823
    Spherical Harmonics?: false
    Max angular momentum: 3

  Minimum eigenvalue in the overlap matrix is 7.0609096714E-04.
  Using Symmetric Orthogonalization.
  SCF Guess: Core (One-Electron) Hamiltonian.

  ==> Iterations <==

                           Total Energy        Delta E     RMS |[F,P]|

   @DF-RHF iter   1:  -284.71272466508697   -2.84713e+02   6.98722e-02 
   @DF-RHF iter   2:  -277.41642755110661    7.29630e+00   5.27254e-02 DIIS
   @DF-RHF iter   3:  -320.94358820027207   -4.35272e+01   5.11093e-02 DIIS
   @DF-RHF iter   4:  -355.78606667990471   -3.48425e+01   1.90468e-02 DIIS
   @DF-RHF iter   5:  -358.50178702334938   -2.71572e+00   1.38146e-02 DIIS
   @DF-RHF iter   6:  -360.51656402347419   -2.01478e+00   2.19787e-03 DIIS
   @DF-RHF iter   7:  -360.58337688552399   -6.68129e-02   8.08196e-04 DIIS
   @DF-RHF iter   8:  -360.59210450884848   -8.72762e-03   3.47281e-04 DIIS
   @DF-RHF iter   9:  -360.59470867922482   -2.60417e-03   2.02258e-04 DIIS
   @DF-RHF iter  10:  -360.59571775274890   -1.00907e-03   7.11719e-05 DIIS
   @DF-RHF iter  11:  -360.59585638688714   -1.38634e-04   1.89910e-05 DIIS
   @DF-RHF iter  12:  -360.59586735692665   -1.09700e-05   1.09221e-05 DIIS
   @DF-RHF iter  13:  -360.59587009707548   -2.74015e-06   3.72019e-06 DIIS
   @DF-RHF iter  14:  -360.59587056396720   -4.66892e-07   9.28423e-07 DIIS

  ==> Post-Iterations <==

    Orbital Energies (a.u.)
    -----------------------

    Doubly Occupied:                                                      

       1A    -20.509829     2A    -15.622888     3A    -11.342894  
       4A    -11.297024     5A    -11.268922     6A    -11.259687  
       7A    -11.232337     8A    -11.228316     9A     -1.384062  
      10A     -1.282104    11A     -1.114506    12A     -1.025592  
      13A     -0.971473    14A     -0.872852    15A     -0.835615  
      16A     -0.714879    17A     -0.696228    18A     -0.662640  
      19A     -0.650116    20A     -0.621721    21A     -0.607041  
      22A     -0.574831    23A     -0.550066    24A     -0.546347  
      25A     -0.528359    26A     -0.477787    27A     -0.413879  
      28A     -0.405930    29A     -0.304316  

    Virtual:                                                              

      30A      0.113038    31A      0.180348    32A      0.224802  
      33A      0.252139    34A      0.277563    35A      0.310390  
      36A      0.315384    37A      0.319441    38A      0.333821  
      39A      0.345724    40A      0.363982    41A      0.433960  
      42A      0.469101    43A      0.488203    44A      0.509630  
      45A      0.536851    46A      0.637645    47A      0.689907  
      48A      0.691186    49A      0.729985    50A      0.753165  
      51A      0.753516    52A      0.793639    53A      0.804956  
      54A      0.811195    55A      0.818550    56A      0.843623  
      57A      0.854759    58A      0.910555    59A      0.915593  
      60A      0.958043    61A      0.977584    62A      1.005366  
      63A      1.030871    64A      1.067703    65A      1.100067  
      66A      1.112679    67A      1.126374    68A      1.152772  
      69A      1.167480    70A      1.171240    71A      1.193901  
      72A      1.208886    73A      1.225384    74A      1.250887  
      75A      1.285877    76A      1.312268    77A      1.363010  
      78A      1.403340    79A      1.463392    80A      1.475297  
      81A      1.481816    82A      1.516488    83A      1.604101  
      84A      1.659487    85A      1.679210    86A      1.694127  
      87A      1.718418    88A      1.743582    89A      1.767070  
      90A      1.768565    91A      1.951189    92A      2.012009  
      93A      2.071838    94A      2.117471    95A      2.175024  
      96A      2.196628    97A      2.205787    98A      2.245142  
      99A      2.248818   100A      2.285662   101A      2.330905  
     102A      2.336903   103A      2.365617   104A      2.438359  
     105A      2.456964   106A      2.485337   107A      2.510700  
     108A      2.544485   109A      2.626821   110A      2.653540  
     111A      2.666515   112A      2.693331   113A      2.708705  
     114A      2.743881   115A      2.922674   116A      2.951646  
     117A      3.018283   118A      3.036034   119A      3.048401  
     120A      3.098962   121A      3.166145   122A      3.201383  
     123A      3.257545   124A      3.405748   125A      3.603460  
     126A      3.820287   127A      4.455579   128A      4.500907  
     129A      4.554389   130A      4.648646   131A      4.699389  
     132A      4.763835   133A      4.932288   134A      5.151639  

    Final Occupation by Irrep:
              A 
    DOCC [    29 ]

  Energy converged.

  @DF-RHF Final Energy:  -360.59587056396720

   => Energetics <=

    Nuclear Repulsion Energy =            357.4847173110604217
    One-Electron Energy =               -1198.1568245522253164
    Two-Electron Energy =                 480.0762366771966754
    DFT Exchange-Correlation Energy =       0.0000000000000000
    Empirical Dispersion Energy =           0.0000000000000000
    PCM Polarization Energy =               0.0000000000000000
    EFP Energy =                            0.0000000000000000
    Total Energy =                       -360.5958705639682194

    Alert: EFP and PCM quantities not currently incorporated into SCF psivars.

Properties will be evaluated at   0.000000,   0.000000,   0.000000 Bohr
  ==> Properties <==


Properties computed using the SCF density matrix

  Nuclear Dipole Moment: (a.u.)
     X:     1.0556      Y:    -2.5436      Z:    -3.5529

  Electronic Dipole Moment: (a.u.)
     X:    -1.4918      Y:     1.7805      Z:     2.0421

  Dipole Moment: (a.u.)
     X:    -0.4362      Y:    -0.7631      Z:    -1.5108     Total:     1.7478

  Dipole Moment: (Debye)
     X:    -1.1088      Y:    -1.9395      Z:    -3.8400     Total:     4.4426


  Saving occupied orbitals to File 180.

*** tstop() called on cx1-3-2-3.cx1.hpc.ic.ac.uk at Tue Jul  5 16:27:58 2016
Module time:
	user time   =      11.09 seconds =       0.18 minutes
	system time =       0.06 seconds =       0.00 minutes
	total time  =         11 seconds =       0.18 minutes
Total time:
	user time   =      11.09 seconds =       0.18 minutes
	system time =       0.06 seconds =       0.00 minutes
	total time  =         11 seconds =       0.18 minutes


Properties will be evaluated at   0.000000,   0.000000,   0.000000 Bohr

Properties computed using the  density matrix

  Nuclear Dipole Moment: (a.u.)
     X:     1.0556      Y:    -2.5436      Z:    -3.5529

  Electronic Dipole Moment: (a.u.)
     X:    -1.4918      Y:     1.7805      Z:     2.0421

  Dipole Moment: (a.u.)
     X:    -0.4362      Y:    -0.7631      Z:    -1.5108     Total:     1.7478

  Dipole Moment: (Debye)
     X:    -1.1088      Y:    -1.9395      Z:    -3.8400     Total:     4.4426

  Quadrupole Moment: (Debye Ang)
    XX:   -41.6619     YY:   -46.6388     ZZ:   -50.3957
    XY:    -5.1721     XZ:    -4.1194     YZ:     0.5764

  Traceless Quadrupole Moment: (Debye Ang)
    XX:     4.5703     YY:    -0.4067     ZZ:    -4.1636
    XY:    -5.1721     XZ:    -4.1194     YZ:     0.5764

  Mulliken Charges: (a.u.)
   Center  Symbol    Alpha    Beta     Spin     Total
       1     H     0.39320  0.39320  0.00000  0.21359
       2     C     3.16167  3.16167  0.00000 -0.32333
       3     C     3.05838  3.05838  0.00000 -0.11675
       4     C     2.92320  2.92320  0.00000  0.15360
       5     H     0.39102  0.39102  0.00000  0.21797
       6     C     3.17046  3.17046  0.00000 -0.34091
       7     H     0.38768  0.38768  0.00000  0.22465
       8     N     3.86434  3.86434  0.00000 -0.72868
       9     H     0.38655  0.38655  0.00000  0.22690
      10     C     2.59528  2.59528  0.00000  0.80944
      11     C     3.13977  3.13977  0.00000 -0.27954
      12     O     4.31984  4.31984  0.00000 -0.63969
      13     H     0.41412  0.41412  0.00000  0.17176
      14     H     0.39705  0.39705  0.00000  0.20589
      15     H     0.39745  0.39745  0.00000  0.20510

   Total alpha = 29.00000, Total beta = 29.00000, Total charge = -0.00000


*** PSI4 exiting successfully. Buy a developer a beer!
