    -----------------------------------------------------------------------
          Psi4: An Open-Source Ab Initio Electronic Structure Package
                              Psi4 (no tag) Driver

                          Git: Rev {detached?}  

    J. M. Turney, A. C. Simmonett, R. M. Parrish, E. G. Hohenstein,
    F. A. Evangelista, J. T. Fermann, B. J. Mintz, L. A. Burns, J. J. Wilke,
    M. L. Abrams, N. J. Russ, M. L. Leininger, C. L. Janssen, E. T. Seidl,
    W. D. Allen, H. F. Schaefer, R. A. King, E. F. Valeev, C. D. Sherrill,
    and T. D. Crawford, WIREs Comput. Mol. Sci. 2, 556-565 (2012)
    (doi: 10.1002/wcms.93)

                         Additional Contributions by
    A. E. DePrince, M. Saitow, U. Bozkaya, A. Yu. Sokolov
    -----------------------------------------------------------------------


    Psi4 started on: Tue Jul  5 16:49:58 2016

    Process ID:  17134
    PSI4DATADIR: /export131/home/mjharvey/miniconda3/share
    Memory level set to 256.000 MB

  ==> Input File <==

--------------------------------------------------------------------------
set {
	reference rhf
	basis 6-31G*
}


set_num_threads( 1 )
memory 2 gb

molecule MOL {
0 1

H	 -2.209093	 0.792246	 2.170905
C	 -1.773541	 0.413444	 1.265267
C	 -2.566409	 0.080269	 0.180232
C	 -0.407784	 0.252917	 1.170986
H	 -3.633693	 0.198390	 0.234020
C	 -1.992153	 -0.406191	 -0.979214
H	 0.232619	 0.501249	 1.991347
C	 0.154804	 -0.237046	 -0.000077
H	 -2.624504	 -0.658816	 -1.810122
C	 -0.616673	 -0.583258	 -1.114523
N	 1.611208	 -0.370857	 -0.000034
C	 -0.096881	 -1.122556	 -2.429021
O	 2.274126	 0.622059	 -0.008063
O	 2.068510	 -1.474748	 0.007823
H	 0.434303	 -2.054627	 -2.294056
H	 -0.931732	 -1.292184	 -3.097321
H	 0.588728	 -0.431144	 -2.899141

	symmetry c1
}
ee = energy('scf')
oeprop('DIPOLE', 'QUADRUPOLE', 'MULLIKEN_CHARGES')
f=open( 'psi4out.xyz', 'w' )
f.write( "17  " )
f.write( str(ee) + "\n" )
f.write( MOL.save_string_xyz() )
f.close()
--------------------------------------------------------------------------

  Memory set to   2.000 GiB by Python script.

*** tstart() called on cx1-3-4-1.cx1.hpc.ic.ac.uk
*** at Tue Jul  5 16:49:59 2016


         ---------------------------------------------------------
                                   SCF
            by Justin Turney, Rob Parrish, and Andy Simmonett
                              RHF Reference
                        1 Threads,   2000 MiB Core
         ---------------------------------------------------------

  ==> Geometry <==

    Molecular point group: c1
    Full point group: C1

    Geometry (in Angstrom), charge = 0, multiplicity = 1:

       Center              X                  Y                   Z               Mass       
    ------------   -----------------  -----------------  -----------------  -----------------
           H         -2.181593218287     1.091622159116     2.379806895067     1.007825032070
           C         -1.746041218287     0.712820159116     1.474168895067    12.000000000000
           C         -2.538909218287     0.379645159116     0.389133895067    12.000000000000
           C         -0.380284218287     0.552293159116     1.379887895067    12.000000000000
           H         -3.606193218287     0.497766159116     0.442921895067     1.007825032070
           C         -1.964653218287    -0.106814840884    -0.770312104933    12.000000000000
           H          0.260118781713     0.800625159116     2.200248895067     1.007825032070
           C          0.182303781713     0.062330159116     0.208824895067    12.000000000000
           H         -2.597004218287    -0.359439840884    -1.601220104933     1.007825032070
           C         -0.589173218287    -0.283881840884    -0.905621104933    12.000000000000
           N          1.638707781713    -0.071480840884     0.208867895067    14.003074004780
           C         -0.069381218287    -0.823179840884    -2.220119104933    12.000000000000
           O          2.301625781713     0.921435159116     0.200838895067    15.994914619560
           O          2.096009781713    -1.175371840884     0.216724895067    15.994914619560
           H          0.461802781713    -1.755250840884    -2.085154104933     1.007825032070
           H         -0.904232218287    -0.992807840884    -2.888419104933     1.007825032070
           H          0.616227781713    -0.131767840884    -2.690239104933     1.007825032070

  Running in c1 symmetry.

  Rotational constants: A =      0.07607  B =      0.03999  C =      0.02911 [cm^-1]
  Rotational constants: A =   2280.37756  B =   1198.90838  C =    872.75835 [MHz]
  Nuclear repulsion =  507.049406487039846

  Charge       = 0
  Multiplicity = 1
  Electrons    = 72
  Nalpha       = 36
  Nbeta        = 36

  ==> Algorithm <==

  SCF Algorithm Type is DF.
  DIIS enabled.
  MOM disabled.
  Fractional occupation disabled.
  Guess Type is CORE.
  Energy threshold   = 1.00e-06
  Density threshold  = 1.00e-06
  Integral threshold = 0.00e+00

  ==> Primary Basis <==

  Basis Set: 6-31G*
    Number of shells: 74
    Number of basis function: 164
    Number of Cartesian functions: 164
    Spherical Harmonics?: false
    Max angular momentum: 2

  ==> Pre-Iterations <==

   -------------------------------------------------------
    Irrep   Nso     Nmo     Nalpha   Nbeta   Ndocc  Nsocc
   -------------------------------------------------------
     A        164     164       0       0       0       0
   -------------------------------------------------------
    Total     164     164      36      36      36       0
   -------------------------------------------------------

 OEINTS: Overlap, kinetic, potential, dipole, and quadrupole integrals
         stored in file 35.

  ==> Integral Setup <==

  ==> DFJK: Density-Fitted J/K Matrices <==

    J tasked:                  Yes
    K tasked:                  Yes
    wK tasked:                  No
    OpenMP threads:              1
    Integrals threads:           1
    Memory (MB):              1430
    Algorithm:                Core
    Integral Cache:           NONE
    Schwarz Cutoff:          1E-12
    Fitting Condition:       1E-12

   => Auxiliary Basis Set <=

  Basis Set: 
    Number of shells: 303
    Number of basis function: 985
    Number of Cartesian functions: 985
    Spherical Harmonics?: false
    Max angular momentum: 3

  Minimum eigenvalue in the overlap matrix is 3.7531747363E-04.
  Using Symmetric Orthogonalization.
  SCF Guess: Core (One-Electron) Hamiltonian.

  ==> Iterations <==

                           Total Energy        Delta E     RMS |[F,P]|

   @DF-RHF iter   1:  -360.89313527767058   -3.60893e+02   6.98507e-02 
   @DF-RHF iter   2:  -299.16449754521693    6.17286e+01   5.59229e-02 DIIS
   @DF-RHF iter   3:  -326.93597097701331   -2.77715e+01   6.66229e-02 DIIS
   @DF-RHF iter   4:  -454.69151323705546   -1.27756e+02   3.01067e-02 DIIS
   @DF-RHF iter   5:  -456.65626858868109   -1.96476e+00   2.46364e-02 DIIS
   @DF-RHF iter   6:  -465.80836333493369   -9.15209e+00   1.83090e-02 DIIS
   @DF-RHF iter   7:  -472.73367403862153   -6.92531e+00   5.50060e-03 DIIS
   @DF-RHF iter   8:  -473.15724814368900   -4.23574e-01   1.35509e-03 DIIS
   @DF-RHF iter   9:  -473.19447180631471   -3.72237e-02   5.02204e-04 DIIS
   @DF-RHF iter  10:  -473.19886434759223   -4.39254e-03   1.92616e-04 DIIS
   @DF-RHF iter  11:  -473.19959409822616   -7.29751e-04   1.02171e-04 DIIS
   @DF-RHF iter  12:  -473.19980186732357   -2.07769e-04   4.04248e-05 DIIS
   @DF-RHF iter  13:  -473.19985002175986   -4.81544e-05   1.69341e-05 DIIS
   @DF-RHF iter  14:  -473.19986081229092   -1.07905e-05   7.98150e-06 DIIS
   @DF-RHF iter  15:  -473.19986406746864   -3.25518e-06   3.76045e-06 DIIS
   @DF-RHF iter  16:  -473.19986488487496   -8.17406e-07   1.43994e-06 DIIS
   @DF-RHF iter  17:  -473.19986496639342   -8.15185e-08   4.28021e-07 DIIS

  ==> Post-Iterations <==

    Orbital Energies (a.u.)
    -----------------------

    Doubly Occupied:                                                      

       1A    -20.604123     2A    -20.603082     3A    -15.853343  
       4A    -11.306882     5A    -11.281393     6A    -11.268043  
       7A    -11.259398     8A    -11.256136     9A    -11.254756  
      10A    -11.241017    11A     -1.634596    12A     -1.414698  
      13A     -1.200467    14A     -1.092652    15A     -1.074958  
      16A     -0.981285    17A     -0.934837    18A     -0.853758  
      19A     -0.819327    20A     -0.771947    21A     -0.731730  
      22A     -0.727457    23A     -0.696924    24A     -0.654441  
      25A     -0.636782    26A     -0.600166    27A     -0.598429  
      28A     -0.570047    29A     -0.542993    30A     -0.527189  
      31A     -0.521337    32A     -0.489428    33A     -0.481503  
      34A     -0.447872    35A     -0.364286    36A     -0.354143  

    Virtual:                                                              

      37A      0.094783    38A      0.121321    39A      0.134198  
      40A      0.220588    41A      0.246599    42A      0.273273  
      43A      0.299840    44A      0.307514    45A      0.311801  
      46A      0.327095    47A      0.358981    48A      0.379167  
      49A      0.393282    50A      0.438177    51A      0.477524  
      52A      0.503149    53A      0.529777    54A      0.558117  
      55A      0.616518    56A      0.660221    57A      0.688021  
      58A      0.697932    59A      0.711567    60A      0.718861  
      61A      0.749135    62A      0.790411    63A      0.800825  
      64A      0.801965    65A      0.815221    66A      0.826025  
      67A      0.832867    68A      0.854674    69A      0.889613  
      70A      0.905439    71A      0.918802    72A      0.927634  
      73A      0.981591    74A      0.995661    75A      1.018876  
      76A      1.048108    77A      1.074695    78A      1.090334  
      79A      1.092735    80A      1.097910    81A      1.116821  
      82A      1.131056    83A      1.149332    84A      1.158248  
      85A      1.167743    86A      1.190139    87A      1.205011  
      88A      1.234050    89A      1.270749    90A      1.274516  
      91A      1.280765    92A      1.312532    93A      1.325129  
      94A      1.339057    95A      1.383591    96A      1.413655  
      97A      1.452213    98A      1.461769    99A      1.488005  
     100A      1.591874   101A      1.613219   102A      1.641867  
     103A      1.671575   104A      1.701430   105A      1.733384  
     106A      1.739409   107A      1.755083   108A      1.778066  
     109A      1.902461   110A      1.921391   111A      2.013900  
     112A      2.031079   113A      2.061967   114A      2.073798  
     115A      2.111692   116A      2.124458   117A      2.138561  
     118A      2.160658   119A      2.202898   120A      2.220173  
     121A      2.255521   122A      2.262246   123A      2.333138  
     124A      2.370966   125A      2.393051   126A      2.399513  
     127A      2.428069   128A      2.437347   129A      2.464935  
     130A      2.483111   131A      2.515334   132A      2.553006  
     133A      2.593559   134A      2.622978   135A      2.643513  
     136A      2.672663   137A      2.721299   138A      2.785357  
     139A      2.803968   140A      2.881036   141A      2.933366  
     142A      2.968229   143A      3.050122   144A      3.079575  
     145A      3.098650   146A      3.126464   147A      3.140793  
     148A      3.196227   149A      3.244442   150A      3.274814  
     151A      3.283071   152A      3.473138   153A      3.515370  
     154A      3.805300   155A      4.239625   156A      4.254638  
     157A      4.340589   158A      4.504597   159A      4.528009  
     160A      4.541313   161A      4.676551   162A      4.783132  
     163A      4.814582   164A      5.139137  

    Final Occupation by Irrep:
              A 
    DOCC [    36 ]

  Energy converged.

  @DF-RHF Final Energy:  -473.19986496639342

   => Energetics <=

    Nuclear Repulsion Energy =            507.0494064870398461
    One-Electron Energy =               -1649.1957229045169697
    Two-Electron Energy =                 668.9464514510843856
    DFT Exchange-Correlation Energy =       0.0000000000000000
    Empirical Dispersion Energy =           0.0000000000000000
    PCM Polarization Energy =               0.0000000000000000
    EFP Energy =                            0.0000000000000000
    Total Energy =                       -473.1998649663926244

    Alert: EFP and PCM quantities not currently incorporated into SCF psivars.

Properties will be evaluated at   0.000000,   0.000000,   0.000000 Bohr
  ==> Properties <==


Properties computed using the SCF density matrix

  Nuclear Dipole Moment: (a.u.)
     X:    -7.4373      Y:    -0.7972      Z:    -3.9754

  Electronic Dipole Moment: (a.u.)
     X:     5.6179      Y:     0.9052      Z:     3.8283

  Dipole Moment: (a.u.)
     X:    -1.8195      Y:     0.1080      Z:    -0.1471     Total:     1.8286

  Dipole Moment: (Debye)
     X:    -4.6246      Y:     0.2745      Z:    -0.3738     Total:     4.6478


  Saving occupied orbitals to File 180.

*** tstop() called on cx1-3-4-1.cx1.hpc.ic.ac.uk at Tue Jul  5 16:50:24 2016
Module time:
	user time   =      22.92 seconds =       0.38 minutes
	system time =       0.26 seconds =       0.00 minutes
	total time  =         25 seconds =       0.42 minutes
Total time:
	user time   =      22.92 seconds =       0.38 minutes
	system time =       0.26 seconds =       0.00 minutes
	total time  =         25 seconds =       0.42 minutes


Properties will be evaluated at   0.000000,   0.000000,   0.000000 Bohr

Properties computed using the  density matrix

  Nuclear Dipole Moment: (a.u.)
     X:    -7.4373      Y:    -0.7972      Z:    -3.9754

  Electronic Dipole Moment: (a.u.)
     X:     5.6179      Y:     0.9052      Z:     3.8283

  Dipole Moment: (a.u.)
     X:    -1.8195      Y:     0.1080      Z:    -0.1471     Total:     1.8286

  Dipole Moment: (Debye)
     X:    -4.6246      Y:     0.2745      Z:    -0.3738     Total:     4.6478

  Quadrupole Moment: (Debye Ang)
    XX:   -61.5168     YY:   -62.8786     ZZ:   -49.6374
    XY:    -0.5424     XZ:    -0.8125     YZ:     3.8054

  Traceless Quadrupole Moment: (Debye Ang)
    XX:    -3.5058     YY:    -4.8677     ZZ:     8.3735
    XY:    -0.5424     XZ:    -0.8125     YZ:     3.8054

  Mulliken Charges: (a.u.)
   Center  Symbol    Alpha    Beta     Spin     Total
       1     H     0.38916  0.38916  0.00000  0.22167
       2     C     3.10810  3.10810  0.00000 -0.21620
       3     C     3.08658  3.08658  0.00000 -0.17315
       4     C     3.08244  3.08244  0.00000 -0.16488
       5     H     0.39080  0.39080  0.00000  0.21840
       6     C     3.12193  3.12193  0.00000 -0.24385
       7     H     0.37712  0.37712  0.00000  0.24575
       8     C     2.91326  2.91326  0.00000  0.17349
       9     H     0.39317  0.39317  0.00000  0.21366
      10     C     2.96342  2.96342  0.00000  0.07315
      11     N     3.26581  3.26581  0.00000  0.46839
      12     C     3.25593  3.25593  0.00000 -0.51186
      13     O     4.22449  4.22449  0.00000 -0.44898
      14     O     4.22570  4.22570  0.00000 -0.45140
      15     H     0.39325  0.39325  0.00000  0.21350
      16     H     0.40767  0.40767  0.00000  0.18467
      17     H     0.40117  0.40117  0.00000  0.19766

   Total alpha = 36.00000, Total beta = 36.00000, Total charge = -0.00000


*** PSI4 exiting successfully. Buy a developer a beer!
