    -----------------------------------------------------------------------
          Psi4: An Open-Source Ab Initio Electronic Structure Package
                              Psi4 (no tag) Driver

                          Git: Rev {detached?}  

    J. M. Turney, A. C. Simmonett, R. M. Parrish, E. G. Hohenstein,
    F. A. Evangelista, J. T. Fermann, B. J. Mintz, L. A. Burns, J. J. Wilke,
    M. L. Abrams, N. J. Russ, M. L. Leininger, C. L. Janssen, E. T. Seidl,
    W. D. Allen, H. F. Schaefer, R. A. King, E. F. Valeev, C. D. Sherrill,
    and T. D. Crawford, WIREs Comput. Mol. Sci. 2, 556-565 (2012)
    (doi: 10.1002/wcms.93)

                         Additional Contributions by
    A. E. DePrince, M. Saitow, U. Bozkaya, A. Yu. Sokolov
    -----------------------------------------------------------------------


    Psi4 started on: Tue Jul  5 16:40:23 2016

    Process ID:  23838
    PSI4DATADIR: /export131/home/mjharvey/miniconda3/share
    Memory level set to 256.000 MB

  ==> Input File <==

--------------------------------------------------------------------------
set {
	reference rhf
	basis 6-31G*
}


set_num_threads( 1 )
memory 2 gb

molecule MOL {
0 1

H	 -1.636719	 -2.229380	 -2.370310
O	 -1.626335	 -1.571140	 -1.682270
C	 -0.424494	 -1.592694	 -1.107166
C	 -0.318135	 -0.576402	 0.000164
O	 0.430532	 -2.339453	 -1.456847
C	 -1.454360	 0.441875	 -0.000474
H	 -0.278694	 -1.122640	 0.938818
H	 0.648115	 -0.089019	 -0.098941
C	 -2.826123	 -0.230780	 0.000056
H	 -1.357605	 1.085198	 -0.868380
H	 -1.357504	 1.086451	 0.866496
H	 -2.959731	 -0.858053	 -0.876869
H	 -3.619374	 0.509403	 -0.000080
H	 -2.959371	 -0.857318	 0.877556

	symmetry c1
}
set optking {
	frozen_dihedral = ("
		7 4 6 10,
		1 2 3 5
	")
}

ee = energy('scf')
oeprop('DIPOLE', 'QUADRUPOLE', 'MULLIKEN_CHARGES')
f=open( 'psi4out.xyz', 'w' )
f.write( "14  " )
f.write( str(ee) + "\n" )
f.write( MOL.save_string_xyz() )
f.close()
--------------------------------------------------------------------------

  Memory set to   2.000 GiB by Python script.

*** tstart() called on cx1-3-16-4.cx1.hpc.ic.ac.uk
*** at Tue Jul  5 16:40:23 2016


         ---------------------------------------------------------
                                   SCF
            by Justin Turney, Rob Parrish, and Andy Simmonett
                              RHF Reference
                        1 Threads,   2000 MiB Core
         ---------------------------------------------------------

  ==> Geometry <==

    Molecular point group: c1
    Full point group: C1

    Geometry (in Angstrom), charge = 0, multiplicity = 1:

       Center              X                  Y                   Z               Mass       
    ------------   -----------------  -----------------  -----------------  -----------------
           H         -0.580180347259    -1.223838853552    -1.631629143058     1.007825032070
           O         -0.569796347259    -0.565598853552    -0.943589143058    15.994914619560
           C          0.632044652741    -0.587152853552    -0.368485143058    12.000000000000
           C          0.738403652741     0.429139146448     0.738844856942    12.000000000000
           O          1.487070652741    -1.333911853552    -0.718166143058    15.994914619560
           C         -0.397821347259     1.447416146448     0.738206856942    12.000000000000
           H          0.777844652741    -0.117098853552     1.677498856942     1.007825032070
           H          1.704653652741     0.916522146448     0.639739856942     1.007825032070
           C         -1.769584347259     0.774761146448     0.738736856942    12.000000000000
           H         -0.301066347259     2.090739146448    -0.129699143058     1.007825032070
           H         -0.300965347259     2.091992146448     1.605176856942     1.007825032070
           H         -1.903192347259     0.147488146448    -0.138188143058     1.007825032070
           H         -2.562835347259     1.514944146448     0.738600856942     1.007825032070
           H         -1.902832347259     0.148223146448     1.616236856942     1.007825032070

  Running in c1 symmetry.

  Rotational constants: A =      0.23613  B =      0.08923  C =      0.06994 [cm^-1]
  Rotational constants: A =   7079.01430  B =   2675.08979  C =   2096.72178 [MHz]
  Nuclear repulsion =  251.108578938238594

  Charge       = 0
  Multiplicity = 1
  Electrons    = 48
  Nalpha       = 24
  Nbeta        = 24

  ==> Algorithm <==

  SCF Algorithm Type is DF.
  DIIS enabled.
  MOM disabled.
  Fractional occupation disabled.
  Guess Type is CORE.
  Energy threshold   = 1.00e-06
  Density threshold  = 1.00e-06
  Integral threshold = 0.00e+00

  ==> Primary Basis <==

  Basis Set: 6-31G*
    Number of shells: 52
    Number of basis function: 106
    Number of Cartesian functions: 106
    Spherical Harmonics?: false
    Max angular momentum: 2

  ==> Pre-Iterations <==

   -------------------------------------------------------
    Irrep   Nso     Nmo     Nalpha   Nbeta   Ndocc  Nsocc
   -------------------------------------------------------
     A        106     106       0       0       0       0
   -------------------------------------------------------
    Total     106     106      24      24      24       0
   -------------------------------------------------------

 OEINTS: Overlap, kinetic, potential, dipole, and quadrupole integrals
         stored in file 35.

  ==> Integral Setup <==

  ==> DFJK: Density-Fitted J/K Matrices <==

    J tasked:                  Yes
    K tasked:                  Yes
    wK tasked:                  No
    OpenMP threads:              1
    Integrals threads:           1
    Memory (MB):              1430
    Algorithm:                Core
    Integral Cache:           NONE
    Schwarz Cutoff:          1E-12
    Fitting Condition:       1E-12

   => Auxiliary Basis Set <=

  Basis Set: 
    Number of shells: 216
    Number of basis function: 686
    Number of Cartesian functions: 686
    Spherical Harmonics?: false
    Max angular momentum: 3

  Minimum eigenvalue in the overlap matrix is 3.2685922481E-03.
  Using Symmetric Orthogonalization.
  SCF Guess: Core (One-Electron) Hamiltonian.

  ==> Iterations <==

                           Total Energy        Delta E     RMS |[F,P]|

   @DF-RHF iter   1:  -244.86811546725320   -2.44868e+02   7.63088e-02 
   @DF-RHF iter   2:  -174.98439720830433    6.98837e+01   7.57066e-02 DIIS
   @DF-RHF iter   3:  -268.29197584629526   -9.33076e+01   4.87727e-02 DIIS
   @DF-RHF iter   4:  -283.16100632519544   -1.48690e+01   4.57010e-02 DIIS
   @DF-RHF iter   5:  -304.50857415849600   -2.13476e+01   1.63681e-02 DIIS
   @DF-RHF iter   6:  -305.71867382852031   -1.21010e+00   5.51959e-03 DIIS
   @DF-RHF iter   7:  -305.83447761143714   -1.15804e-01   1.56770e-03 DIIS
   @DF-RHF iter   8:  -305.84798047667925   -1.35029e-02   5.39616e-04 DIIS
   @DF-RHF iter   9:  -305.85000462408857   -2.02415e-03   2.20444e-04 DIIS
   @DF-RHF iter  10:  -305.85042940938047   -4.24785e-04   5.01706e-05 DIIS
   @DF-RHF iter  11:  -305.85045910619590   -2.96968e-05   2.34473e-05 DIIS
   @DF-RHF iter  12:  -305.85046383506722   -4.72887e-06   7.51049e-06 DIIS
   @DF-RHF iter  13:  -305.85046458247712   -7.47410e-07   2.86213e-06 DIIS
   @DF-RHF iter  14:  -305.85046466692700   -8.44499e-08   8.51893e-07 DIIS

  ==> Post-Iterations <==

    Orbital Energies (a.u.)
    -----------------------

    Doubly Occupied:                                                      

       1A    -20.617070     2A    -20.552896     3A    -11.385902  
       4A    -11.241867     5A    -11.226616     6A    -11.192807  
       7A     -1.483132     8A     -1.371652     9A     -1.085540  
      10A     -0.968616    11A     -0.858559    12A     -0.812087  
      13A     -0.723100    14A     -0.681257    15A     -0.654901  
      16A     -0.602949    17A     -0.600002    18A     -0.587296  
      19A     -0.555961    20A     -0.492558    21A     -0.484623  
      22A     -0.478925    23A     -0.456676    24A     -0.443388  

    Virtual:                                                              

      25A      0.186974    26A      0.219394    27A      0.252036  
      28A      0.289291    29A      0.297227    30A      0.312487  
      31A      0.324735    32A      0.350716    33A      0.368728  
      34A      0.389146    35A      0.429168    36A      0.451013  
      37A      0.489350    38A      0.574377    39A      0.711192  
      40A      0.724161    41A      0.757348    42A      0.772486  
      43A      0.820685    44A      0.833558    45A      0.853585  
      46A      0.910452    47A      0.940425    48A      0.969064  
      49A      1.028075    50A      1.043285    51A      1.071614  
      52A      1.077893    53A      1.126633    54A      1.148659  
      55A      1.179715    56A      1.195098    57A      1.208256  
      58A      1.215271    59A      1.231398    60A      1.251808  
      61A      1.267429    62A      1.284362    63A      1.353598  
      64A      1.363059    65A      1.410258    66A      1.599810  
      67A      1.648206    68A      1.693604    69A      1.716953  
      70A      1.751044    71A      1.791570    72A      1.883896  
      73A      1.960948    74A      2.012074    75A      2.078144  
      76A      2.086457    77A      2.093532    78A      2.115383  
      79A      2.193892    80A      2.198038    81A      2.243251  
      82A      2.287773    83A      2.328096    84A      2.343693  
      85A      2.407466    86A      2.477090    87A      2.597433  
      88A      2.669920    89A      2.679361    90A      2.703696  
      91A      2.744648    92A      2.780238    93A      2.838715  
      94A      2.927454    95A      3.009757    96A      3.035568  
      97A      3.131230    98A      3.251686    99A      3.394956  
     100A      3.501494   101A      4.327659   102A      4.519798  
     103A      4.625470   104A      4.718870   105A      4.855881  
     106A      5.009371  

    Final Occupation by Irrep:
              A 
    DOCC [    24 ]

  Energy converged.

  @DF-RHF Final Energy:  -305.85046466692700

   => Energetics <=

    Nuclear Repulsion Energy =            251.1085789382385940
    One-Electron Energy =                -914.8011921486134952
    Two-Electron Energy =                 357.8421485434479905
    DFT Exchange-Correlation Energy =       0.0000000000000000
    Empirical Dispersion Energy =           0.0000000000000000
    PCM Polarization Energy =               0.0000000000000000
    EFP Energy =                            0.0000000000000000
    Total Energy =                       -305.8504646669269391

    Alert: EFP and PCM quantities not currently incorporated into SCF psivars.

Properties will be evaluated at   0.000000,   0.000000,   0.000000 Bohr
  ==> Properties <==


Properties computed using the SCF density matrix

  Nuclear Dipole Moment: (a.u.)
     X:    -4.7472      Y:     5.2116      Z:     4.0960

  Electronic Dipole Moment: (a.u.)
     X:     4.2309      Y:    -4.8521      Z:    -4.0402

  Dipole Moment: (a.u.)
     X:    -0.5163      Y:     0.3595      Z:     0.0559     Total:     0.6316

  Dipole Moment: (Debye)
     X:    -1.3123      Y:     0.9137      Z:     0.1420     Total:     1.6053


  Saving occupied orbitals to File 180.

*** tstop() called on cx1-3-16-4.cx1.hpc.ic.ac.uk at Tue Jul  5 16:40:34 2016
Module time:
	user time   =      10.41 seconds =       0.17 minutes
	system time =       0.06 seconds =       0.00 minutes
	total time  =         11 seconds =       0.18 minutes
Total time:
	user time   =      10.41 seconds =       0.17 minutes
	system time =       0.06 seconds =       0.00 minutes
	total time  =         11 seconds =       0.18 minutes


Properties will be evaluated at   0.000000,   0.000000,   0.000000 Bohr

Properties computed using the  density matrix

  Nuclear Dipole Moment: (a.u.)
     X:    -4.7472      Y:     5.2116      Z:     4.0960

  Electronic Dipole Moment: (a.u.)
     X:     4.2309      Y:    -4.8521      Z:    -4.0402

  Dipole Moment: (a.u.)
     X:    -0.5163      Y:     0.3595      Z:     0.0559     Total:     0.6316

  Dipole Moment: (Debye)
     X:    -1.3123      Y:     0.9137      Z:     0.1420     Total:     1.6053

  Quadrupole Moment: (Debye Ang)
    XX:   -42.0317     YY:   -37.8415     ZZ:   -33.9625
    XY:     5.5230     XZ:     3.5163     YZ:     0.6437

  Traceless Quadrupole Moment: (Debye Ang)
    XX:    -4.0865     YY:     0.1038     ZZ:     3.9827
    XY:     5.5230     XZ:     3.5163     YZ:     0.6437

  Mulliken Charges: (a.u.)
   Center  Symbol    Alpha    Beta     Spin     Total
       1     H     0.26737  0.26737  0.00000  0.46525
       2     O     4.35650  4.35650  0.00000 -0.71300
       3     C     2.61006  2.61006  0.00000  0.77988
       4     C     3.21909  3.21909  0.00000 -0.43817
       5     O     4.28178  4.28178  0.00000 -0.56357
       6     C     3.15707  3.15707  0.00000 -0.31414
       7     H     0.39576  0.39576  0.00000  0.20848
       8     H     0.39384  0.39384  0.00000  0.21233
       9     C     3.25656  3.25656  0.00000 -0.51311
      10     H     0.41593  0.41593  0.00000  0.16814
      11     H     0.41418  0.41418  0.00000  0.17164
      12     H     0.37856  0.37856  0.00000  0.24288
      13     H     0.42493  0.42493  0.00000  0.15014
      14     H     0.42838  0.42838  0.00000  0.14324

   Total alpha = 24.00000, Total beta = 24.00000, Total charge =  0.00000


*** PSI4 exiting successfully. Buy a developer a beer!
