    -----------------------------------------------------------------------
          Psi4: An Open-Source Ab Initio Electronic Structure Package
                              Psi4 (no tag) Driver

                          Git: Rev {detached?}  

    J. M. Turney, A. C. Simmonett, R. M. Parrish, E. G. Hohenstein,
    F. A. Evangelista, J. T. Fermann, B. J. Mintz, L. A. Burns, J. J. Wilke,
    M. L. Abrams, N. J. Russ, M. L. Leininger, C. L. Janssen, E. T. Seidl,
    W. D. Allen, H. F. Schaefer, R. A. King, E. F. Valeev, C. D. Sherrill,
    and T. D. Crawford, WIREs Comput. Mol. Sci. 2, 556-565 (2012)
    (doi: 10.1002/wcms.93)

                         Additional Contributions by
    A. E. DePrince, M. Saitow, U. Bozkaya, A. Yu. Sokolov
    -----------------------------------------------------------------------


    Psi4 started on: Tue Jul  5 16:30:42 2016

    Process ID:    976
    PSI4DATADIR: /export131/home/mjharvey/miniconda3/share
    Memory level set to 256.000 MB

  ==> Input File <==

--------------------------------------------------------------------------
set {
	reference rhf
	basis 6-31G*
}


set_num_threads( 1 )
memory 2 gb

molecule MOL {
0 1

H	 1.831409	 -1.487637	 -1.037134
C	 0.988437	 -0.850284	 -1.249817
O	 0.464886	 -0.454746	 -0.000158
H	 0.254549	 -1.406058	 -1.821262
H	 1.323203	 0.007468	 -1.821005
C	 -0.590998	 0.343045	 0.000118
O	 -1.699443	 -0.054298	 0.000227
H	 -0.340329	 1.404368	 0.000207

	symmetry c1
}
ee = energy('scf')
oeprop('DIPOLE', 'QUADRUPOLE', 'MULLIKEN_CHARGES')
f=open( 'psi4out.xyz', 'w' )
f.write( "8  " )
f.write( str(ee) + "\n" )
f.write( MOL.save_string_xyz() )
f.close()
--------------------------------------------------------------------------

  Memory set to   2.000 GiB by Python script.

*** tstart() called on cx1-3-15-4.cx1.hpc.ic.ac.uk
*** at Tue Jul  5 16:30:43 2016


         ---------------------------------------------------------
                                   SCF
            by Justin Turney, Rob Parrish, and Andy Simmonett
                              RHF Reference
                        1 Threads,   2000 MiB Core
         ---------------------------------------------------------

  ==> Geometry <==

    Molecular point group: c1
    Full point group: C1

    Geometry (in Angstrom), charge = 0, multiplicity = 1:

       Center              X                  Y                   Z               Mass       
    ------------   -----------------  -----------------  -----------------  -----------------
           H          2.029414606099    -1.225688614865    -0.708731429076     1.007825032070
           C          1.186442606099    -0.588335614865    -0.921414429076    12.000000000000
           O          0.662891606099    -0.192797614865     0.328244570924    15.994914619560
           H          0.452554606099    -1.144109614865    -1.492859429076     1.007825032070
           H          1.521208606099     0.269416385135    -1.492602429076     1.007825032070
           C         -0.392992393901     0.604993385135     0.328520570924    12.000000000000
           O         -1.501437393901     0.207650385135     0.328629570924    15.994914619560
           H         -0.142323393901     1.666316385135     0.328609570924     1.007825032070

  Running in c1 symmetry.

  Rotational constants: A =      0.94253  B =      0.18321  C =      0.17143 [cm^-1]
  Rotational constants: A =  28256.39665  B =   5492.51690  C =   5139.37845 [MHz]
  Nuclear repulsion =  122.240328930132847

  Charge       = 0
  Multiplicity = 1
  Electrons    = 32
  Nalpha       = 16
  Nbeta        = 16

  ==> Algorithm <==

  SCF Algorithm Type is DF.
  DIIS enabled.
  MOM disabled.
  Fractional occupation disabled.
  Guess Type is CORE.
  Energy threshold   = 1.00e-06
  Density threshold  = 1.00e-06
  Integral threshold = 0.00e+00

  ==> Primary Basis <==

  Basis Set: 6-31G*
    Number of shells: 32
    Number of basis function: 68
    Number of Cartesian functions: 68
    Spherical Harmonics?: false
    Max angular momentum: 2

  ==> Pre-Iterations <==

   -------------------------------------------------------
    Irrep   Nso     Nmo     Nalpha   Nbeta   Ndocc  Nsocc
   -------------------------------------------------------
     A         68      68       0       0       0       0
   -------------------------------------------------------
    Total      68      68      16      16      16       0
   -------------------------------------------------------

 OEINTS: Overlap, kinetic, potential, dipole, and quadrupole integrals
         stored in file 35.

  ==> Integral Setup <==

  ==> DFJK: Density-Fitted J/K Matrices <==

    J tasked:                  Yes
    K tasked:                  Yes
    wK tasked:                  No
    OpenMP threads:              1
    Integrals threads:           1
    Memory (MB):              1430
    Algorithm:                Core
    Integral Cache:           NONE
    Schwarz Cutoff:          1E-12
    Fitting Condition:       1E-12

   => Auxiliary Basis Set <=

  Basis Set: 
    Number of shells: 132
    Number of basis function: 424
    Number of Cartesian functions: 424
    Spherical Harmonics?: false
    Max angular momentum: 3

  Minimum eigenvalue in the overlap matrix is 5.2009747595E-03.
  Using Symmetric Orthogonalization.
  SCF Guess: Core (One-Electron) Hamiltonian.

  ==> Iterations <==

                           Total Energy        Delta E     RMS |[F,P]|

   @DF-RHF iter   1:  -187.43137058159002   -1.87431e+02   9.59481e-02 
   @DF-RHF iter   2:  -147.04806553918908    4.03833e+01   8.62447e-02 DIIS
   @DF-RHF iter   3:  -210.69174682296145   -6.36437e+01   5.22889e-02 DIIS
   @DF-RHF iter   4:  -227.04767861279649   -1.63559e+01   1.84208e-02 DIIS
   @DF-RHF iter   5:  -227.67495716724326   -6.27279e-01   6.85065e-03 DIIS
   @DF-RHF iter   6:  -227.76231083228672   -8.73537e-02   1.39005e-03 DIIS
   @DF-RHF iter   7:  -227.76664075564943   -4.32992e-03   6.95940e-04 DIIS
   @DF-RHF iter   8:  -227.76777711756822   -1.13636e-03   3.62487e-04 DIIS
   @DF-RHF iter   9:  -227.76807946794642   -3.02350e-04   1.60390e-04 DIIS
   @DF-RHF iter  10:  -227.76816041182272   -8.09439e-05   5.19269e-05 DIIS
   @DF-RHF iter  11:  -227.76816896384250   -8.55202e-06   8.88417e-06 DIIS
   @DF-RHF iter  12:  -227.76816933924383   -3.75401e-07   2.65381e-06 DIIS
   @DF-RHF iter  13:  -227.76816937627981   -3.70360e-08   7.96179e-07 DIIS

  ==> Post-Iterations <==

    Orbital Energies (a.u.)
    -----------------------

    Doubly Occupied:                                                      

       1A    -20.596512     2A    -20.570249     3A    -11.381831  
       4A    -11.300248     5A     -1.474653     6A     -1.380729  
       7A     -0.991169     8A     -0.833471     9A     -0.741071  
      10A     -0.685991    11A     -0.669851    12A     -0.626251  
      13A     -0.563099    14A     -0.505468    15A     -0.473004  
      16A     -0.456824  

    Virtual:                                                              

      17A      0.166762    18A      0.250210    19A      0.276207  
      20A      0.301848    21A      0.307897    22A      0.320350  
      23A      0.446158    24A      0.523100    25A      0.695517  
      26A      0.740010    27A      0.753778    28A      0.781439  
      29A      0.858401    30A      0.960305    31A      0.986097  
      32A      1.087145    33A      1.096094    34A      1.112469  
      35A      1.117165    36A      1.195763    37A      1.215904  
      38A      1.269927    39A      1.305080    40A      1.341951  
      41A      1.393245    42A      1.553866    43A      1.617461  
      44A      1.686566    45A      1.701315    46A      1.845773  
      47A      1.878833    48A      2.008934    49A      2.053800  
      50A      2.203569    51A      2.237930    52A      2.282572  
      53A      2.368555    54A      2.451727    55A      2.492386  
      56A      2.508474    57A      2.650966    58A      2.765483  
      59A      2.877926    60A      2.982705    61A      3.174360  
      62A      3.248485    63A      3.308331    64A      3.414572  
      65A      4.259202    66A      4.361564    67A      4.586737  
      68A      4.666736  

    Final Occupation by Irrep:
              A 
    DOCC [    16 ]

  Energy converged.

  @DF-RHF Final Energy:  -227.76816937627981

   => Energetics <=

    Nuclear Repulsion Energy =            122.2403289301328471
    One-Electron Energy =                -553.5162094204752066
    Two-Electron Energy =                 203.5077111140626016
    DFT Exchange-Correlation Energy =       0.0000000000000000
    Empirical Dispersion Energy =           0.0000000000000000
    PCM Polarization Energy =               0.0000000000000000
    EFP Energy =                            0.0000000000000000
    Total Energy =                       -227.7681693762797863

    Alert: EFP and PCM quantities not currently incorporated into SCF psivars.

Properties will be evaluated at   0.000000,   0.000000,   0.000000 Bohr
  ==> Properties <==


Properties computed using the SCF density matrix

  Nuclear Dipole Moment: (a.u.)
     X:     3.6154      Y:    -0.4069      Z:    -3.1520

  Electronic Dipole Moment: (a.u.)
     X:    -2.5695      Y:     0.7438      Z:     2.4587

  Dipole Moment: (a.u.)
     X:     1.0459      Y:     0.3370      Z:    -0.6933     Total:     1.2993

  Dipole Moment: (Debye)
     X:     2.6584      Y:     0.8565      Z:    -1.7621     Total:     3.3024


  Saving occupied orbitals to File 180.

*** tstop() called on cx1-3-15-4.cx1.hpc.ic.ac.uk at Tue Jul  5 16:30:45 2016
Module time:
	user time   =       1.76 seconds =       0.03 minutes
	system time =       0.02 seconds =       0.00 minutes
	total time  =          2 seconds =       0.03 minutes
Total time:
	user time   =       1.76 seconds =       0.03 minutes
	system time =       0.02 seconds =       0.00 minutes
	total time  =          2 seconds =       0.03 minutes


Properties will be evaluated at   0.000000,   0.000000,   0.000000 Bohr

Properties computed using the  density matrix

  Nuclear Dipole Moment: (a.u.)
     X:     3.6154      Y:    -0.4069      Z:    -3.1520

  Electronic Dipole Moment: (a.u.)
     X:    -2.5695      Y:     0.7438      Z:     2.4587

  Dipole Moment: (a.u.)
     X:     1.0459      Y:     0.3370      Z:    -0.6933     Total:     1.2993

  Dipole Moment: (Debye)
     X:     2.6584      Y:     0.8565      Z:    -1.7621     Total:     3.3024

  Quadrupole Moment: (Debye Ang)
    XX:   -27.0387     YY:   -21.1991     ZZ:   -22.1102
    XY:    -0.7582     XZ:    -1.2494     YZ:     1.4955

  Traceless Quadrupole Moment: (Debye Ang)
    XX:    -3.5894     YY:     2.2502     ZZ:     1.3392
    XY:    -0.7582     XZ:    -1.2494     YZ:     1.4955

  Mulliken Charges: (a.u.)
   Center  Symbol    Alpha    Beta     Spin     Total
       1     H     0.40034  0.40034  0.00000  0.19931
       2     C     3.09295  3.09295  0.00000 -0.18591
       3     O     4.29111  4.29111  0.00000 -0.58221
       4     H     0.40763  0.40763  0.00000  0.18475
       5     H     0.41918  0.41918  0.00000  0.16165
       6     C     2.73769  2.73769  0.00000  0.52462
       7     O     4.22707  4.22707  0.00000 -0.45414
       8     H     0.42403  0.42403  0.00000  0.15193

   Total alpha = 16.00000, Total beta = 16.00000, Total charge = -0.00000


*** PSI4 exiting successfully. Buy a developer a beer!
