    -----------------------------------------------------------------------
          Psi4: An Open-Source Ab Initio Electronic Structure Package
                              Psi4 (no tag) Driver

                          Git: Rev {detached?}  

    J. M. Turney, A. C. Simmonett, R. M. Parrish, E. G. Hohenstein,
    F. A. Evangelista, J. T. Fermann, B. J. Mintz, L. A. Burns, J. J. Wilke,
    M. L. Abrams, N. J. Russ, M. L. Leininger, C. L. Janssen, E. T. Seidl,
    W. D. Allen, H. F. Schaefer, R. A. King, E. F. Valeev, C. D. Sherrill,
    and T. D. Crawford, WIREs Comput. Mol. Sci. 2, 556-565 (2012)
    (doi: 10.1002/wcms.93)

                         Additional Contributions by
    A. E. DePrince, M. Saitow, U. Bozkaya, A. Yu. Sokolov
    -----------------------------------------------------------------------


    Psi4 started on: Tue Jul  5 16:44:17 2016

    Process ID:  12400
    PSI4DATADIR: /export131/home/mjharvey/miniconda3/share
    Memory level set to 256.000 MB

  ==> Input File <==

--------------------------------------------------------------------------
set {
	reference rhf
	basis 6-31G*
}


set_num_threads( 1 )
memory 2 gb

molecule MOL {
0 1

H	 -2.365627	 -1.312883	 -0.379134
C	 -1.358347	 -1.274295	 0.019669
C	 -0.681945	 0.000119	 -0.470601
H	 -0.826096	 -2.155117	 -0.321105
H	 -1.409554	 -1.292283	 1.100109
C	 -1.357790	 1.274691	 0.020220
N	 0.739525	 -0.000142	 0.006128
H	 -0.594190	 0.000341	 -1.545128
H	 -2.364980	 1.313977	 -0.378631
H	 -0.825080	 2.155361	 -0.320114
H	 -1.409060	 1.292170	 1.100671
O	 1.577040	 0.361563	 -0.760891
O	 0.942098	 -0.363079	 1.125343

	symmetry c1
}
ee = energy('scf')
oeprop('DIPOLE', 'QUADRUPOLE', 'MULLIKEN_CHARGES')
f=open( 'psi4out.xyz', 'w' )
f.write( "13  " )
f.write( str(ee) + "\n" )
f.write( MOL.save_string_xyz() )
f.close()
--------------------------------------------------------------------------

  Memory set to   2.000 GiB by Python script.

*** tstart() called on cx1-3-6-2.cx1.hpc.ic.ac.uk
*** at Tue Jul  5 16:44:18 2016


         ---------------------------------------------------------
                                   SCF
            by Justin Turney, Rob Parrish, and Andy Simmonett
                              RHF Reference
                        1 Threads,   2000 MiB Core
         ---------------------------------------------------------

  ==> Geometry <==

    Molecular point group: c1
    Full point group: C1

    Geometry (in Angstrom), charge = 0, multiplicity = 1:

       Center              X                  Y                   Z               Mass       
    ------------   -----------------  -----------------  -----------------  -----------------
           H         -2.365636057742    -1.312675487874    -0.379105889932     1.007825032070
           C         -1.358356057742    -1.274087487874     0.019697110068    12.000000000000
           C         -0.681954057742     0.000326512126    -0.470572889932    12.000000000000
           H         -0.826105057742    -2.154909487874    -0.321076889932     1.007825032070
           H         -1.409563057742    -1.292075487874     1.100137110068     1.007825032070
           C         -1.357799057742     1.274898512126     0.020248110068    12.000000000000
           N          0.739515942258     0.000065512126     0.006156110068    14.003074004780
           H         -0.594199057742     0.000548512126    -1.545099889932     1.007825032070
           H         -2.364989057742     1.314184512126    -0.378602889932     1.007825032070
           H         -0.825089057742     2.155568512126    -0.320085889932     1.007825032070
           H         -1.409069057742     1.292377512126     1.100699110068     1.007825032070
           O          1.577030942258     0.361770512126    -0.760862889932    15.994914619560
           O          0.942088942258    -0.362871487874     1.125371110068    15.994914619560

  Running in c1 symmetry.

  Rotational constants: A =      0.17429  B =      0.10430  C =      0.08759 [cm^-1]
  Rotational constants: A =   5225.15347  B =   3126.86414  C =   2625.79333 [MHz]
  Nuclear repulsion =  256.897246629394601

  Charge       = 0
  Multiplicity = 1
  Electrons    = 48
  Nalpha       = 24
  Nbeta        = 24

  ==> Algorithm <==

  SCF Algorithm Type is DF.
  DIIS enabled.
  MOM disabled.
  Fractional occupation disabled.
  Guess Type is CORE.
  Energy threshold   = 1.00e-06
  Density threshold  = 1.00e-06
  Integral threshold = 0.00e+00

  ==> Primary Basis <==

  Basis Set: 6-31G*
    Number of shells: 50
    Number of basis function: 104
    Number of Cartesian functions: 104
    Spherical Harmonics?: false
    Max angular momentum: 2

  ==> Pre-Iterations <==

   -------------------------------------------------------
    Irrep   Nso     Nmo     Nalpha   Nbeta   Ndocc  Nsocc
   -------------------------------------------------------
     A        104     104       0       0       0       0
   -------------------------------------------------------
    Total     104     104      24      24      24       0
   -------------------------------------------------------

 OEINTS: Overlap, kinetic, potential, dipole, and quadrupole integrals
         stored in file 35.

  ==> Integral Setup <==

  ==> DFJK: Density-Fitted J/K Matrices <==

    J tasked:                  Yes
    K tasked:                  Yes
    wK tasked:                  No
    OpenMP threads:              1
    Integrals threads:           1
    Memory (MB):              1430
    Algorithm:                Core
    Integral Cache:           NONE
    Schwarz Cutoff:          1E-12
    Fitting Condition:       1E-12

   => Auxiliary Basis Set <=

  Basis Set: 
    Number of shells: 207
    Number of basis function: 661
    Number of Cartesian functions: 661
    Spherical Harmonics?: false
    Max angular momentum: 3

  Minimum eigenvalue in the overlap matrix is 2.7845142509E-03.
  Using Symmetric Orthogonalization.
  SCF Guess: Core (One-Electron) Hamiltonian.

  ==> Iterations <==

                           Total Energy        Delta E     RMS |[F,P]|

   @DF-RHF iter   1:  -236.95549969331086   -2.36955e+02   8.54154e-02 
   @DF-RHF iter   2:  -211.98931091116458    2.49662e+01   6.80705e-02 DIIS
   @DF-RHF iter   3:  -254.91818351620230   -4.29289e+01   7.24619e-02 DIIS
   @DF-RHF iter   4:  -317.97212244840551   -6.30539e+01   2.31383e-02 DIIS
   @DF-RHF iter   5:  -321.21187807961604   -3.23976e+00   1.00057e-02 DIIS
   @DF-RHF iter   6:  -321.67716314889259   -4.65285e-01   3.52389e-03 DIIS
   @DF-RHF iter   7:  -321.72894310753469   -5.17800e-02   1.27002e-03 DIIS
   @DF-RHF iter   8:  -321.73759221581764   -8.64911e-03   3.59370e-04 DIIS
   @DF-RHF iter   9:  -321.73846580684591   -8.73591e-04   1.55322e-04 DIIS
   @DF-RHF iter  10:  -321.73865709110856   -1.91284e-04   6.87478e-05 DIIS
   @DF-RHF iter  11:  -321.73870585206538   -4.87610e-05   3.06773e-05 DIIS
   @DF-RHF iter  12:  -321.73872087805881   -1.50260e-05   1.25100e-05 DIIS
   @DF-RHF iter  13:  -321.73872339686642   -2.51881e-06   4.22788e-06 DIIS
   @DF-RHF iter  14:  -321.73872375972365   -3.62857e-07   1.07635e-06 DIIS
   @DF-RHF iter  15:  -321.73872378569973   -2.59761e-08   4.25875e-07 DIIS

  ==> Post-Iterations <==

    Orbital Energies (a.u.)
    -----------------------

    Doubly Occupied:                                                      

       1A    -20.600688     2A    -20.598312     3A    -15.842950  
       4A    -11.305941     5A    -11.248890     6A    -11.242284  
       7A     -1.628647     8A     -1.414152     9A     -1.143904  
      10A     -0.974061    11A     -0.957815    12A     -0.813640  
      13A     -0.751483    14A     -0.727742    15A     -0.722354  
      16A     -0.649190    17A     -0.594152    18A     -0.588083  
      19A     -0.571797    20A     -0.529315    21A     -0.523068  
      22A     -0.482037    23A     -0.469314    24A     -0.447090  

    Virtual:                                                              

      25A      0.123117    26A      0.217586    27A      0.264816  
      28A      0.273665    29A      0.282442    30A      0.301743  
      31A      0.326401    32A      0.328866    33A      0.343063  
      34A      0.358969    35A      0.415339    36A      0.537166  
      37A      0.613184    38A      0.674019    39A      0.693564  
      40A      0.727584    41A      0.758498    42A      0.776272  
      43A      0.840035    44A      0.900798    45A      0.929732  
      46A      0.949798    47A      0.955067    48A      1.007387  
      49A      1.075482    50A      1.083626    51A      1.092257  
      52A      1.115664    53A      1.132451    54A      1.142754  
      55A      1.161090    56A      1.179241    57A      1.204648  
      58A      1.226930    59A      1.256836    60A      1.271091  
      61A      1.285513    62A      1.308859    63A      1.365161  
      64A      1.414904    65A      1.574075    66A      1.597291  
      67A      1.615803    68A      1.740335    69A      1.788406  
      70A      1.898300    71A      1.935486    72A      1.987036  
      73A      2.040598    74A      2.084936    75A      2.119710  
      76A      2.144446    77A      2.169393    78A      2.230313  
      79A      2.241532    80A      2.297102    81A      2.319590  
      82A      2.374218    83A      2.434323    84A      2.461091  
      85A      2.568832    86A      2.569498    87A      2.584376  
      88A      2.676908    89A      2.691882    90A      2.753693  
      91A      2.875779    92A      2.950745    93A      3.010287  
      94A      3.093899    95A      3.244407    96A      3.263845  
      97A      3.300165    98A      3.496673    99A      4.095145  
     100A      4.286827   101A      4.290968   102A      4.611180  
     103A      4.707901   104A      4.954878  

    Final Occupation by Irrep:
              A 
    DOCC [    24 ]

  Energy converged.

  @DF-RHF Final Energy:  -321.73872378569973

   => Energetics <=

    Nuclear Repulsion Energy =            256.8972466293946013
    One-Electron Energy =                -947.6182153158046049
    Two-Electron Energy =                 368.9822449007098726
    DFT Exchange-Correlation Energy =       0.0000000000000000
    Empirical Dispersion Energy =           0.0000000000000000
    PCM Polarization Energy =               0.0000000000000000
    EFP Energy =                            0.0000000000000000
    Total Energy =                       -321.7387237857001878

    Alert: EFP and PCM quantities not currently incorporated into SCF psivars.

Properties will be evaluated at   0.000000,   0.000000,   0.000000 Bohr
  ==> Properties <==


Properties computed using the SCF density matrix

  Nuclear Dipole Moment: (a.u.)
     X:    -9.1722      Y:     0.0028      Z:    -0.6949

  Electronic Dipole Moment: (a.u.)
     X:     7.5543      Y:     0.0240      Z:     0.2684

  Dipole Moment: (a.u.)
     X:    -1.6179      Y:     0.0269      Z:    -0.4265     Total:     1.6734

  Dipole Moment: (Debye)
     X:    -4.1124      Y:     0.0683      Z:    -1.0841     Total:     4.2535


  Saving occupied orbitals to File 180.

*** tstop() called on cx1-3-6-2.cx1.hpc.ic.ac.uk at Tue Jul  5 16:44:25 2016
Module time:
	user time   =       6.65 seconds =       0.11 minutes
	system time =       0.05 seconds =       0.00 minutes
	total time  =          7 seconds =       0.12 minutes
Total time:
	user time   =       6.65 seconds =       0.11 minutes
	system time =       0.05 seconds =       0.00 minutes
	total time  =          7 seconds =       0.12 minutes


Properties will be evaluated at   0.000000,   0.000000,   0.000000 Bohr

Properties computed using the  density matrix

  Nuclear Dipole Moment: (a.u.)
     X:    -9.1722      Y:     0.0028      Z:    -0.6949

  Electronic Dipole Moment: (a.u.)
     X:     7.5543      Y:     0.0240      Z:     0.2684

  Dipole Moment: (a.u.)
     X:    -1.6179      Y:     0.0269      Z:    -0.4265     Total:     1.6734

  Dipole Moment: (Debye)
     X:    -4.1124      Y:     0.0683      Z:    -1.0841     Total:     4.2535

  Quadrupole Moment: (Debye Ang)
    XX:   -39.2440     YY:   -34.5184     ZZ:   -38.4600
    XY:    -0.6791     XZ:     0.5336     YZ:     1.5499

  Traceless Quadrupole Moment: (Debye Ang)
    XX:    -1.8365     YY:     2.8891     ZZ:    -1.0525
    XY:    -0.6791     XZ:     0.5336     YZ:     1.5499

  Mulliken Charges: (a.u.)
   Center  Symbol    Alpha    Beta     Spin     Total
       1     H     0.41110  0.41110  0.00000  0.17781
       2     C     3.24770  3.24770  0.00000 -0.49540
       3     C     3.02362  3.02362  0.00000 -0.04725
       4     H     0.40443  0.40443  0.00000  0.19115
       5     H     0.39585  0.39585  0.00000  0.20830
       6     C     3.25005  3.25005  0.00000 -0.50010
       7     N     3.21603  3.21603  0.00000  0.56794
       8     H     0.38587  0.38587  0.00000  0.22826
       9     H     0.40594  0.40594  0.00000  0.18811
      10     H     0.39963  0.39963  0.00000  0.20074
      11     H     0.39965  0.39965  0.00000  0.20070
      12     O     4.22939  4.22939  0.00000 -0.45878
      13     O     4.23074  4.23074  0.00000 -0.46147

   Total alpha = 24.00000, Total beta = 24.00000, Total charge =  0.00000


*** PSI4 exiting successfully. Buy a developer a beer!
