    -----------------------------------------------------------------------
          Psi4: An Open-Source Ab Initio Electronic Structure Package
                              Psi4 (no tag) Driver

                          Git: Rev {detached?}  

    J. M. Turney, A. C. Simmonett, R. M. Parrish, E. G. Hohenstein,
    F. A. Evangelista, J. T. Fermann, B. J. Mintz, L. A. Burns, J. J. Wilke,
    M. L. Abrams, N. J. Russ, M. L. Leininger, C. L. Janssen, E. T. Seidl,
    W. D. Allen, H. F. Schaefer, R. A. King, E. F. Valeev, C. D. Sherrill,
    and T. D. Crawford, WIREs Comput. Mol. Sci. 2, 556-565 (2012)
    (doi: 10.1002/wcms.93)

                         Additional Contributions by
    A. E. DePrince, M. Saitow, U. Bozkaya, A. Yu. Sokolov
    -----------------------------------------------------------------------


    Psi4 started on: Tue Jul  5 16:23:56 2016

    Process ID:  16135
    PSI4DATADIR: /export131/home/mjharvey/miniconda3/share
    Memory level set to 256.000 MB

  ==> Input File <==

--------------------------------------------------------------------------
set {
	reference rhf
	basis 6-31G*
}


set_num_threads( 1 )
memory 2 gb

molecule MOL {
0 1

H	 0.530236	 1.866351	 0.428761
O	 0.055946	 1.300438	 -0.164479
C	 0.004957	 -0.004114	 0.366649
C	 1.201664	 -0.828089	 -0.095740
C	 -1.317755	 -0.601827	 -0.081511
H	 0.013527	 0.048298	 1.454924
H	 1.216388	 -0.895289	 -1.178704
H	 2.135132	 -0.372895	 0.226467
H	 1.166770	 -1.832878	 0.313827
H	 -1.355732	 -0.658248	 -1.164429
H	 -2.141614	 0.017037	 0.254547
H	 -1.447303	 -1.600817	 0.322594

	symmetry c1
}
ee = energy('scf')
oeprop('DIPOLE', 'QUADRUPOLE', 'MULLIKEN_CHARGES')
f=open( 'psi4out.xyz', 'w' )
f.write( "12  " )
f.write( str(ee) + "\n" )
f.write( MOL.save_string_xyz() )
f.close()
--------------------------------------------------------------------------

  Memory set to   2.000 GiB by Python script.

*** tstart() called on cx1-3-15-4.cx1.hpc.ic.ac.uk
*** at Tue Jul  5 16:23:57 2016


         ---------------------------------------------------------
                                   SCF
            by Justin Turney, Rob Parrish, and Andy Simmonett
                              RHF Reference
                        1 Threads,   2000 MiB Core
         ---------------------------------------------------------

  ==> Geometry <==

    Molecular point group: c1
    Full point group: C1

    Geometry (in Angstrom), charge = 0, multiplicity = 1:

       Center              X                  Y                   Z               Mass       
    ------------   -----------------  -----------------  -----------------  -----------------
           H          0.535571449149     1.864073747644     0.423681132671     1.007825032070
           O          0.061281449149     1.298160747644    -0.169558867329    15.994914619560
           C          0.010292449149    -0.006391252356     0.361569132671    12.000000000000
           C          1.206999449149    -0.830366252356    -0.100819867329    12.000000000000
           C         -1.312419550851    -0.604104252356    -0.086590867329    12.000000000000
           H          0.018862449149     0.046020747644     1.449844132671     1.007825032070
           H          1.221723449149    -0.897566252356    -1.183783867329     1.007825032070
           H          2.140467449149    -0.375172252356     0.221387132671     1.007825032070
           H          1.172105449149    -1.835155252356     0.308747132671     1.007825032070
           H         -1.350396550851    -0.660525252356    -1.169508867329     1.007825032070
           H         -2.136278550851     0.014759747644     0.249467132671     1.007825032070
           H         -1.441967550851    -1.603094252356     0.317514132671     1.007825032070

  Running in c1 symmetry.

  Rotational constants: A =      0.29144  B =      0.26986  C =      0.16049 [cm^-1]
  Rotational constants: A =   8737.19754  B =   8090.21156  C =   4811.51198 [MHz]
  Nuclear repulsion =  135.439836974475639

  Charge       = 0
  Multiplicity = 1
  Electrons    = 34
  Nalpha       = 17
  Nbeta        = 17

  ==> Algorithm <==

  SCF Algorithm Type is DF.
  DIIS enabled.
  MOM disabled.
  Fractional occupation disabled.
  Guess Type is CORE.
  Energy threshold   = 1.00e-06
  Density threshold  = 1.00e-06
  Integral threshold = 0.00e+00

  ==> Primary Basis <==

  Basis Set: 6-31G*
    Number of shells: 40
    Number of basis function: 76
    Number of Cartesian functions: 76
    Spherical Harmonics?: false
    Max angular momentum: 2

  ==> Pre-Iterations <==

   -------------------------------------------------------
    Irrep   Nso     Nmo     Nalpha   Nbeta   Ndocc  Nsocc
   -------------------------------------------------------
     A         76      76       0       0       0       0
   -------------------------------------------------------
    Total      76      76      17      17      17       0
   -------------------------------------------------------

 OEINTS: Overlap, kinetic, potential, dipole, and quadrupole integrals
         stored in file 35.

  ==> Integral Setup <==

  ==> DFJK: Density-Fitted J/K Matrices <==

    J tasked:                  Yes
    K tasked:                  Yes
    wK tasked:                  No
    OpenMP threads:              1
    Integrals threads:           1
    Memory (MB):              1430
    Algorithm:                Core
    Integral Cache:           NONE
    Schwarz Cutoff:          1E-12
    Fitting Condition:       1E-12

   => Auxiliary Basis Set <=

  Basis Set: 
    Number of shells: 168
    Number of basis function: 524
    Number of Cartesian functions: 524
    Spherical Harmonics?: false
    Max angular momentum: 3

  Minimum eigenvalue in the overlap matrix is 4.2192957793E-03.
  Using Symmetric Orthogonalization.
  SCF Guess: Core (One-Electron) Hamiltonian.

  ==> Iterations <==

                           Total Energy        Delta E     RMS |[F,P]|

   @DF-RHF iter   1:  -158.63568327744051   -1.58636e+02   8.54807e-02 
   @DF-RHF iter   2:  -157.69710913542789    9.38574e-01   5.73266e-02 DIIS
   @DF-RHF iter   3:  -175.51939372050626   -1.78223e+01   6.13698e-02 DIIS
   @DF-RHF iter   4:  -191.50997534731962   -1.59906e+01   2.37372e-02 DIIS
   @DF-RHF iter   5:  -192.59996134110676   -1.08999e+00   1.27693e-02 DIIS
   @DF-RHF iter   6:  -193.01066778948572   -4.10706e-01   5.71581e-03 DIIS
   @DF-RHF iter   7:  -193.10785781235487   -9.71900e-02   1.26324e-03 DIIS
   @DF-RHF iter   8:  -193.11314954695413   -5.29173e-03   4.37615e-04 DIIS
   @DF-RHF iter   9:  -193.11403634237283   -8.86795e-04   1.12564e-04 DIIS
   @DF-RHF iter  10:  -193.11409238678308   -5.60444e-05   2.74809e-05 DIIS
   @DF-RHF iter  11:  -193.11409597941346   -3.59263e-06   5.03876e-06 DIIS
   @DF-RHF iter  12:  -193.11409609037335   -1.10960e-07   1.61840e-06 DIIS
   @DF-RHF iter  13:  -193.11409610197367   -1.16003e-08   3.46754e-07 DIIS

  ==> Post-Iterations <==

    Orbital Energies (a.u.)
    -----------------------

    Doubly Occupied:                                                      

       1A    -20.550652     2A    -11.275816     3A    -11.208562  
       4A    -11.205331     5A     -1.360256     6A     -1.040689  
       7A     -0.936237     8A     -0.798722     9A     -0.709145  
      10A     -0.613428    11A     -0.599269    12A     -0.552368  
      13A     -0.537970    14A     -0.523562    15A     -0.506299  
      16A     -0.464967    17A     -0.429235  

    Virtual:                                                              

      18A      0.215559    19A      0.265833    20A      0.300397  
      21A      0.302709    22A      0.311296    23A      0.324582  
      24A      0.354654    25A      0.356679    26A      0.392198  
      27A      0.440968    28A      0.447568    29A      0.708386  
      30A      0.729260    31A      0.790036    32A      0.807501  
      33A      0.814569    34A      0.914464    35A      0.954421  
      36A      0.963070    37A      0.994713    38A      1.095148  
      39A      1.155428    40A      1.168100    41A      1.174443  
      42A      1.185855    43A      1.194576    44A      1.211259  
      45A      1.233431    46A      1.258042    47A      1.304773  
      48A      1.330042    49A      1.458636    50A      1.623322  
      51A      1.656492    52A      1.688223    53A      1.821316  
      54A      1.883879    55A      2.048821    56A      2.088735  
      57A      2.116776    58A      2.183387    59A      2.279572  
      60A      2.311201    61A      2.389532    62A      2.484648  
      63A      2.539352    64A      2.589271    65A      2.607656  
      66A      2.612828    67A      2.760114    68A      2.865744  
      69A      2.902781    70A      2.972157    71A      3.082823  
      72A      3.242846    73A      4.181537    74A      4.614006  
      75A      4.727177    76A      4.936985  

    Final Occupation by Irrep:
              A 
    DOCC [    17 ]

  Energy converged.

  @DF-RHF Final Energy:  -193.11409610197367

   => Energetics <=

    Nuclear Repulsion Energy =            135.4398369744756394
    One-Electron Energy =                -530.4829012409736606
    Two-Electron Energy =                 201.9289681645243490
    DFT Exchange-Correlation Energy =       0.0000000000000000
    Empirical Dispersion Energy =           0.0000000000000000
    PCM Polarization Energy =               0.0000000000000000
    EFP Energy =                            0.0000000000000000
    Total Energy =                       -193.1140961019737006

    Alert: EFP and PCM quantities not currently incorporated into SCF psivars.

Properties will be evaluated at   0.000000,   0.000000,   0.000000 Bohr
  ==> Properties <==


Properties computed using the SCF density matrix

  Nuclear Dipole Moment: (a.u.)
     X:     0.1504      Y:    -3.2249      Z:     0.5779

  Electronic Dipole Moment: (a.u.)
     X:     0.1258      Y:     3.0723      Z:     0.0286

  Dipole Moment: (a.u.)
     X:     0.2762      Y:    -0.1526      Z:     0.6066     Total:     0.6837

  Dipole Moment: (Debye)
     X:     0.7019      Y:    -0.3878      Z:     1.5418     Total:     1.7378


  Saving occupied orbitals to File 180.

*** tstop() called on cx1-3-15-4.cx1.hpc.ic.ac.uk at Tue Jul  5 16:24:00 2016
Module time:
	user time   =       3.04 seconds =       0.05 minutes
	system time =       0.02 seconds =       0.00 minutes
	total time  =          3 seconds =       0.05 minutes
Total time:
	user time   =       3.04 seconds =       0.05 minutes
	system time =       0.02 seconds =       0.00 minutes
	total time  =          3 seconds =       0.05 minutes


Properties will be evaluated at   0.000000,   0.000000,   0.000000 Bohr

Properties computed using the  density matrix

  Nuclear Dipole Moment: (a.u.)
     X:     0.1504      Y:    -3.2249      Z:     0.5779

  Electronic Dipole Moment: (a.u.)
     X:     0.1258      Y:     3.0723      Z:     0.0286

  Dipole Moment: (a.u.)
     X:     0.2762      Y:    -0.1526      Z:     0.6066     Total:     0.6837

  Dipole Moment: (Debye)
     X:     0.7019      Y:    -0.3878      Z:     1.5418     Total:     1.7378

  Quadrupole Moment: (Debye Ang)
    XX:   -26.4720     YY:   -25.8261     ZZ:   -26.1923
    XY:     1.7989     XZ:     0.6145     YZ:     2.5652

  Traceless Quadrupole Moment: (Debye Ang)
    XX:    -0.3086     YY:     0.3374     ZZ:    -0.0288
    XY:     1.7989     XZ:     0.6145     YZ:     2.5652

  Mulliken Charges: (a.u.)
   Center  Symbol    Alpha    Beta     Spin     Total
       1     H     0.28121  0.28121  0.00000  0.43757
       2     O     4.37165  4.37165  0.00000 -0.74330
       3     C     2.92425  2.92425  0.00000  0.15150
       4     C     3.24029  3.24029  0.00000 -0.48058
       5     C     3.23707  3.23707  0.00000 -0.47414
       6     H     0.43132  0.43132  0.00000  0.13735
       7     H     0.41430  0.41430  0.00000  0.17140
       8     H     0.42304  0.42304  0.00000  0.15392
       9     H     0.42337  0.42337  0.00000  0.15326
      10     H     0.41501  0.41501  0.00000  0.16999
      11     H     0.41405  0.41405  0.00000  0.17191
      12     H     0.42444  0.42444  0.00000  0.15112

   Total alpha = 17.00000, Total beta = 17.00000, Total charge =  0.00000


*** PSI4 exiting successfully. Buy a developer a beer!
