    -----------------------------------------------------------------------
          Psi4: An Open-Source Ab Initio Electronic Structure Package
                              Psi4 (no tag) Driver

                          Git: Rev {detached?}  

    J. M. Turney, A. C. Simmonett, R. M. Parrish, E. G. Hohenstein,
    F. A. Evangelista, J. T. Fermann, B. J. Mintz, L. A. Burns, J. J. Wilke,
    M. L. Abrams, N. J. Russ, M. L. Leininger, C. L. Janssen, E. T. Seidl,
    W. D. Allen, H. F. Schaefer, R. A. King, E. F. Valeev, C. D. Sherrill,
    and T. D. Crawford, WIREs Comput. Mol. Sci. 2, 556-565 (2012)
    (doi: 10.1002/wcms.93)

                         Additional Contributions by
    A. E. DePrince, M. Saitow, U. Bozkaya, A. Yu. Sokolov
    -----------------------------------------------------------------------


    Psi4 started on: Tue Jul  5 17:58:35 2016

    Process ID:  29965
    PSI4DATADIR: /export131/home/mjharvey/miniconda3/share
    Memory level set to 256.000 MB

  ==> Input File <==

--------------------------------------------------------------------------
set {
	reference rhf
	basis 6-31G*
}


set_num_threads( 1 )
memory 2 gb

molecule MOL {
0 1

H	 6.450578	 -7.854317	 2.409210
C	 6.440012	 -7.457214	 1.398903
C	 7.258408	 -6.170304	 1.302645
H	 6.838164	 -8.222059	 0.738729
H	 5.403366	 -7.286683	 1.121261
C	 7.258831	 -5.579380	 -0.108958
H	 8.279280	 -6.370965	 1.611120
H	 6.857326	 -5.436235	 1.999759
C	 5.869458	 -5.494355	 -0.741161
H	 7.697616	 -4.588079	 -0.088125
H	 7.889173	 -6.191444	 -0.750119
C	 4.964761	 -4.436609	 -0.126394
H	 5.961057	 -5.247601	 -1.797803
H	 5.367283	 -6.458635	 -0.707106
C	 3.475324	 -4.538016	 -0.405696
O	 5.404379	 -3.546089	 0.537018
C	 3.142513	 -5.197708	 -1.752249
H	 3.077758	 -3.530724	 -0.373804
H	 3.010537	 -5.105855	 0.398180
C	 3.906992	 -6.506058	 -1.962969
H	 2.073565	 -5.394231	 -1.800676
H	 3.371148	 -4.517137	 -2.568350
C	 3.584233	 -7.172245	 -3.299729
H	 3.675183	 -7.191428	 -1.151430
H	 4.975620	 -6.311267	 -1.903941
H	 2.526789	 -7.408725	 -3.374670
H	 3.837980	 -6.523738	 -4.133494
H	 4.139105	 -8.097216	 -3.419829

	symmetry c1
}
set optking {
	frozen_dihedral = ("
		10 6 3 2,
		12 15 17 21
	")
}

ee = energy('scf')
oeprop('DIPOLE', 'QUADRUPOLE', 'MULLIKEN_CHARGES')
f=open( 'psi4out.xyz', 'w' )
f.write( "28  " )
f.write( str(ee) + "\n" )
f.write( MOL.save_string_xyz() )
f.close()
--------------------------------------------------------------------------

  Memory set to   2.000 GiB by Python script.

*** tstart() called on cx1-3-4-4.cx1.hpc.ic.ac.uk
*** at Tue Jul  5 17:58:35 2016


         ---------------------------------------------------------
                                   SCF
            by Justin Turney, Rob Parrish, and Andy Simmonett
                              RHF Reference
                        1 Threads,   2000 MiB Core
         ---------------------------------------------------------

  ==> Geometry <==

    Molecular point group: c1
    Full point group: C1

    Geometry (in Angstrom), charge = 0, multiplicity = 1:

       Center              X                  Y                   Z               Mass       
    ------------   -----------------  -----------------  -----------------  -----------------
           H          1.318893189315    -2.226227988647     2.927423994519     1.007825032070
           C          1.308327189315    -1.829124988647     1.917116994519    12.000000000000
           C          2.126723189315    -0.542214988647     1.820858994519    12.000000000000
           H          1.706479189315    -2.593969988647     1.256942994519     1.007825032070
           H          0.271681189315    -1.658593988647     1.639474994519     1.007825032070
           C          2.127146189315     0.048709011353     0.409255994519    12.000000000000
           H          3.147595189315    -0.742875988647     2.129333994519     1.007825032070
           H          1.725641189315     0.191854011353     2.517972994519     1.007825032070
           C          0.737773189315     0.133734011353    -0.222947005481    12.000000000000
           H          2.565931189315     1.040010011353     0.430088994519     1.007825032070
           H          2.757488189315    -0.563354988647    -0.231905005481     1.007825032070
           C         -0.166923810685     1.191480011353     0.391819994519    12.000000000000
           H          0.829372189315     0.380488011353    -1.279589005481     1.007825032070
           H          0.235598189315    -0.830545988647    -0.188892005481     1.007825032070
           C         -1.656360810685     1.090073011353     0.112517994519    12.000000000000
           O          0.272694189315     2.082000011353     1.055231994519    15.994914619560
           C         -1.989171810685     0.430381011353    -1.234035005481    12.000000000000
           H         -2.053926810685     2.097365011353     0.144409994519     1.007825032070
           H         -2.121147810685     0.522234011353     0.916393994519     1.007825032070
           C         -1.224692810685    -0.877968988647    -1.444755005481    12.000000000000
           H         -3.058119810685     0.233858011353    -1.282462005481     1.007825032070
           H         -1.760536810685     1.110952011353    -2.050136005481     1.007825032070
           C         -1.547451810685    -1.544155988647    -2.781515005481    12.000000000000
           H         -1.456501810685    -1.563338988647    -0.633216005481     1.007825032070
           H         -0.156064810685    -0.683177988647    -1.385727005481     1.007825032070
           H         -2.604895810685    -1.780635988647    -2.856456005481     1.007825032070
           H         -1.293704810685    -0.895648988647    -3.615280005481     1.007825032070
           H         -0.992579810685    -2.469126988647    -2.901615005481     1.007825032070

  Running in c1 symmetry.

  Rotational constants: A =      0.05413  B =      0.02736  C =      0.02135 [cm^-1]
  Rotational constants: A =   1622.85250  B =    820.16846  C =    640.20183 [MHz]
  Nuclear repulsion =  570.629976824681648

  Charge       = 0
  Multiplicity = 1
  Electrons    = 80
  Nalpha       = 40
  Nbeta        = 40

  ==> Algorithm <==

  SCF Algorithm Type is DF.
  DIIS enabled.
  MOM disabled.
  Fractional occupation disabled.
  Guess Type is CORE.
  Energy threshold   = 1.00e-06
  Density threshold  = 1.00e-06
  Integral threshold = 0.00e+00

  ==> Primary Basis <==

  Basis Set: 6-31G*
    Number of shells: 96
    Number of basis function: 186
    Number of Cartesian functions: 186
    Spherical Harmonics?: false
    Max angular momentum: 2

  ==> Pre-Iterations <==

   -------------------------------------------------------
    Irrep   Nso     Nmo     Nalpha   Nbeta   Ndocc  Nsocc
   -------------------------------------------------------
     A        186     186       0       0       0       0
   -------------------------------------------------------
    Total     186     186      40      40      40       0
   -------------------------------------------------------

 OEINTS: Overlap, kinetic, potential, dipole, and quadrupole integrals
         stored in file 35.

  ==> Integral Setup <==

  ==> DFJK: Density-Fitted J/K Matrices <==

    J tasked:                  Yes
    K tasked:                  Yes
    wK tasked:                  No
    OpenMP threads:              1
    Integrals threads:           1
    Memory (MB):              1430
    Algorithm:                Core
    Integral Cache:           NONE
    Schwarz Cutoff:          1E-12
    Fitting Condition:       1E-12

   => Auxiliary Basis Set <=

  Basis Set: 
    Number of shells: 402
    Number of basis function: 1260
    Number of Cartesian functions: 1260
    Spherical Harmonics?: false
    Max angular momentum: 3

  Minimum eigenvalue in the overlap matrix is 2.6935158633E-03.
  Using Symmetric Orthogonalization.
  SCF Guess: Core (One-Electron) Hamiltonian.

  ==> Iterations <==

                           Total Energy        Delta E     RMS |[F,P]|

   @DF-RHF iter   1:  -274.53744460399378   -2.74537e+02   6.55559e-02 
   @DF-RHF iter   2:  -136.92194693528882    1.37615e+02   6.65558e-02 DIIS
   @DF-RHF iter   3:  -351.85352655743930   -2.14932e+02   4.29236e-02 DIIS
   @DF-RHF iter   4:  -336.75362358231394    1.50999e+01   5.14272e-02 DIIS
   @DF-RHF iter   5:  -416.42797550266948   -7.96744e+01   1.66438e-02 DIIS
   @DF-RHF iter   6:  -396.55201612568635    1.98760e+01   2.57052e-02 DIIS
   @DF-RHF iter   7:  -425.59997721639240   -2.90480e+01   4.95782e-03 DIIS
   @DF-RHF iter   8:  -425.99059548441858   -3.90618e-01   2.01884e-03 DIIS
   @DF-RHF iter   9:  -426.06607071069436   -7.54752e-02   7.70176e-04 DIIS
   @DF-RHF iter  10:  -426.07674045434192   -1.06697e-02   3.23058e-04 DIIS
   @DF-RHF iter  11:  -426.07896519209567   -2.22474e-03   1.08306e-04 DIIS
   @DF-RHF iter  12:  -426.07929700682405   -3.31815e-04   3.09931e-05 DIIS
   @DF-RHF iter  13:  -426.07933120005885   -3.41932e-05   1.13633e-05 DIIS
   @DF-RHF iter  14:  -426.07933672180832   -5.52175e-06   3.93777e-06 DIIS
   @DF-RHF iter  15:  -426.07933772750255   -1.00569e-06   1.72946e-06 DIIS
   @DF-RHF iter  16:  -426.07933799418902   -2.66686e-07   7.55456e-07 DIIS

  ==> Post-Iterations <==

    Orbital Energies (a.u.)
    -----------------------

    Doubly Occupied:                                                      

       1A    -20.550912     2A    -11.326394     3A    -11.231289  
       4A    -11.229882     5A    -11.223924     6A    -11.214450  
       7A    -11.213345     8A    -11.211763     9A    -11.211453  
      10A    -11.206715    11A     -1.395995    12A     -1.116029  
      13A     -1.075809    14A     -1.012163    15A     -1.001570  
      16A     -0.914382    17A     -0.896269    18A     -0.819550  
      19A     -0.787706    20A     -0.733828    21A     -0.683475  
      22A     -0.647864    23A     -0.633714    24A     -0.625253  
      25A     -0.605211    26A     -0.600415    27A     -0.585132  
      28A     -0.561835    29A     -0.551593    30A     -0.545901  
      31A     -0.530508    32A     -0.527827    33A     -0.491697  
      34A     -0.485811    35A     -0.478147    36A     -0.469135  
      37A     -0.463888    38A     -0.460418    39A     -0.410411  
      40A     -0.395883  

    Virtual:                                                              

      41A      0.161689    42A      0.201792    43A      0.237696  
      44A      0.243718    45A      0.259353    46A      0.287114  
      47A      0.290534    48A      0.296633    49A      0.308195  
      50A      0.309990    51A      0.319897    52A      0.326982  
      53A      0.336971    54A      0.338848    55A      0.342898  
      56A      0.354496    57A      0.363374    58A      0.374210  
      59A      0.392702    60A      0.394599    61A      0.409907  
      62A      0.418723    63A      0.431354    64A      0.452750  
      65A      0.458640    66A      0.481841    67A      0.524592  
      68A      0.553293    69A      0.709643    70A      0.717924  
      71A      0.724969    72A      0.725634    73A      0.736215  
      74A      0.747094    75A      0.760483    76A      0.799643  
      77A      0.805142    78A      0.839462    79A      0.869036  
      80A      0.895826    81A      0.914528    82A      0.923670  
      83A      0.947566    84A      0.953958    85A      0.974865  
      86A      0.980979    87A      0.994959    88A      1.002592  
      89A      1.013236    90A      1.053909    91A      1.075782  
      92A      1.084662    93A      1.115886    94A      1.123395  
      95A      1.140136    96A      1.148101    97A      1.163307  
      98A      1.169873    99A      1.178676   100A      1.180516  
     101A      1.191568   102A      1.198297   103A      1.202509  
     104A      1.207623   105A      1.215741   106A      1.226190  
     107A      1.230469   108A      1.241261   109A      1.254503  
     110A      1.263053   111A      1.269468   112A      1.299275  
     113A      1.329117   114A      1.352236   115A      1.404344  
     116A      1.408180   117A      1.426436   118A      1.455134  
     119A      1.524695   120A      1.635523   121A      1.657687  
     122A      1.704258   123A      1.721645   124A      1.756209  
     125A      1.774021   126A      1.816677   127A      1.844614  
     128A      1.878562   129A      1.894939   130A      1.957930  
     131A      1.990096   132A      2.000631   133A      2.061839  
     134A      2.085192   135A      2.106549   136A      2.113320  
     137A      2.152028   138A      2.165067   139A      2.205532  
     140A      2.217945   141A      2.241485   142A      2.262758  
     143A      2.283230   144A      2.293221   145A      2.309676  
     146A      2.327942   147A      2.347032   148A      2.373174  
     149A      2.388847   150A      2.410754   151A      2.496554  
     152A      2.499256   153A      2.526941   154A      2.583054  
     155A      2.588885   156A      2.638676   157A      2.662905  
     158A      2.690100   159A      2.702323   160A      2.719066  
     161A      2.729210   162A      2.749531   163A      2.769064  
     164A      2.777539   165A      2.817090   166A      2.885195  
     167A      2.906477   168A      2.963615   169A      2.989666  
     170A      2.994840   171A      3.030267   172A      3.099954  
     173A      3.111306   174A      3.213585   175A      3.397227  
     176A      3.425626   177A      4.459871   178A      4.565770  
     179A      4.611935   180A      4.665800   181A      4.731743  
     182A      4.810807   183A      4.864409   184A      4.968290  
     185A      4.979920   186A      5.095681  

    Final Occupation by Irrep:
              A 
    DOCC [    40 ]

  Energy converged.

  @DF-RHF Final Energy:  -426.07933799418902

   => Energetics <=

    Nuclear Repulsion Energy =            570.6299768246816484
    One-Electron Energy =               -1709.1638003965495045
    Two-Electron Energy =                 712.4544855776791792
    DFT Exchange-Correlation Energy =       0.0000000000000000
    Empirical Dispersion Energy =           0.0000000000000000
    PCM Polarization Energy =               0.0000000000000000
    EFP Energy =                            0.0000000000000000
    Total Energy =                       -426.0793379941885632

    Alert: EFP and PCM quantities not currently incorporated into SCF psivars.

Properties will be evaluated at   0.000000,   0.000000,   0.000000 Bohr
  ==> Properties <==


Properties computed using the SCF density matrix

  Nuclear Dipole Moment: (a.u.)
     X:    -0.8788      Y:    -9.7685      Z:    -4.1791

  Electronic Dipole Moment: (a.u.)
     X:     0.5466      Y:     8.9638      Z:     3.5891

  Dipole Moment: (a.u.)
     X:    -0.3322      Y:    -0.8047      Z:    -0.5900     Total:     1.0517

  Dipole Moment: (Debye)
     X:    -0.8445      Y:    -2.0454      Z:    -1.4996     Total:     2.6731


  Saving occupied orbitals to File 180.

*** tstop() called on cx1-3-4-4.cx1.hpc.ic.ac.uk at Tue Jul  5 17:59:14 2016
Module time:
	user time   =      37.88 seconds =       0.63 minutes
	system time =       0.34 seconds =       0.01 minutes
	total time  =         39 seconds =       0.65 minutes
Total time:
	user time   =      37.88 seconds =       0.63 minutes
	system time =       0.34 seconds =       0.01 minutes
	total time  =         39 seconds =       0.65 minutes


Properties will be evaluated at   0.000000,   0.000000,   0.000000 Bohr

Properties computed using the  density matrix

  Nuclear Dipole Moment: (a.u.)
     X:    -0.8788      Y:    -9.7685      Z:    -4.1791

  Electronic Dipole Moment: (a.u.)
     X:     0.5466      Y:     8.9638      Z:     3.5891

  Dipole Moment: (a.u.)
     X:    -0.3322      Y:    -0.8047      Z:    -0.5900     Total:     1.0517

  Dipole Moment: (Debye)
     X:    -0.8445      Y:    -2.0454      Z:    -1.4996     Total:     2.6731

  Quadrupole Moment: (Debye Ang)
    XX:   -63.7494     YY:   -72.4059     ZZ:   -67.4625
    XY:    -2.5696     XZ:    -1.5569     YZ:    -5.0430

  Traceless Quadrupole Moment: (Debye Ang)
    XX:     4.1232     YY:    -4.5333     ZZ:     0.4101
    XY:    -2.5696     XZ:    -1.5569     YZ:    -5.0430

  Mulliken Charges: (a.u.)
   Center  Symbol    Alpha    Beta     Spin     Total
       1     H     0.41600  0.41600  0.00000  0.16801
       2     C     3.24393  3.24393  0.00000 -0.48785
       3     C     3.15806  3.15806  0.00000 -0.31613
       4     H     0.42299  0.42299  0.00000  0.15402
       5     H     0.42639  0.42639  0.00000  0.14721
       6     C     3.14246  3.14246  0.00000 -0.28493
       7     H     0.41906  0.41906  0.00000  0.16189
       8     H     0.40921  0.40921  0.00000  0.18158
       9     C     3.26765  3.26765  0.00000 -0.53531
      10     H     0.40643  0.40643  0.00000  0.18715
      11     H     0.42392  0.42392  0.00000  0.15217
      12     C     2.71542  2.71542  0.00000  0.56915
      13     H     0.39253  0.39253  0.00000  0.21495
      14     H     0.38441  0.38441  0.00000  0.23118
      15     C     3.20636  3.20636  0.00000 -0.41273
      16     O     4.26847  4.26847  0.00000 -0.53695
      17     C     3.16125  3.16125  0.00000 -0.32250
      18     H     0.39695  0.39695  0.00000  0.20609
      19     H     0.40375  0.40375  0.00000  0.19249
      20     C     3.18001  3.18001  0.00000 -0.36001
      21     H     0.41325  0.41325  0.00000  0.17350
      22     H     0.41754  0.41754  0.00000  0.16492
      23     C     3.23455  3.23455  0.00000 -0.46910
      24     H     0.42224  0.42224  0.00000  0.15553
      25     H     0.39982  0.39982  0.00000  0.20035
      26     H     0.42333  0.42333  0.00000  0.15334
      27     H     0.42339  0.42339  0.00000  0.15321
      28     H     0.42062  0.42062  0.00000  0.15876

   Total alpha = 40.00000, Total beta = 40.00000, Total charge = -0.00000


*** PSI4 exiting successfully. Buy a developer a beer!
