    -----------------------------------------------------------------------
          Psi4: An Open-Source Ab Initio Electronic Structure Package
                              Psi4 (no tag) Driver

                          Git: Rev {detached?}  

    J. M. Turney, A. C. Simmonett, R. M. Parrish, E. G. Hohenstein,
    F. A. Evangelista, J. T. Fermann, B. J. Mintz, L. A. Burns, J. J. Wilke,
    M. L. Abrams, N. J. Russ, M. L. Leininger, C. L. Janssen, E. T. Seidl,
    W. D. Allen, H. F. Schaefer, R. A. King, E. F. Valeev, C. D. Sherrill,
    and T. D. Crawford, WIREs Comput. Mol. Sci. 2, 556-565 (2012)
    (doi: 10.1002/wcms.93)

                         Additional Contributions by
    A. E. DePrince, M. Saitow, U. Bozkaya, A. Yu. Sokolov
    -----------------------------------------------------------------------


    Psi4 started on: Tue Jul  5 16:34:48 2016

    Process ID:  25700
    PSI4DATADIR: /export131/home/mjharvey/miniconda3/share
    Memory level set to 256.000 MB

  ==> Input File <==

--------------------------------------------------------------------------
set {
	reference rhf
	basis 6-31G*
}


set_num_threads( 1 )
memory 2 gb

molecule MOL {
0 1

H	 -2.798360	 -0.862255	 -0.071053
N	 -1.863561	 -0.715187	 0.256814
C	 -1.344686	 0.554728	 -0.219830
H	 -1.300452	 -1.461917	 -0.101532
C	 -0.873568	 0.415838	 -1.652272
H	 -2.068237	 1.369785	 -0.173361
H	 -0.496711	 0.836492	 0.396877
O	 0.212886	 -0.465224	 -1.673148
H	 -1.678949	 0.031922	 -2.278058
H	 -0.577066	 1.389617	 -2.035775
C	 0.802804	 -0.619948	 -2.924399
H	 1.621862	 -1.318002	 -2.816874
H	 0.096214	 -1.016735	 -3.651222
H	 1.190961	 0.324368	 -3.300445

	symmetry c1
}
set optking {
	frozen_dihedral = ("
		8 5 3 6,
		5 8 11 13,
		11 8 5 3
	")
}

ee = energy('scf')
oeprop('DIPOLE', 'QUADRUPOLE', 'MULLIKEN_CHARGES')
f=open( 'psi4out.xyz', 'w' )
f.write( "14  " )
f.write( str(ee) + "\n" )
f.write( MOL.save_string_xyz() )
f.close()
--------------------------------------------------------------------------

  Memory set to   2.000 GiB by Python script.

*** tstart() called on cx1-3-6-4.cx1.hpc.ic.ac.uk
*** at Tue Jul  5 16:34:48 2016


         ---------------------------------------------------------
                                   SCF
            by Justin Turney, Rob Parrish, and Andy Simmonett
                              RHF Reference
                        1 Threads,   2000 MiB Core
         ---------------------------------------------------------

  ==> Geometry <==

    Molecular point group: c1
    Full point group: C1

    Geometry (in Angstrom), charge = 0, multiplicity = 1:

       Center              X                  Y                   Z               Mass       
    ------------   -----------------  -----------------  -----------------  -----------------
           H         -2.189133575257    -0.676279660103     1.192659932044     1.007825032070
           N         -1.254334575257    -0.529211660103     1.520526932044    14.003074004780
           C         -0.735459575257     0.740703339897     1.043882932044    12.000000000000
           H         -0.691225575257    -1.275941660103     1.162180932044     1.007825032070
           C         -0.264341575257     0.601813339897    -0.388559067956    12.000000000000
           H         -1.459010575257     1.555760339897     1.090351932044     1.007825032070
           H          0.112515424743     1.022467339897     1.660589932044     1.007825032070
           O          0.822112424743    -0.279248660103    -0.409435067956    15.994914619560
           H         -1.069722575257     0.217897339897    -1.014345067956     1.007825032070
           H          0.032160424743     1.575592339897    -0.772062067956     1.007825032070
           C          1.412030424743    -0.433972660103    -1.660686067956    12.000000000000
           H          2.231088424743    -1.132026660103    -1.553161067956     1.007825032070
           H          0.705440424743    -0.830759660103    -2.387509067956     1.007825032070
           H          1.800187424743     0.510343339897    -2.036732067956     1.007825032070

  Running in c1 symmetry.

  Rotational constants: A =      0.43916  B =      0.09075  C =      0.08264 [cm^-1]
  Rotational constants: A =  13165.67006  B =   2720.59131  C =   2477.57554 [MHz]
  Nuclear repulsion =  195.197593087928198

  Charge       = 0
  Multiplicity = 1
  Electrons    = 42
  Nalpha       = 21
  Nbeta        = 21

  ==> Algorithm <==

  SCF Algorithm Type is DF.
  DIIS enabled.
  MOM disabled.
  Fractional occupation disabled.
  Guess Type is CORE.
  Energy threshold   = 1.00e-06
  Density threshold  = 1.00e-06
  Integral threshold = 0.00e+00

  ==> Primary Basis <==

  Basis Set: 6-31G*
    Number of shells: 48
    Number of basis function: 93
    Number of Cartesian functions: 93
    Spherical Harmonics?: false
    Max angular momentum: 2

  ==> Pre-Iterations <==

   -------------------------------------------------------
    Irrep   Nso     Nmo     Nalpha   Nbeta   Ndocc  Nsocc
   -------------------------------------------------------
     A         93      93       0       0       0       0
   -------------------------------------------------------
    Total      93      93      21      21      21       0
   -------------------------------------------------------

 OEINTS: Overlap, kinetic, potential, dipole, and quadrupole integrals
         stored in file 35.

  ==> Integral Setup <==

  ==> DFJK: Density-Fitted J/K Matrices <==

    J tasked:                  Yes
    K tasked:                  Yes
    wK tasked:                  No
    OpenMP threads:              1
    Integrals threads:           1
    Memory (MB):              1430
    Algorithm:                Core
    Integral Cache:           NONE
    Schwarz Cutoff:          1E-12
    Fitting Condition:       1E-12

   => Auxiliary Basis Set <=

  Basis Set: 
    Number of shells: 201
    Number of basis function: 630
    Number of Cartesian functions: 630
    Spherical Harmonics?: false
    Max angular momentum: 3

  Minimum eigenvalue in the overlap matrix is 4.5717781004E-03.
  Using Symmetric Orthogonalization.
  SCF Guess: Core (One-Electron) Hamiltonian.

  ==> Iterations <==

                           Total Energy        Delta E     RMS |[F,P]|

   @DF-RHF iter   1:  -201.71424473446180   -2.01714e+02   7.99586e-02 
   @DF-RHF iter   2:  -154.97152490849206    4.67427e+01   6.71377e-02 DIIS
   @DF-RHF iter   3:  -211.83442839098157   -5.68629e+01   6.18555e-02 DIIS
   @DF-RHF iter   4:  -238.65419168543636   -2.68198e+01   4.14136e-02 DIIS
   @DF-RHF iter   5:  -247.81104991689344   -9.15686e+00   8.26859e-03 DIIS
   @DF-RHF iter   6:  -248.07281156602212   -2.61762e-01   3.38184e-03 DIIS
   @DF-RHF iter   7:  -248.11840948211599   -4.55979e-02   7.54193e-04 DIIS
   @DF-RHF iter   8:  -248.12098681658719   -2.57733e-03   2.34713e-04 DIIS
   @DF-RHF iter   9:  -248.12131061304942   -3.23796e-04   6.14967e-05 DIIS
   @DF-RHF iter  10:  -248.12133821246434   -2.75994e-05   2.34162e-05 DIIS
   @DF-RHF iter  11:  -248.12134212004437   -3.90758e-06   7.55095e-06 DIIS
   @DF-RHF iter  12:  -248.12134250750537   -3.87461e-07   2.41141e-06 DIIS
   @DF-RHF iter  13:  -248.12134254867280   -4.11674e-08   4.12697e-07 DIIS

  ==> Post-Iterations <==

    Orbital Energies (a.u.)
    -----------------------

    Doubly Occupied:                                                      

       1A    -20.562427     2A    -15.526272     3A    -11.270324  
       4A    -11.267941     5A    -11.241679     6A     -1.386477  
       7A     -1.175143     8A     -0.999588     9A     -0.910333  
      10A     -0.823443    11A     -0.686212    12A     -0.675405  
      13A     -0.646178    14A     -0.626359    15A     -0.588646  
      16A     -0.555337    17A     -0.522527    18A     -0.503833  
      19A     -0.482692    20A     -0.422773    21A     -0.374794  

    Virtual:                                                              

      22A      0.230521    23A      0.253966    24A      0.279635  
      25A      0.301871    26A      0.308589    27A      0.316760  
      28A      0.323941    29A      0.332299    30A      0.350572  
      31A      0.377282    32A      0.431312    33A      0.442582  
      34A      0.452507    35A      0.728114    36A      0.754711  
      37A      0.767813    38A      0.803598    39A      0.820491  
      40A      0.839931    41A      0.868092    42A      0.912993  
      43A      0.983579    44A      1.013131    45A      1.080736  
      46A      1.087450    47A      1.110883    48A      1.136680  
      49A      1.152057    50A      1.160820    51A      1.173260  
      52A      1.212100    53A      1.215427    54A      1.233114  
      55A      1.254064    56A      1.262581    57A      1.329716  
      58A      1.404219    59A      1.445438    60A      1.572549  
      61A      1.650727    62A      1.679109    63A      1.749802  
      64A      1.777492    65A      1.805275    66A      1.938571  
      67A      2.001992    68A      2.086620    69A      2.210391  
      70A      2.234908    71A      2.353686    72A      2.370615  
      73A      2.393190    74A      2.432264    75A      2.446040  
      76A      2.471901    77A      2.514294    78A      2.589626  
      79A      2.629669    80A      2.702604    81A      2.751320  
      82A      2.799567    83A      2.882134    84A      2.907504  
      85A      3.008720    86A      3.087650    87A      3.187545  
      88A      3.334272    89A      4.220455    90A      4.380384  
      91A      4.653372    92A      4.710524    93A      4.886775  

    Final Occupation by Irrep:
              A 
    DOCC [    21 ]

  Energy converged.

  @DF-RHF Final Energy:  -248.12134254867280

   => Energetics <=

    Nuclear Repulsion Energy =            195.1975930879281975
    One-Electron Energy =                -724.1410374012361899
    Two-Electron Energy =                 280.8221017646348514
    DFT Exchange-Correlation Energy =       0.0000000000000000
    Empirical Dispersion Energy =           0.0000000000000000
    PCM Polarization Energy =               0.0000000000000000
    EFP Energy =                            0.0000000000000000
    Total Energy =                       -248.1213425486731126

    Alert: EFP and PCM quantities not currently incorporated into SCF psivars.

Properties will be evaluated at   0.000000,   0.000000,   0.000000 Bohr
  ==> Properties <==


Properties computed using the SCF density matrix

  Nuclear Dipole Moment: (a.u.)
     X:    -0.4871      Y:     0.9068      Z:    -2.4982

  Electronic Dipole Moment: (a.u.)
     X:     0.3376      Y:    -0.6628      Z:     1.4267

  Dipole Moment: (a.u.)
     X:    -0.1495      Y:     0.2439      Z:    -1.0715     Total:     1.1091

  Dipole Moment: (Debye)
     X:    -0.3800      Y:     0.6200      Z:    -2.7236     Total:     2.8190


  Saving occupied orbitals to File 180.

*** tstop() called on cx1-3-6-4.cx1.hpc.ic.ac.uk at Tue Jul  5 16:34:54 2016
Module time:
	user time   =       4.82 seconds =       0.08 minutes
	system time =       0.04 seconds =       0.00 minutes
	total time  =          6 seconds =       0.10 minutes
Total time:
	user time   =       4.82 seconds =       0.08 minutes
	system time =       0.04 seconds =       0.00 minutes
	total time  =          6 seconds =       0.10 minutes


Properties will be evaluated at   0.000000,   0.000000,   0.000000 Bohr

Properties computed using the  density matrix

  Nuclear Dipole Moment: (a.u.)
     X:    -0.4871      Y:     0.9068      Z:    -2.4982

  Electronic Dipole Moment: (a.u.)
     X:     0.3376      Y:    -0.6628      Z:     1.4267

  Dipole Moment: (a.u.)
     X:    -0.1495      Y:     0.2439      Z:    -1.0715     Total:     1.1091

  Dipole Moment: (Debye)
     X:    -0.3800      Y:     0.6200      Z:    -2.7236     Total:     2.8190

  Quadrupole Moment: (Debye Ang)
    XX:   -30.0389     YY:   -30.5592     ZZ:   -36.2120
    XY:    -0.4646     XZ:     0.4044     YZ:     1.7081

  Traceless Quadrupole Moment: (Debye Ang)
    XX:     2.2311     YY:     1.7108     ZZ:    -3.9419
    XY:    -0.4646     XZ:     0.4044     YZ:     1.7081

  Mulliken Charges: (a.u.)
   Center  Symbol    Alpha    Beta     Spin     Total
       1     H     0.33667  0.33667  0.00000  0.32666
       2     N     3.92328  3.92328  0.00000 -0.84656
       3     C     3.06903  3.06903  0.00000 -0.13807
       4     H     0.32145  0.32145  0.00000  0.35710
       5     C     2.99804  2.99804  0.00000  0.00392
       6     H     0.41971  0.41971  0.00000  0.16059
       7     H     0.40957  0.40957  0.00000  0.18085
       8     O     4.30774  4.30774  0.00000 -0.61549
       9     H     0.43444  0.43444  0.00000  0.13112
      10     H     0.43193  0.43193  0.00000  0.13614
      11     C     3.07916  3.07916  0.00000 -0.15833
      12     H     0.41099  0.41099  0.00000  0.17801
      13     H     0.42982  0.42982  0.00000  0.14037
      14     H     0.42816  0.42816  0.00000  0.14368

   Total alpha = 21.00000, Total beta = 21.00000, Total charge =  0.00000


*** PSI4 exiting successfully. Buy a developer a beer!
