    -----------------------------------------------------------------------
          Psi4: An Open-Source Ab Initio Electronic Structure Package
                              Psi4 (no tag) Driver

                          Git: Rev {detached?}  

    J. M. Turney, A. C. Simmonett, R. M. Parrish, E. G. Hohenstein,
    F. A. Evangelista, J. T. Fermann, B. J. Mintz, L. A. Burns, J. J. Wilke,
    M. L. Abrams, N. J. Russ, M. L. Leininger, C. L. Janssen, E. T. Seidl,
    W. D. Allen, H. F. Schaefer, R. A. King, E. F. Valeev, C. D. Sherrill,
    and T. D. Crawford, WIREs Comput. Mol. Sci. 2, 556-565 (2012)
    (doi: 10.1002/wcms.93)

                         Additional Contributions by
    A. E. DePrince, M. Saitow, U. Bozkaya, A. Yu. Sokolov
    -----------------------------------------------------------------------


    Psi4 started on: Tue Jul  5 16:53:47 2016

    Process ID:  14748
    PSI4DATADIR: /export131/home/mjharvey/miniconda3/share
    Memory level set to 256.000 MB

  ==> Input File <==

--------------------------------------------------------------------------
set {
	reference rhf
	basis 6-31G*
}


set_num_threads( 1 )
memory 2 gb

molecule MOL {
0 1

H	 -0.000158	 1.970498	 0.756846
O	 -0.000074	 1.880206	 -0.189275
C	 -0.000015	 0.544847	 -0.545111
C	 -0.077365	 -0.325360	 0.704987
C	 1.201611	 0.244982	 -1.435152
H	 -0.890426	 0.358382	 -1.126921
F	 -1.183655	 -0.054968	 1.364195
F	 -0.077015	 -1.610169	 0.419286
F	 0.943192	 -0.081667	 1.511630
F	 1.140140	 0.981432	 -2.523913
F	 1.249066	 -1.018693	 -1.800187
F	 2.332489	 0.537590	 -0.813001

	symmetry c1
}
set optking {
	frozen_dihedral = ("
		7 4 3 6
	")
}

ee = energy('scf')
oeprop('DIPOLE', 'QUADRUPOLE', 'MULLIKEN_CHARGES')
f=open( 'psi4out.xyz', 'w' )
f.write( "12  " )
f.write( str(ee) + "\n" )
f.write( MOL.save_string_xyz() )
f.close()
--------------------------------------------------------------------------

  Memory set to   2.000 GiB by Python script.

*** tstart() called on cx1-3-4-4.cx1.hpc.ic.ac.uk
*** at Tue Jul  5 16:53:48 2016


         ---------------------------------------------------------
                                   SCF
            by Justin Turney, Rob Parrish, and Andy Simmonett
                              RHF Reference
                        1 Threads,   2000 MiB Core
         ---------------------------------------------------------

  ==> Geometry <==

    Molecular point group: c1
    Full point group: C1

    Geometry (in Angstrom), charge = 0, multiplicity = 1:

       Center              X                  Y                   Z               Mass       
    ------------   -----------------  -----------------  -----------------  -----------------
           H         -0.573161346005     1.885299502967     1.076478586551     1.007825032070
           O         -0.573077346005     1.795007502967     0.130357586551    15.994914619560
           C         -0.573018346005     0.459648502967    -0.225478413449    12.000000000000
           C         -0.650368346005    -0.410558497033     1.024619586551    12.000000000000
           C          0.628607653995     0.159783502967    -1.115519413449    12.000000000000
           H         -1.463429346005     0.273183502967    -0.807288413449     1.007825032070
           F         -1.756658346005    -0.140166497033     1.683827586551    18.998403224000
           F         -0.650018346005    -1.695367497033     0.738918586551    18.998403224000
           F          0.370188653995    -0.166865497033     1.831262586551    18.998403224000
           F          0.567136653995     0.896233502967    -2.204280413449    18.998403224000
           F          0.676062653995    -1.103891497033    -1.480554413449    18.998403224000
           F          1.759485653995     0.452391502967    -0.493368413449    18.998403224000

  Running in c1 symmetry.

  Rotational constants: A =      0.07207  B =      0.03579  C =      0.03162 [cm^-1]
  Rotational constants: A =   2160.55634  B =   1073.04720  C =    947.97490 [MHz]
  Nuclear repulsion =  670.315253253151127

  Charge       = 0
  Multiplicity = 1
  Electrons    = 82
  Nalpha       = 41
  Nbeta        = 41

  ==> Algorithm <==

  SCF Algorithm Type is DF.
  DIIS enabled.
  MOM disabled.
  Fractional occupation disabled.
  Guess Type is CORE.
  Energy threshold   = 1.00e-06
  Density threshold  = 1.00e-06
  Integral threshold = 0.00e+00

  ==> Primary Basis <==

  Basis Set: 6-31G*
    Number of shells: 64
    Number of basis function: 154
    Number of Cartesian functions: 154
    Spherical Harmonics?: false
    Max angular momentum: 2

  ==> Pre-Iterations <==

   -------------------------------------------------------
    Irrep   Nso     Nmo     Nalpha   Nbeta   Ndocc  Nsocc
   -------------------------------------------------------
     A        154     154       0       0       0       0
   -------------------------------------------------------
    Total     154     154      41      41      41       0
   -------------------------------------------------------

 OEINTS: Overlap, kinetic, potential, dipole, and quadrupole integrals
         stored in file 35.

  ==> Integral Setup <==

  ==> DFJK: Density-Fitted J/K Matrices <==

    J tasked:                  Yes
    K tasked:                  Yes
    wK tasked:                  No
    OpenMP threads:              1
    Integrals threads:           1
    Memory (MB):              1430
    Algorithm:                Core
    Integral Cache:           NONE
    Schwarz Cutoff:          1E-12
    Fitting Condition:       1E-12

   => Auxiliary Basis Set <=

  Basis Set: 
    Number of shells: 258
    Number of basis function: 860
    Number of Cartesian functions: 860
    Spherical Harmonics?: false
    Max angular momentum: 3

  Minimum eigenvalue in the overlap matrix is 1.6525152231E-03.
  Using Symmetric Orthogonalization.
  SCF Guess: Core (One-Electron) Hamiltonian.

  ==> Iterations <==

                           Total Energy        Delta E     RMS |[F,P]|

   @DF-RHF iter   1:  -698.88449960257105   -6.98884e+02   6.87185e-02 
   @DF-RHF iter   2:  -533.42075722663606    1.65464e+02   8.64654e-02 DIIS
   @DF-RHF iter   3:  -728.31654002410880   -1.94896e+02   5.43872e-02 DIIS
   @DF-RHF iter   4:  -751.20833313519290   -2.28918e+01   4.22845e-02 DIIS
   @DF-RHF iter   5:  -768.15941106540697   -1.69511e+01   3.22955e-02 DIIS
   @DF-RHF iter   6:  -785.19288219079533   -1.70335e+01   1.10298e-02 DIIS
   @DF-RHF iter   7:  -786.19808062599930   -1.00520e+00   2.72373e-03 DIIS
   @DF-RHF iter   8:  -786.25958644319883   -6.15058e-02   1.13396e-03 DIIS
   @DF-RHF iter   9:  -786.27159181371405   -1.20054e-02   2.02327e-04 DIIS
   @DF-RHF iter  10:  -786.27229909415462   -7.07280e-04   7.95733e-05 DIIS
   @DF-RHF iter  11:  -786.27237692340088   -7.78292e-05   2.42428e-05 DIIS
   @DF-RHF iter  12:  -786.27238456786006   -7.64446e-06   5.27706e-06 DIIS
   @DF-RHF iter  13:  -786.27238504135005   -4.73490e-07   1.43199e-06 DIIS
   @DF-RHF iter  14:  -786.27238507897175   -3.76217e-08   4.65732e-07 DIIS

  ==> Post-Iterations <==

    Orbital Energies (a.u.)
    -----------------------

    Doubly Occupied:                                                      

       1A    -26.372911     2A    -26.368557     3A    -26.367321  
       4A    -26.358447     5A    -26.352697     6A    -26.349237  
       7A    -20.614654     8A    -11.534696     9A    -11.520910  
      10A    -11.348825    11A     -1.771311    12A     -1.753932  
      13A     -1.668624    14A     -1.665457    15A     -1.653019  
      16A     -1.646925    17A     -1.434332    18A     -1.102255  
      19A     -0.999201    20A     -0.937432    21A     -0.869840  
      22A     -0.864117    23A     -0.856130    24A     -0.840647  
      25A     -0.831429    26A     -0.802842    27A     -0.747356  
      28A     -0.735321    29A     -0.718675    30A     -0.716880  
      31A     -0.701714    32A     -0.689883    33A     -0.687271  
      34A     -0.670257    35A     -0.669036    36A     -0.665587  
      37A     -0.652093    38A     -0.650493    39A     -0.618622  
      40A     -0.548260    41A     -0.502696  

    Virtual:                                                              

      42A      0.212140    43A      0.245534    44A      0.302751  
      45A      0.342439    46A      0.351093    47A      0.394888  
      48A      0.450480    49A      0.464431    50A      0.468426  
      51A      0.525438    52A      0.538927    53A      0.661641  
      54A      0.674971    55A      0.713660    56A      0.734623  
      57A      0.744956    58A      0.794145    59A      0.805916  
      60A      0.876082    61A      0.901401    62A      0.943528  
      63A      1.058181    64A      1.090952    65A      1.143159  
      66A      1.198398    67A      1.224806    68A      1.255748  
      69A      1.269995    70A      1.311403    71A      1.347888  
      72A      1.350109    73A      1.380400    74A      1.399923  
      75A      1.452653    76A      1.458513    77A      1.482953  
      78A      1.518862    79A      1.577256    80A      1.590035  
      81A      1.599024    82A      1.606465    83A      1.624540  
      84A      1.631053    85A      1.651863    86A      1.658921  
      87A      1.662592    88A      1.673356    89A      1.702706  
      90A      1.734470    91A      1.741284    92A      1.812466  
      93A      1.867702    94A      1.880159    95A      1.927017  
      96A      1.939735    97A      1.968975    98A      1.978489  
      99A      1.999605   100A      2.078940   101A      2.094337  
     102A      2.110131   103A      2.117597   104A      2.122565  
     105A      2.145259   106A      2.153394   107A      2.178136  
     108A      2.186459   109A      2.269321   110A      2.296650  
     111A      2.323843   112A      2.330954   113A      2.337593  
     114A      2.374478   115A      2.389400   116A      2.392178  
     117A      2.407163   118A      2.421149   119A      2.447852  
     120A      2.486165   121A      2.521145   122A      2.552246  
     123A      2.577023   124A      2.616285   125A      2.670086  
     126A      2.696214   127A      2.717630   128A      2.857568  
     129A      2.879857   130A      2.895127   131A      2.920373  
     132A      3.058049   133A      3.150699   134A      3.176455  
     135A      3.196017   136A      3.233830   137A      3.269979  
     138A      3.343738   139A      3.397100   140A      3.414861  
     141A      3.447181   142A      3.455318   143A      3.458311  
     144A      3.480082   145A      4.195682   146A      4.632400  
     147A      4.756152   148A      4.814184   149A      5.041148  
     150A      5.093373   151A      5.269530   152A      5.650403  
     153A      5.801732   154A      6.365885  

    Final Occupation by Irrep:
              A 
    DOCC [    41 ]

  Energy converged.

  @DF-RHF Final Energy:  -786.27238507897175

   => Energetics <=

    Nuclear Repulsion Energy =            670.3152532531511270
    One-Electron Energy =               -2427.4556202915873655
    Two-Electron Energy =                 970.8679819594619858
    DFT Exchange-Correlation Energy =       0.0000000000000000
    Empirical Dispersion Energy =           0.0000000000000000
    PCM Polarization Energy =               0.0000000000000000
    EFP Energy =                            0.0000000000000000
    Total Energy =                       -786.2723850789741391

    Alert: EFP and PCM quantities not currently incorporated into SCF psivars.

Properties will be evaluated at   0.000000,   0.000000,   0.000000 Bohr
  ==> Properties <==


Properties computed using the SCF density matrix

  Nuclear Dipole Moment: (a.u.)
     X:    -2.8235      Y:     3.6902      Z:     0.1815

  Electronic Dipole Moment: (a.u.)
     X:     2.2583      Y:    -3.6303      Z:     0.1727

  Dipole Moment: (a.u.)
     X:    -0.5652      Y:     0.0599      Z:     0.3541     Total:     0.6696

  Dipole Moment: (Debye)
     X:    -1.4365      Y:     0.1523      Z:     0.9001     Total:     1.7020


  Saving occupied orbitals to File 180.

*** tstop() called on cx1-3-4-4.cx1.hpc.ic.ac.uk at Tue Jul  5 16:54:06 2016
Module time:
	user time   =      17.62 seconds =       0.29 minutes
	system time =       0.23 seconds =       0.00 minutes
	total time  =         18 seconds =       0.30 minutes
Total time:
	user time   =      17.62 seconds =       0.29 minutes
	system time =       0.23 seconds =       0.00 minutes
	total time  =         18 seconds =       0.30 minutes


Properties will be evaluated at   0.000000,   0.000000,   0.000000 Bohr

Properties computed using the  density matrix

  Nuclear Dipole Moment: (a.u.)
     X:    -2.8235      Y:     3.6902      Z:     0.1815

  Electronic Dipole Moment: (a.u.)
     X:     2.2583      Y:    -3.6303      Z:     0.1727

  Dipole Moment: (a.u.)
     X:    -0.5652      Y:     0.0599      Z:     0.3541     Total:     0.6696

  Dipole Moment: (Debye)
     X:    -1.4365      Y:     0.1523      Z:     0.9001     Total:     1.7020

  Quadrupole Moment: (Debye Ang)
    XX:   -52.9371     YY:   -55.1787     ZZ:   -52.5956
    XY:    -0.3088     XZ:     1.1742     YZ:     3.5332

  Traceless Quadrupole Moment: (Debye Ang)
    XX:     0.6334     YY:    -1.6082     ZZ:     0.9749
    XY:    -0.3088     XZ:     1.1742     YZ:     3.5332

  Mulliken Charges: (a.u.)
   Center  Symbol    Alpha    Beta     Spin     Total
       1     H     0.26330  0.26330  0.00000  0.47340
       2     O     4.36957  4.36957  0.00000 -0.73915
       3     C     3.02123  3.02123  0.00000 -0.04246
       4     C     2.46933  2.46933  0.00000  1.06134
       5     C     2.43851  2.43851  0.00000  1.12298
       6     H     0.38372  0.38372  0.00000  0.23255
       7     F     4.67657  4.67657  0.00000 -0.35315
       8     F     4.67212  4.67212  0.00000 -0.34424
       9     F     4.67681  4.67681  0.00000 -0.35363
      10     F     4.67585  4.67585  0.00000 -0.35170
      11     F     4.67496  4.67496  0.00000 -0.34993
      12     F     4.67801  4.67801  0.00000 -0.35602

   Total alpha = 41.00000, Total beta = 41.00000, Total charge =  0.00000


*** PSI4 exiting successfully. Buy a developer a beer!
