    -----------------------------------------------------------------------
          Psi4: An Open-Source Ab Initio Electronic Structure Package
                              Psi4 (no tag) Driver

                          Git: Rev {detached?}  

    J. M. Turney, A. C. Simmonett, R. M. Parrish, E. G. Hohenstein,
    F. A. Evangelista, J. T. Fermann, B. J. Mintz, L. A. Burns, J. J. Wilke,
    M. L. Abrams, N. J. Russ, M. L. Leininger, C. L. Janssen, E. T. Seidl,
    W. D. Allen, H. F. Schaefer, R. A. King, E. F. Valeev, C. D. Sherrill,
    and T. D. Crawford, WIREs Comput. Mol. Sci. 2, 556-565 (2012)
    (doi: 10.1002/wcms.93)

                         Additional Contributions by
    A. E. DePrince, M. Saitow, U. Bozkaya, A. Yu. Sokolov
    -----------------------------------------------------------------------


    Psi4 started on: Tue Jul  5 16:26:13 2016

    Process ID:  27776
    PSI4DATADIR: /export131/home/mjharvey/miniconda3/share
    Memory level set to 256.000 MB

  ==> Input File <==

--------------------------------------------------------------------------
set {
	reference rhf
	basis 6-31G*
}


set_num_threads( 1 )
memory 2 gb

molecule MOL {
0 1

H	 -0.132624	 -0.688078	 -0.861997
N	 -0.626943	 -0.667432	 -0.000092
C	 -1.979713	 -0.158776	 0.000050
C	 0.000291	 -1.118513	 1.113133
H	 -2.520245	 -0.492427	 -0.879443
H	 -1.934741	 0.918111	 -0.004428
H	 -2.517790	 -0.485056	 0.883818
C	 1.416594	 -1.606724	 0.883519
O	 -0.514318	 -1.133988	 2.197177
H	 2.037428	 -0.808338	 0.489186
H	 1.825673	 -1.946078	 1.823301
H	 1.429113	 -2.424769	 0.170090

	symmetry c1
}
set optking {
	frozen_dihedral = ("
		3 2 4 9
	")
}

ee = energy('scf')
oeprop('DIPOLE', 'QUADRUPOLE', 'MULLIKEN_CHARGES')
f=open( 'psi4out.xyz', 'w' )
f.write( "12  " )
f.write( str(ee) + "\n" )
f.write( MOL.save_string_xyz() )
f.close()
--------------------------------------------------------------------------

  Memory set to   2.000 GiB by Python script.

*** tstart() called on cx1-3-2-3.cx1.hpc.ic.ac.uk
*** at Tue Jul  5 16:26:13 2016


         ---------------------------------------------------------
                                   SCF
            by Justin Turney, Rob Parrish, and Andy Simmonett
                              RHF Reference
                        1 Threads,   2000 MiB Core
         ---------------------------------------------------------

  ==> Geometry <==

    Molecular point group: c1
    Full point group: C1

    Geometry (in Angstrom), charge = 0, multiplicity = 1:

       Center              X                  Y                   Z               Mass       
    ------------   -----------------  -----------------  -----------------  -----------------
           H          0.217628483460     0.243650033980    -1.693396097202     1.007825032070
           N         -0.276690516540     0.264296033980    -0.831491097202    14.003074004780
           C         -1.629460516540     0.772952033980    -0.831349097202    12.000000000000
           C          0.350543483460    -0.186784966020     0.281733902798    12.000000000000
           H         -2.169992516540     0.439301033980    -1.710842097202     1.007825032070
           H         -1.584488516540     1.849839033980    -0.835827097202     1.007825032070
           H         -2.167537516540     0.446672033980     0.052418902798     1.007825032070
           C          1.766846483460    -0.674995966020     0.052119902798    12.000000000000
           O         -0.164065516540    -0.202259966020     1.365777902798    15.994914619560
           H          2.387680483460     0.123390033980    -0.342213097202     1.007825032070
           H          2.175925483460    -1.014349966020     0.991901902798     1.007825032070
           H          1.779365483460    -1.493040966020    -0.661309097202     1.007825032070

  Running in c1 symmetry.

  Rotational constants: A =      0.33859  B =      0.12950  C =      0.09703 [cm^-1]
  Rotational constants: A =  10150.60803  B =   3882.28904  C =   2908.84410 [MHz]
  Nuclear repulsion =  181.200433333864510

  Charge       = 0
  Multiplicity = 1
  Electrons    = 40
  Nalpha       = 20
  Nbeta        = 20

  ==> Algorithm <==

  SCF Algorithm Type is DF.
  DIIS enabled.
  MOM disabled.
  Fractional occupation disabled.
  Guess Type is CORE.
  Energy threshold   = 1.00e-06
  Density threshold  = 1.00e-06
  Integral threshold = 0.00e+00

  ==> Primary Basis <==

  Basis Set: 6-31G*
    Number of shells: 44
    Number of basis function: 89
    Number of Cartesian functions: 89
    Spherical Harmonics?: false
    Max angular momentum: 2

  ==> Pre-Iterations <==

   -------------------------------------------------------
    Irrep   Nso     Nmo     Nalpha   Nbeta   Ndocc  Nsocc
   -------------------------------------------------------
     A         89      89       0       0       0       0
   -------------------------------------------------------
    Total      89      89      20      20      20       0
   -------------------------------------------------------

 OEINTS: Overlap, kinetic, potential, dipole, and quadrupole integrals
         stored in file 35.

  ==> Integral Setup <==

  ==> DFJK: Density-Fitted J/K Matrices <==

    J tasked:                  Yes
    K tasked:                  Yes
    wK tasked:                  No
    OpenMP threads:              1
    Integrals threads:           1
    Memory (MB):              1430
    Algorithm:                Core
    Integral Cache:           NONE
    Schwarz Cutoff:          1E-12
    Fitting Condition:       1E-12

   => Auxiliary Basis Set <=

  Basis Set: 
    Number of shells: 183
    Number of basis function: 580
    Number of Cartesian functions: 580
    Spherical Harmonics?: false
    Max angular momentum: 3

  Minimum eigenvalue in the overlap matrix is 3.6815542526E-03.
  Using Symmetric Orthogonalization.
  SCF Guess: Core (One-Electron) Hamiltonian.

  ==> Iterations <==

                           Total Energy        Delta E     RMS |[F,P]|

   @DF-RHF iter   1:  -191.12448737223218   -1.91124e+02   8.58549e-02 
   @DF-RHF iter   2:  -192.94828086657924   -1.82379e+00   5.97896e-02 DIIS
   @DF-RHF iter   3:  -220.20953350742053   -2.72613e+01   6.68393e-02 DIIS
   @DF-RHF iter   4:  -241.38448188444460   -2.11749e+01   3.34597e-02 DIIS
   @DF-RHF iter   5:  -245.47559462637690   -4.09111e+00   1.77701e-02 DIIS
   @DF-RHF iter   6:  -246.73221070086788   -1.25662e+00   7.22389e-03 DIIS
   @DF-RHF iter   7:  -246.97114325951839   -2.38933e-01   2.47008e-03 DIIS
   @DF-RHF iter   8:  -247.00102204963821   -2.98788e-02   7.18762e-04 DIIS
   @DF-RHF iter   9:  -247.00398998145454   -2.96793e-03   2.81930e-04 DIIS
   @DF-RHF iter  10:  -247.00459772523573   -6.07744e-04   9.89441e-05 DIIS
   @DF-RHF iter  11:  -247.00469640684560   -9.86816e-05   4.09182e-05 DIIS
   @DF-RHF iter  12:  -247.00471379813132   -1.73913e-05   1.92686e-05 DIIS
   @DF-RHF iter  13:  -247.00471680687309   -3.00874e-06   3.66611e-06 DIIS
   @DF-RHF iter  14:  -247.00471694792628   -1.41053e-07   9.61757e-07 DIIS

  ==> Post-Iterations <==

    Orbital Energies (a.u.)
    -----------------------

    Doubly Occupied:                                                      

       1A    -20.515343     2A    -15.580822     3A    -11.342288  
       4A    -11.254712     5A    -11.229181     6A     -1.383286  
       7A     -1.227906     8A     -1.015387     9A     -0.931954  
      10A     -0.785662    11A     -0.688283    12A     -0.647765  
      13A     -0.633343    14A     -0.586693    15A     -0.578799  
      16A     -0.555159    17A     -0.544095    18A     -0.506303  
      19A     -0.412127    20A     -0.383514  

    Virtual:                                                              

      21A      0.211872    22A      0.219004    23A      0.266981  
      24A      0.281468    25A      0.310773    26A      0.320474  
      27A      0.324840    28A      0.348514    29A      0.374524  
      30A      0.427644    31A      0.498792    32A      0.580721  
      33A      0.722043    34A      0.732884    35A      0.753516  
      36A      0.764587    37A      0.817532    38A      0.830235  
      39A      0.894140    40A      0.954981    41A      0.984416  
      42A      1.015529    43A      1.032412    44A      1.084369  
      45A      1.115859    46A      1.142730    47A      1.156983  
      48A      1.185629    49A      1.199288    50A      1.212667  
      51A      1.228586    52A      1.242575    53A      1.318991  
      54A      1.352971    55A      1.403324    56A      1.593486  
      57A      1.615696    58A      1.655171    59A      1.683799  
      60A      1.697331    61A      1.817148    62A      1.926378  
      63A      2.047239    64A      2.112667    65A      2.140573  
      66A      2.178645    67A      2.214751    68A      2.247026  
      69A      2.320645    70A      2.389483    71A      2.426589  
      72A      2.527318    73A      2.553358    74A      2.585379  
      75A      2.638977    76A      2.702742    77A      2.763871  
      78A      2.794310    79A      2.899625    80A      3.020282  
      81A      3.043365    82A      3.282781    83A      3.376565  
      84A      3.555115    85A      4.367072    86A      4.475764  
      87A      4.633096    88A      4.687581    89A      4.907032  

    Final Occupation by Irrep:
              A 
    DOCC [    20 ]

  Energy converged.

  @DF-RHF Final Energy:  -247.00471694792628

   => Energetics <=

    Nuclear Repulsion Energy =            181.2004333338645097
    One-Electron Energy =                -694.8049385831061500
    Two-Electron Energy =                 266.5997883013153000
    DFT Exchange-Correlation Energy =       0.0000000000000000
    Empirical Dispersion Energy =           0.0000000000000000
    PCM Polarization Energy =               0.0000000000000000
    EFP Energy =                            0.0000000000000000
    Total Energy =                       -247.0047169479262834

    Alert: EFP and PCM quantities not currently incorporated into SCF psivars.

Properties will be evaluated at   0.000000,   0.000000,   0.000000 Bohr
  ==> Properties <==


Properties computed using the SCF density matrix

  Nuclear Dipole Moment: (a.u.)
     X:     0.5987      Y:     0.5565      Z:    -3.9277

  Electronic Dipole Moment: (a.u.)
     X:    -0.2259      Y:    -0.4275      Z:     2.4105

  Dipole Moment: (a.u.)
     X:     0.3728      Y:     0.1290      Z:    -1.5172     Total:     1.5676

  Dipole Moment: (Debye)
     X:     0.9476      Y:     0.3279      Z:    -3.8563     Total:     3.9845


  Saving occupied orbitals to File 180.

*** tstop() called on cx1-3-2-3.cx1.hpc.ic.ac.uk at Tue Jul  5 16:26:17 2016
Module time:
	user time   =       4.25 seconds =       0.07 minutes
	system time =       0.03 seconds =       0.00 minutes
	total time  =          4 seconds =       0.07 minutes
Total time:
	user time   =       4.25 seconds =       0.07 minutes
	system time =       0.03 seconds =       0.00 minutes
	total time  =          4 seconds =       0.07 minutes


Properties will be evaluated at   0.000000,   0.000000,   0.000000 Bohr

Properties computed using the  density matrix

  Nuclear Dipole Moment: (a.u.)
     X:     0.5987      Y:     0.5565      Z:    -3.9277

  Electronic Dipole Moment: (a.u.)
     X:    -0.2259      Y:    -0.4275      Z:     2.4105

  Dipole Moment: (a.u.)
     X:     0.3728      Y:     0.1290      Z:    -1.5172     Total:     1.5676

  Dipole Moment: (Debye)
     X:     0.9476      Y:     0.3279      Z:    -3.8563     Total:     3.9845

  Quadrupole Moment: (Debye Ang)
    XX:   -27.2305     YY:   -30.5842     ZZ:   -32.9308
    XY:    -1.4045     XZ:     1.0301     YZ:    -0.0114

  Traceless Quadrupole Moment: (Debye Ang)
    XX:     3.0180     YY:    -0.3358     ZZ:    -2.6823
    XY:    -1.4045     XZ:     1.0301     YZ:    -0.0114

  Mulliken Charges: (a.u.)
   Center  Symbol    Alpha    Beta     Spin     Total
       1     H     0.31033  0.31033  0.00000  0.37934
       2     N     3.89195  3.89195  0.00000 -0.78390
       3     C     3.14065  3.14065  0.00000 -0.28130
       4     C     2.63079  2.63079  0.00000  0.73843
       5     H     0.41697  0.41697  0.00000  0.16606
       6     H     0.41426  0.41426  0.00000  0.17147
       7     H     0.38932  0.38932  0.00000  0.22137
       8     C     3.29548  3.29548  0.00000 -0.59096
       9     O     4.30210  4.30210  0.00000 -0.60419
      10     H     0.40803  0.40803  0.00000  0.18393
      11     H     0.39192  0.39192  0.00000  0.21615
      12     H     0.40820  0.40820  0.00000  0.18360

   Total alpha = 20.00000, Total beta = 20.00000, Total charge =  0.00000


*** PSI4 exiting successfully. Buy a developer a beer!
