    -----------------------------------------------------------------------
          Psi4: An Open-Source Ab Initio Electronic Structure Package
                              Psi4 (no tag) Driver

                          Git: Rev {detached?}  

    J. M. Turney, A. C. Simmonett, R. M. Parrish, E. G. Hohenstein,
    F. A. Evangelista, J. T. Fermann, B. J. Mintz, L. A. Burns, J. J. Wilke,
    M. L. Abrams, N. J. Russ, M. L. Leininger, C. L. Janssen, E. T. Seidl,
    W. D. Allen, H. F. Schaefer, R. A. King, E. F. Valeev, C. D. Sherrill,
    and T. D. Crawford, WIREs Comput. Mol. Sci. 2, 556-565 (2012)
    (doi: 10.1002/wcms.93)

                         Additional Contributions by
    A. E. DePrince, M. Saitow, U. Bozkaya, A. Yu. Sokolov
    -----------------------------------------------------------------------


    Psi4 started on: Tue Jul  5 16:34:52 2016

    Process ID:  11980
    PSI4DATADIR: /export131/home/mjharvey/miniconda3/share
    Memory level set to 256.000 MB

  ==> Input File <==

--------------------------------------------------------------------------
set {
	reference rhf
	basis 6-31G*
}


set_num_threads( 1 )
memory 2 gb

molecule MOL {
0 1

O	 0.575488	 0.499206	 0.966074
C	 0.028650	 0.075053	 -0.000277
C	 -1.233602	 -0.752807	 0.000328
O	 0.469568	 0.279678	 -1.234627
C	 -2.501530	 0.091881	 0.000126
H	 -1.193807	 -1.406641	 -0.865785
H	 -1.193516	 -1.405779	 0.867015
H	 -2.545121	 0.729328	 -0.874513
H	 -3.377167	 -0.548497	 0.000561
H	 -2.544818	 0.730135	 0.874258
C	 1.652825	 1.044909	 -1.375740
H	 1.514729	 2.036239	 -0.968791
H	 1.844367	 1.099155	 -2.436039
H	 2.478242	 0.564951	 -0.869976

	symmetry c1
}
set optking {
	frozen_dihedral = ("
		11 4 2 3
	")
}

ee = energy('scf')
oeprop('DIPOLE', 'QUADRUPOLE', 'MULLIKEN_CHARGES')
f=open( 'psi4out.xyz', 'w' )
f.write( "14  " )
f.write( str(ee) + "\n" )
f.write( MOL.save_string_xyz() )
f.close()
--------------------------------------------------------------------------

  Memory set to   2.000 GiB by Python script.

*** tstart() called on cx1-1-4-4.cx1.hpc.ic.ac.uk
*** at Tue Jul  5 16:34:53 2016


         ---------------------------------------------------------
                                   SCF
            by Justin Turney, Rob Parrish, and Andy Simmonett
                              RHF Reference
                        1 Threads,   2000 MiB Core
         ---------------------------------------------------------

  ==> Geometry <==

    Molecular point group: c1
    Full point group: C1

    Geometry (in Angstrom), charge = 0, multiplicity = 1:

       Center              X                  Y                   Z               Mass       
    ------------   -----------------  -----------------  -----------------  -----------------
           O          0.722953010105     0.274571852236     1.251233045860    15.994914619560
           C          0.176115010105    -0.149581147764     0.284882045860    12.000000000000
           C         -1.086136989895    -0.977441147764     0.285487045860    12.000000000000
           O          0.617033010105     0.055043852236    -0.949467954140    15.994914619560
           C         -2.354064989895    -0.132753147764     0.285285045860    12.000000000000
           H         -1.046341989895    -1.631275147764    -0.580625954140     1.007825032070
           H         -1.046050989895    -1.630413147764     1.152174045860     1.007825032070
           H         -2.397655989895     0.504693852236    -0.589353954140     1.007825032070
           H         -3.229701989895    -0.773131147764     0.285720045860     1.007825032070
           H         -2.397352989895     0.505500852236     1.159417045860     1.007825032070
           C          1.800290010105     0.820274852236    -1.090580954140    12.000000000000
           H          1.662194010105     1.811604852236    -0.683631954140     1.007825032070
           H          1.991832010105     0.874520852236    -2.150879954140     1.007825032070
           H          2.625707010105     0.340316852236    -0.584816954140     1.007825032070

  Running in c1 symmetry.

  Rotational constants: A =      0.24025  B =      0.07754  C =      0.06680 [cm^-1]
  Rotational constants: A =   7202.56701  B =   2324.73156  C =   2002.65672 [MHz]
  Nuclear repulsion =  247.569154775564414

  Charge       = 0
  Multiplicity = 1
  Electrons    = 48
  Nalpha       = 24
  Nbeta        = 24

  ==> Algorithm <==

  SCF Algorithm Type is DF.
  DIIS enabled.
  MOM disabled.
  Fractional occupation disabled.
  Guess Type is CORE.
  Energy threshold   = 1.00e-06
  Density threshold  = 1.00e-06
  Integral threshold = 0.00e+00

  ==> Primary Basis <==

  Basis Set: 6-31G*
    Number of shells: 52
    Number of basis function: 106
    Number of Cartesian functions: 106
    Spherical Harmonics?: false
    Max angular momentum: 2

  ==> Pre-Iterations <==

   -------------------------------------------------------
    Irrep   Nso     Nmo     Nalpha   Nbeta   Ndocc  Nsocc
   -------------------------------------------------------
     A        106     106       0       0       0       0
   -------------------------------------------------------
    Total     106     106      24      24      24       0
   -------------------------------------------------------

 OEINTS: Overlap, kinetic, potential, dipole, and quadrupole integrals
         stored in file 35.

  ==> Integral Setup <==

  ==> DFJK: Density-Fitted J/K Matrices <==

    J tasked:                  Yes
    K tasked:                  Yes
    wK tasked:                  No
    OpenMP threads:              1
    Integrals threads:           1
    Memory (MB):              1430
    Algorithm:                Core
    Integral Cache:           NONE
    Schwarz Cutoff:          1E-12
    Fitting Condition:       1E-12

   => Auxiliary Basis Set <=

  Basis Set: 
    Number of shells: 216
    Number of basis function: 686
    Number of Cartesian functions: 686
    Spherical Harmonics?: false
    Max angular momentum: 3

  Minimum eigenvalue in the overlap matrix is 3.4251707059E-03.
  Using Symmetric Orthogonalization.
  SCF Guess: Core (One-Electron) Hamiltonian.

  ==> Iterations <==

                           Total Energy        Delta E     RMS |[F,P]|

   @DF-RHF iter   1:  -225.78046867317306   -2.25780e+02   8.25996e-02 
   @DF-RHF iter   2:  -203.47542218142627    2.23050e+01   6.85958e-02 DIIS
   @DF-RHF iter   3:  -279.71834852889930   -7.62429e+01   4.31055e-02 DIIS
   @DF-RHF iter   4:  -279.85812717122116   -1.39779e-01   5.39151e-02 DIIS
   @DF-RHF iter   5:  -305.48248532329825   -2.56244e+01   8.23633e-03 DIIS
   @DF-RHF iter   6:  -305.78486458548781   -3.02379e-01   4.21717e-03 DIIS
   @DF-RHF iter   7:  -305.86225669377785   -7.73921e-02   1.02234e-03 DIIS
   @DF-RHF iter   8:  -305.86894347601293   -6.68678e-03   2.87173e-04 DIIS
   @DF-RHF iter   9:  -305.86951337204351   -5.69896e-04   1.13682e-04 DIIS
   @DF-RHF iter  10:  -305.86962286144802   -1.09489e-04   4.59360e-05 DIIS
   @DF-RHF iter  11:  -305.86964056471646   -1.77033e-05   2.27649e-05 DIIS
   @DF-RHF iter  12:  -305.86964444818972   -3.88347e-06   7.34677e-06 DIIS
   @DF-RHF iter  13:  -305.86964494625789   -4.98068e-07   1.72689e-06 DIIS
   @DF-RHF iter  14:  -305.86964497063997   -2.43821e-08   5.55205e-07 DIIS

  ==> Post-Iterations <==

    Orbital Energies (a.u.)
    -----------------------

    Doubly Occupied:                                                      

       1A    -20.605411     2A    -20.544397     3A    -11.371937  
       4A    -11.281082     5A    -11.236847     6A    -11.227445  
       7A     -1.469852     8A     -1.362534     9A     -1.067987  
      10A     -0.978572    11A     -0.884276    12A     -0.773464  
      13A     -0.696987    14A     -0.678921    15A     -0.673237  
      16A     -0.614203    17A     -0.598321    18A     -0.568674  
      19A     -0.544037    20A     -0.518960    21A     -0.511805  
      22A     -0.502725    23A     -0.455376    24A     -0.434391  

    Virtual:                                                              

      25A      0.190183    26A      0.251715    27A      0.266228  
      28A      0.294964    29A      0.297014    30A      0.309629  
      31A      0.314703    32A      0.327023    33A      0.332426  
      34A      0.345413    35A      0.397267    36A      0.446723  
      37A      0.512544    38A      0.568101    39A      0.716283  
      40A      0.727339    41A      0.733935    42A      0.747993  
      43A      0.757802    44A      0.787467    45A      0.828236  
      46A      0.893987    47A      0.932032    48A      0.971453  
      49A      0.987980    50A      1.008916    51A      1.081838  
      52A      1.101077    53A      1.128129    54A      1.131859  
      55A      1.148195    56A      1.159574    57A      1.189885  
      58A      1.210377    59A      1.227928    60A      1.238269  
      61A      1.243416    62A      1.297413    63A      1.346579  
      64A      1.368848    65A      1.398915    66A      1.507034  
      67A      1.554641    68A      1.650669    69A      1.671681  
      70A      1.800157    71A      1.809900    72A      1.862173  
      73A      1.935092    74A      1.969588    75A      2.048130  
      76A      2.068499    77A      2.114177    78A      2.160453  
      79A      2.176528    80A      2.248608    81A      2.294631  
      82A      2.362122    83A      2.390805    84A      2.398832  
      85A      2.452490    86A      2.503018    87A      2.585587  
      88A      2.624074    89A      2.637907    90A      2.681386  
      91A      2.691698    92A      2.715559    93A      2.846404  
      94A      2.932894    95A      3.005934    96A      3.097787  
      97A      3.149290    98A      3.348453    99A      3.403257  
     100A      3.554785   101A      4.442768   102A      4.537582  
     103A      4.602833   104A      4.661125   105A      4.780743  
     106A      4.980412  

    Final Occupation by Irrep:
              A 
    DOCC [    24 ]

  Energy converged.

  @DF-RHF Final Energy:  -305.86964497063997

   => Energetics <=

    Nuclear Repulsion Energy =            247.5691547755644137
    One-Electron Energy =                -907.6747077146937954
    Two-Electron Energy =                 354.2359079684888457
    DFT Exchange-Correlation Energy =       0.0000000000000000
    Empirical Dispersion Energy =           0.0000000000000000
    PCM Polarization Energy =               0.0000000000000000
    EFP Energy =                            0.0000000000000000
    Total Energy =                       -305.8696449706405929

    Alert: EFP and PCM quantities not currently incorporated into SCF psivars.

Properties will be evaluated at   0.000000,   0.000000,   0.000000 Bohr
  ==> Properties <==


Properties computed using the SCF density matrix

  Nuclear Dipole Moment: (a.u.)
     X:    -3.5910      Y:     0.0033      Z:    -1.8660

  Electronic Dipole Moment: (a.u.)
     X:     3.3629      Y:    -0.1351      Z:     1.1397

  Dipole Moment: (a.u.)
     X:    -0.2281      Y:    -0.1318      Z:    -0.7263     Total:     0.7726

  Dipole Moment: (Debye)
     X:    -0.5798      Y:    -0.3351      Z:    -1.8461     Total:     1.9638


  Saving occupied orbitals to File 180.

*** tstop() called on cx1-1-4-4.cx1.hpc.ic.ac.uk at Tue Jul  5 16:34:59 2016
Module time:
	user time   =       6.12 seconds =       0.10 minutes
	system time =       0.04 seconds =       0.00 minutes
	total time  =          6 seconds =       0.10 minutes
Total time:
	user time   =       6.12 seconds =       0.10 minutes
	system time =       0.04 seconds =       0.00 minutes
	total time  =          6 seconds =       0.10 minutes


Properties will be evaluated at   0.000000,   0.000000,   0.000000 Bohr

Properties computed using the  density matrix

  Nuclear Dipole Moment: (a.u.)
     X:    -3.5910      Y:     0.0033      Z:    -1.8660

  Electronic Dipole Moment: (a.u.)
     X:     3.3629      Y:    -0.1351      Z:     1.1397

  Dipole Moment: (a.u.)
     X:    -0.2281      Y:    -0.1318      Z:    -0.7263     Total:     0.7726

  Dipole Moment: (Debye)
     X:    -0.5798      Y:    -0.3351      Z:    -1.8461     Total:     1.9638

  Quadrupole Moment: (Debye Ang)
    XX:   -32.6170     YY:   -34.6909     ZZ:   -40.4036
    XY:     1.6339     XZ:    -4.0821     YZ:    -2.3909

  Traceless Quadrupole Moment: (Debye Ang)
    XX:     3.2868     YY:     1.2129     ZZ:    -4.4998
    XY:     1.6339     XZ:    -4.0821     YZ:    -2.3909

  Mulliken Charges: (a.u.)
   Center  Symbol    Alpha    Beta     Spin     Total
       1     O     4.28409  4.28409  0.00000 -0.56818
       2     C     2.61713  2.61713  0.00000  0.76574
       3     C     3.19589  3.19589  0.00000 -0.39178
       4     O     4.30193  4.30193  0.00000 -0.60385
       5     C     3.24878  3.24878  0.00000 -0.49756
       6     H     0.40302  0.40302  0.00000  0.19395
       7     H     0.40063  0.40063  0.00000  0.19875
       8     H     0.41112  0.41112  0.00000  0.17776
       9     H     0.41139  0.41139  0.00000  0.17722
      10     H     0.40702  0.40702  0.00000  0.18597
      11     C     3.09292  3.09292  0.00000 -0.18584
      12     H     0.40893  0.40893  0.00000  0.18214
      13     H     0.40862  0.40862  0.00000  0.18277
      14     H     0.40855  0.40855  0.00000  0.18291

   Total alpha = 24.00000, Total beta = 24.00000, Total charge =  0.00000


*** PSI4 exiting successfully. Buy a developer a beer!
