    -----------------------------------------------------------------------
          Psi4: An Open-Source Ab Initio Electronic Structure Package
                              Psi4 (no tag) Driver

                          Git: Rev {detached?}  

    J. M. Turney, A. C. Simmonett, R. M. Parrish, E. G. Hohenstein,
    F. A. Evangelista, J. T. Fermann, B. J. Mintz, L. A. Burns, J. J. Wilke,
    M. L. Abrams, N. J. Russ, M. L. Leininger, C. L. Janssen, E. T. Seidl,
    W. D. Allen, H. F. Schaefer, R. A. King, E. F. Valeev, C. D. Sherrill,
    and T. D. Crawford, WIREs Comput. Mol. Sci. 2, 556-565 (2012)
    (doi: 10.1002/wcms.93)

                         Additional Contributions by
    A. E. DePrince, M. Saitow, U. Bozkaya, A. Yu. Sokolov
    -----------------------------------------------------------------------


    Psi4 started on: Tue Jul  5 17:23:45 2016

    Process ID:  21128
    PSI4DATADIR: /export131/home/mjharvey/miniconda3/share
    Memory level set to 256.000 MB

  ==> Input File <==

--------------------------------------------------------------------------
set {
	reference rhf
	basis 6-31G*
}


set_num_threads( 1 )
memory 2 gb

molecule MOL {
0 1

H	 -2.646374	 -0.642757	 1.268656
C	 -2.083525	 -0.384536	 0.393091
O	 -0.807605	 -0.127164	 0.768327
F	 -2.118945	 -1.383102	 -0.486752
F	 -2.621877	 0.670592	 -0.209486
C	 -0.572063	 1.014105	 1.513118
C	 -1.547736	 0.991152	 2.682603
Cl	 -0.809444	 2.468930	 0.531106
H	 0.428415	 1.046354	 1.907804
F	 -2.780487	 1.165998	 2.256114
F	 -1.253231	 1.982056	 3.500413
F	 -1.488711	 -0.132900	 3.354166

	symmetry c1
}
set optking {
	frozen_dihedral = ("
		10 7 6 9,
		9 6 3 2
	")
}

ee = energy('scf')
oeprop('DIPOLE', 'QUADRUPOLE', 'MULLIKEN_CHARGES')
f=open( 'psi4out.xyz', 'w' )
f.write( "12  " )
f.write( str(ee) + "\n" )
f.write( MOL.save_string_xyz() )
f.close()
--------------------------------------------------------------------------

  Memory set to   2.000 GiB by Python script.

*** tstart() called on cx1-3-4-4.cx1.hpc.ic.ac.uk
*** at Tue Jul  5 17:23:45 2016


         ---------------------------------------------------------
                                   SCF
            by Justin Turney, Rob Parrish, and Andy Simmonett
                              RHF Reference
                        1 Threads,   2000 MiB Core
         ---------------------------------------------------------

  ==> Geometry <==

    Molecular point group: c1
    Full point group: C1

    Geometry (in Angstrom), charge = 0, multiplicity = 1:

       Center              X                  Y                   Z               Mass       
    ------------   -----------------  -----------------  -----------------  -----------------
           H         -1.076111274828    -1.446705937506    -0.084759345097     1.007825032070
           C         -0.513262274828    -1.188484937506    -0.960324345097    12.000000000000
           O          0.762657725172    -0.931112937506    -0.585088345097    15.994914619560
           F         -0.548682274828    -2.187050937506    -1.840167345097    18.998403224000
           F         -1.051614274828    -0.133356937506    -1.562901345097    18.998403224000
           C          0.998199725172     0.210156062494     0.159702654903    12.000000000000
           C          0.022526725172     0.187203062494     1.329187654903    12.000000000000
          CL          0.760818725172     1.664981062494    -0.822309345097    34.968852682000
           H          1.998677725172     0.242405062494     0.554388654903     1.007825032070
           F         -1.210224274828     0.362049062494     0.902698654903    18.998403224000
           F          0.317031725172     1.178107062494     2.146997654903    18.998403224000
           F          0.081551725172    -0.936848937506     2.000750654903    18.998403224000

  Running in c1 symmetry.

  Rotational constants: A =      0.05317  B =      0.03436  C =      0.02617 [cm^-1]
  Rotational constants: A =   1593.85629  B =   1030.02402  C =    784.58467 [MHz]
  Nuclear repulsion =  765.147119884115909

  Charge       = 0
  Multiplicity = 1
  Electrons    = 90
  Nalpha       = 45
  Nbeta        = 45

  ==> Algorithm <==

  SCF Algorithm Type is DF.
  DIIS enabled.
  MOM disabled.
  Fractional occupation disabled.
  Guess Type is CORE.
  Energy threshold   = 1.00e-06
  Density threshold  = 1.00e-06
  Integral threshold = 0.00e+00

  ==> Primary Basis <==

  Basis Set: 6-31G*
    Number of shells: 66
    Number of basis function: 158
    Number of Cartesian functions: 158
    Spherical Harmonics?: false
    Max angular momentum: 2

  ==> Pre-Iterations <==

   -------------------------------------------------------
    Irrep   Nso     Nmo     Nalpha   Nbeta   Ndocc  Nsocc
   -------------------------------------------------------
     A        158     158       0       0       0       0
   -------------------------------------------------------
    Total     158     158      45      45      45       0
   -------------------------------------------------------

 OEINTS: Overlap, kinetic, potential, dipole, and quadrupole integrals
         stored in file 35.

  ==> Integral Setup <==

  ==> DFJK: Density-Fitted J/K Matrices <==

    J tasked:                  Yes
    K tasked:                  Yes
    wK tasked:                  No
    OpenMP threads:              1
    Integrals threads:           1
    Memory (MB):              1430
    Algorithm:                Core
    Integral Cache:           NONE
    Schwarz Cutoff:          1E-12
    Fitting Condition:       1E-12

   => Auxiliary Basis Set <=

  Basis Set: 
    Number of shells: 270
    Number of basis function: 909
    Number of Cartesian functions: 909
    Spherical Harmonics?: false
    Max angular momentum: 3

  Minimum eigenvalue in the overlap matrix is 1.7970528739E-03.
  Using Symmetric Orthogonalization.
  SCF Guess: Core (One-Electron) Hamiltonian.

  ==> Iterations <==

                           Total Energy        Delta E     RMS |[F,P]|

   @DF-RHF iter   1: -1055.77068924683522   -1.05577e+03   7.25094e-02 
   @DF-RHF iter   2:  -942.38580680806490    1.13385e+02   7.83574e-02 DIIS
   @DF-RHF iter   3: -1101.49985633422602   -1.59114e+02   3.16388e-02 DIIS
   @DF-RHF iter   4:  -970.22113052389932    1.31279e+02   8.56967e-02 DIIS
   @DF-RHF iter   5: -1111.71110661682587   -1.41490e+02   4.21621e-02 DIIS
   @DF-RHF iter   6: -1140.01636064231752   -2.83053e+01   2.14080e-02 DIIS
   @DF-RHF iter   7: -1142.77925404285043   -2.76289e+00   1.33233e-02 DIIS
   @DF-RHF iter   8: -1145.98907975563225   -3.20983e+00   5.23555e-03 DIIS
   @DF-RHF iter   9: -1146.25673623911030   -2.67656e-01   1.59190e-03 DIIS
   @DF-RHF iter  10: -1146.27769673090438   -2.09605e-02   8.75946e-04 DIIS
   @DF-RHF iter  11: -1146.28648076275158   -8.78403e-03   1.79602e-04 DIIS
   @DF-RHF iter  12: -1146.28690974787833   -4.28985e-04   9.64746e-05 DIIS
   @DF-RHF iter  13: -1146.28702680835454   -1.17060e-04   3.21542e-05 DIIS
   @DF-RHF iter  14: -1146.28703952830028   -1.27199e-05   1.48508e-05 DIIS
   @DF-RHF iter  15: -1146.28704204354813   -2.51525e-06   4.57414e-06 DIIS
   @DF-RHF iter  16: -1146.28704238735736   -3.43809e-07   1.24246e-06 DIIS
   @DF-RHF iter  17: -1146.28704242335630   -3.59989e-08   3.56630e-07 DIIS

  ==> Post-Iterations <==

    Orbital Energies (a.u.)
    -----------------------

    Doubly Occupied:                                                      

       1A   -104.842201     2A    -26.382175     3A    -26.374566  
       4A    -26.368260     5A    -26.335646     6A    -26.330980  
       7A    -20.645169     8A    -11.539206     9A    -11.478191  
      10A    -11.408453    11A    -10.577368    12A     -8.046715  
      13A     -8.043127    14A     -8.042965    15A     -1.779376  
      16A     -1.704284    17A     -1.678608    18A     -1.670088  
      19A     -1.625356    20A     -1.486939    21A     -1.180373  
      22A     -1.053847    23A     -0.992808    24A     -0.935790  
      25A     -0.871311    26A     -0.868408    27A     -0.851262  
      28A     -0.819250    29A     -0.808122    30A     -0.762946  
      31A     -0.744788    32A     -0.736245    33A     -0.709584  
      34A     -0.698032    35A     -0.692141    36A     -0.683127  
      37A     -0.675789    38A     -0.663651    39A     -0.645928  
      40A     -0.640800    41A     -0.606094    42A     -0.557663  
      43A     -0.515001    44A     -0.475617    45A     -0.464883  

    Virtual:                                                              

      46A      0.169858    47A      0.233930    48A      0.266819  
      49A      0.287923    50A      0.355146    51A      0.384078  
      52A      0.392004    53A      0.417035    54A      0.429793  
      55A      0.459861    56A      0.500350    57A      0.556257  
      58A      0.618885    59A      0.629924    60A      0.651589  
      61A      0.678677    62A      0.696792    63A      0.722400  
      64A      0.749421    65A      0.753796    66A      0.762103  
      67A      0.788810    68A      0.848051    69A      0.873377  
      70A      0.958861    71A      1.046183    72A      1.062975  
      73A      1.083945    74A      1.130887    75A      1.142476  
      76A      1.165276    77A      1.208119    78A      1.247781  
      79A      1.270501    80A      1.305716    81A      1.323589  
      82A      1.347537    83A      1.374126    84A      1.403003  
      85A      1.420194    86A      1.444666    87A      1.471733  
      88A      1.516527    89A      1.542529    90A      1.591792  
      91A      1.594229    92A      1.606796    93A      1.629459  
      94A      1.641163    95A      1.658824    96A      1.665280  
      97A      1.679545    98A      1.691772    99A      1.706121  
     100A      1.770682   101A      1.802911   102A      1.841924  
     103A      1.882380   104A      1.936320   105A      1.965487  
     106A      1.984535   107A      2.038715   108A      2.075503  
     109A      2.088802   110A      2.094120   111A      2.098016  
     112A      2.113870   113A      2.132503   114A      2.170413  
     115A      2.203257   116A      2.270099   117A      2.277304  
     118A      2.290553   119A      2.307147   120A      2.323079  
     121A      2.354012   122A      2.378643   123A      2.392372  
     124A      2.408893   125A      2.431786   126A      2.456619  
     127A      2.499564   128A      2.526731   129A      2.576051  
     130A      2.617485   131A      2.618622   132A      2.656678  
     133A      2.714957   134A      2.822194   135A      2.843018  
     136A      2.951876   137A      3.006713   138A      3.056483  
     139A      3.121800   140A      3.142918   141A      3.178246  
     142A      3.238966   143A      3.367793   144A      3.387765  
     145A      3.417184   146A      3.428544   147A      3.478545  
     148A      3.515117   149A      4.388289   150A      4.561419  
     151A      4.662273   152A      4.748282   153A      4.861923  
     154A      4.950401   155A      5.128534   156A      5.310215  
     157A      5.706960   158A      5.886053  

    Final Occupation by Irrep:
              A 
    DOCC [    45 ]

  Energy converged.

  @DF-RHF Final Energy: -1146.28704242335630

   => Energetics <=

    Nuclear Repulsion Energy =            765.1471198841159094
    One-Electron Energy =               -3112.8420991316206710
    Two-Electron Energy =                1201.4079368241509655
    DFT Exchange-Correlation Energy =       0.0000000000000000
    Empirical Dispersion Energy =           0.0000000000000000
    PCM Polarization Energy =               0.0000000000000000
    EFP Energy =                            0.0000000000000000
    Total Energy =                      -1146.2870424233537960

    Alert: EFP and PCM quantities not currently incorporated into SCF psivars.

Properties will be evaluated at   0.000000,   0.000000,   0.000000 Bohr
  ==> Properties <==


Properties computed using the SCF density matrix

  Nuclear Dipole Moment: (a.u.)
     X:     2.4474      Y:    -1.0378      Z:    -0.3638

  Electronic Dipole Moment: (a.u.)
     X:    -2.0885      Y:     0.9055      Z:     1.0690

  Dipole Moment: (a.u.)
     X:     0.3589      Y:    -0.1323      Z:     0.7051     Total:     0.8022

  Dipole Moment: (Debye)
     X:     0.9123      Y:    -0.3363      Z:     1.7923     Total:     2.0390


  Saving occupied orbitals to File 180.

*** tstop() called on cx1-3-4-4.cx1.hpc.ic.ac.uk at Tue Jul  5 17:24:07 2016
Module time:
	user time   =      20.95 seconds =       0.35 minutes
	system time =       0.29 seconds =       0.00 minutes
	total time  =         22 seconds =       0.37 minutes
Total time:
	user time   =      20.95 seconds =       0.35 minutes
	system time =       0.29 seconds =       0.00 minutes
	total time  =         22 seconds =       0.37 minutes


Properties will be evaluated at   0.000000,   0.000000,   0.000000 Bohr

Properties computed using the  density matrix

  Nuclear Dipole Moment: (a.u.)
     X:     2.4474      Y:    -1.0378      Z:    -0.3638

  Electronic Dipole Moment: (a.u.)
     X:    -2.0885      Y:     0.9055      Z:     1.0690

  Dipole Moment: (a.u.)
     X:     0.3589      Y:    -0.1323      Z:     0.7051     Total:     0.8022

  Dipole Moment: (Debye)
     X:     0.9123      Y:    -0.3363      Z:     1.7923     Total:     2.0390

  Quadrupole Moment: (Debye Ang)
    XX:   -57.1232     YY:   -62.9835     ZZ:   -64.2539
    XY:     1.5586     XZ:     0.7454     YZ:    -2.3631

  Traceless Quadrupole Moment: (Debye Ang)
    XX:     4.3303     YY:    -1.5300     ZZ:    -2.8003
    XY:     1.5586     XZ:     0.7454     YZ:    -2.3631

  Mulliken Charges: (a.u.)
   Center  Symbol    Alpha    Beta     Spin     Total
       1     H     0.41112  0.41112  0.00000  0.17776
       2     C     2.56855  2.56855  0.00000  0.86291
       3     O     4.30458  4.30458  0.00000 -0.60916
       4     F     4.67887  4.67887  0.00000 -0.35774
       5     F     4.67924  4.67924  0.00000 -0.35847
       6     C     3.02632  3.02632  0.00000 -0.05263
       7     C     2.45885  2.45885  0.00000  1.08230
       8    CL     8.49541  8.49541  0.00000  0.00917
       9     H     0.36045  0.36045  0.00000  0.27910
      10     F     4.67110  4.67110  0.00000 -0.34220
      11     F     4.67483  4.67483  0.00000 -0.34965
      12     F     4.67069  4.67069  0.00000 -0.34139

   Total alpha = 45.00000, Total beta = 45.00000, Total charge = -0.00000


*** PSI4 exiting successfully. Buy a developer a beer!
