    -----------------------------------------------------------------------
          Psi4: An Open-Source Ab Initio Electronic Structure Package
                              Psi4 (no tag) Driver

                          Git: Rev {detached?}  

    J. M. Turney, A. C. Simmonett, R. M. Parrish, E. G. Hohenstein,
    F. A. Evangelista, J. T. Fermann, B. J. Mintz, L. A. Burns, J. J. Wilke,
    M. L. Abrams, N. J. Russ, M. L. Leininger, C. L. Janssen, E. T. Seidl,
    W. D. Allen, H. F. Schaefer, R. A. King, E. F. Valeev, C. D. Sherrill,
    and T. D. Crawford, WIREs Comput. Mol. Sci. 2, 556-565 (2012)
    (doi: 10.1002/wcms.93)

                         Additional Contributions by
    A. E. DePrince, M. Saitow, U. Bozkaya, A. Yu. Sokolov
    -----------------------------------------------------------------------


    Psi4 started on: Tue Jul  5 16:43:50 2016

    Process ID:  18719
    PSI4DATADIR: /export131/home/mjharvey/miniconda3/share
    Memory level set to 256.000 MB

  ==> Input File <==

--------------------------------------------------------------------------
set {
	reference rhf
	basis 6-31G*
}


set_num_threads( 1 )
memory 2 gb

molecule MOL {
0 1

O	 -1.623076	 -0.687047	 -0.555184
C	 -1.083277	 0.139568	 0.115197
C	 0.323299	 -0.082943	 0.642902
C	 -1.774125	 1.430928	 0.493280
C	 1.355627	 -0.005344	 -0.493127
H	 0.396251	 -1.044647	 1.143147
H	 0.528637	 0.693580	 1.371677
C	 1.155333	 1.223865	 -1.377534
H	 2.360126	 0.010252	 -0.075980
H	 1.280057	 -0.907677	 -1.090809
H	 1.891536	 1.252673	 -2.174319
H	 1.250670	 2.141594	 -0.804378
H	 0.170717	 1.219102	 -1.835306
H	 -1.724935	 1.594433	 1.565900
H	 -2.806170	 1.406010	 0.172347
H	 -1.268840	 2.267697	 0.018192

	symmetry c1
}
set optking {
	frozen_dihedral = ("
		9 5 3 2
	")
}

ee = energy('scf')
oeprop('DIPOLE', 'QUADRUPOLE', 'MULLIKEN_CHARGES')
f=open( 'psi4out.xyz', 'w' )
f.write( "16  " )
f.write( str(ee) + "\n" )
f.write( MOL.save_string_xyz() )
f.close()
--------------------------------------------------------------------------

  Memory set to   2.000 GiB by Python script.

*** tstart() called on cx1-3-15-3.cx1.hpc.ic.ac.uk
*** at Tue Jul  5 16:43:51 2016


         ---------------------------------------------------------
                                   SCF
            by Justin Turney, Rob Parrish, and Andy Simmonett
                              RHF Reference
                        1 Threads,   2000 MiB Core
         ---------------------------------------------------------

  ==> Geometry <==

    Molecular point group: c1
    Full point group: C1

    Geometry (in Angstrom), charge = 0, multiplicity = 1:

       Center              X                  Y                   Z               Mass       
    ------------   -----------------  -----------------  -----------------  -----------------
           O         -1.342566177249    -1.037727732505    -0.345659802651    15.994914619560
           C         -0.802767177249    -0.211112732505     0.324721197349    12.000000000000
           C          0.603808822751    -0.433623732505     0.852426197349    12.000000000000
           C         -1.493615177249     1.080247267495     0.702804197349    12.000000000000
           C          1.636136822751    -0.356024732505    -0.283602802651    12.000000000000
           H          0.676760822751    -1.395327732505     1.352671197349     1.007825032070
           H          0.809146822751     0.342899267495     1.581201197349     1.007825032070
           C          1.435842822751     0.873184267495    -1.168009802651    12.000000000000
           H          2.640635822751    -0.340428732505     0.133544197349     1.007825032070
           H          1.560566822751    -1.258357732505    -0.881284802651     1.007825032070
           H          2.172045822751     0.901992267495    -1.964794802651     1.007825032070
           H          1.531179822751     1.790913267495    -0.594853802651     1.007825032070
           H          0.451226822751     0.868421267495    -1.625781802651     1.007825032070
           H         -1.444425177249     1.243752267495     1.775424197349     1.007825032070
           H         -2.525660177249     1.055329267495     0.381871197349     1.007825032070
           H         -0.988330177249     1.917016267495     0.227716197349     1.007825032070

  Running in c1 symmetry.

  Rotational constants: A =      0.17153  B =      0.08310  C =      0.07544 [cm^-1]
  Rotational constants: A =   5142.25905  B =   2491.26108  C =   2261.48988 [MHz]
  Nuclear repulsion =  244.340390164097073

  Charge       = 0
  Multiplicity = 1
  Electrons    = 48
  Nalpha       = 24
  Nbeta        = 24

  ==> Algorithm <==

  SCF Algorithm Type is DF.
  DIIS enabled.
  MOM disabled.
  Fractional occupation disabled.
  Guess Type is CORE.
  Energy threshold   = 1.00e-06
  Density threshold  = 1.00e-06
  Integral threshold = 0.00e+00

  ==> Primary Basis <==

  Basis Set: 6-31G*
    Number of shells: 56
    Number of basis function: 110
    Number of Cartesian functions: 110
    Spherical Harmonics?: false
    Max angular momentum: 2

  ==> Pre-Iterations <==

   -------------------------------------------------------
    Irrep   Nso     Nmo     Nalpha   Nbeta   Ndocc  Nsocc
   -------------------------------------------------------
     A        110     110       0       0       0       0
   -------------------------------------------------------
    Total     110     110      24      24      24       0
   -------------------------------------------------------

 OEINTS: Overlap, kinetic, potential, dipole, and quadrupole integrals
         stored in file 35.

  ==> Integral Setup <==

  ==> DFJK: Density-Fitted J/K Matrices <==

    J tasked:                  Yes
    K tasked:                  Yes
    wK tasked:                  No
    OpenMP threads:              1
    Integrals threads:           1
    Memory (MB):              1430
    Algorithm:                Core
    Integral Cache:           NONE
    Schwarz Cutoff:          1E-12
    Fitting Condition:       1E-12

   => Auxiliary Basis Set <=

  Basis Set: 
    Number of shells: 234
    Number of basis function: 736
    Number of Cartesian functions: 736
    Spherical Harmonics?: false
    Max angular momentum: 3

  Minimum eigenvalue in the overlap matrix is 3.5874005436E-03.
  Using Symmetric Orthogonalization.
  SCF Guess: Core (One-Electron) Hamiltonian.

  ==> Iterations <==

                           Total Energy        Delta E     RMS |[F,P]|

   @DF-RHF iter   1:  -208.85438952817782   -2.08854e+02   7.50332e-02 
   @DF-RHF iter   2:  -191.84108302384431    1.70133e+01   5.97494e-02 DIIS
   @DF-RHF iter   3:  -234.85890051041991   -4.30178e+01   5.09148e-02 DIIS
   @DF-RHF iter   4:  -269.04463506333815   -3.41857e+01   1.19384e-02 DIIS
   @DF-RHF iter   5:  -269.83488944690106   -7.90254e-01   6.09641e-03 DIIS
   @DF-RHF iter   6:  -270.00326996749612   -1.68381e-01   1.81831e-03 DIIS
   @DF-RHF iter   7:  -270.02104335125904   -1.77734e-02   8.41745e-04 DIIS
   @DF-RHF iter   8:  -270.02585377377983   -4.81042e-03   2.68340e-04 DIIS
   @DF-RHF iter   9:  -270.02651819954218   -6.64426e-04   6.48768e-05 DIIS
   @DF-RHF iter  10:  -270.02656626443064   -4.80649e-05   2.03034e-05 DIIS
   @DF-RHF iter  11:  -270.02657347939140   -7.21496e-06   8.54249e-06 DIIS
   @DF-RHF iter  12:  -270.02657553431737   -2.05493e-06   3.85928e-06 DIIS
   @DF-RHF iter  13:  -270.02657603590961   -5.01592e-07   1.71304e-06 DIIS
   @DF-RHF iter  14:  -270.02657614951676   -1.13607e-07   5.95849e-07 DIIS

  ==> Post-Iterations <==

    Orbital Energies (a.u.)
    -----------------------

    Doubly Occupied:                                                      

       1A    -20.547610     2A    -11.324901     3A    -11.230758  
       4A    -11.229636     5A    -11.228234     6A    -11.218755  
       7A     -1.393855     8A     -1.083521     9A     -1.010775  
      10A     -0.950694    11A     -0.832534    12A     -0.727878  
      13A     -0.659818    14A     -0.642672    15A     -0.622689  
      16A     -0.607891    17A     -0.578295    18A     -0.553295  
      19A     -0.548865    20A     -0.508719    21A     -0.500738  
      22A     -0.482730    23A     -0.471040    24A     -0.398191  

    Virtual:                                                              

      25A      0.164267    26A      0.222142    27A      0.263534  
      28A      0.278745    29A      0.284950    30A      0.293709  
      31A      0.318570    32A      0.328159    33A      0.332039  
      34A      0.348505    35A      0.354456    36A      0.382577  
      37A      0.415801    38A      0.446412    39A      0.486578  
      40A      0.505334    41A      0.698347    42A      0.714629  
      43A      0.741950    44A      0.762927    45A      0.789586  
      46A      0.818167    47A      0.852408    48A      0.880230  
      49A      0.907024    50A      0.910476    51A      0.951019  
      52A      0.981788    53A      1.008417    54A      1.061562  
      55A      1.097127    56A      1.112341    57A      1.129346  
      58A      1.152703    59A      1.156068    60A      1.183946  
      61A      1.192776    62A      1.197030    63A      1.213747  
      64A      1.234225    65A      1.240022    66A      1.268214  
      67A      1.312034    68A      1.352878    69A      1.381885  
      70A      1.440971    71A      1.475974    72A      1.656381  
      73A      1.710692    74A      1.756409    75A      1.794448  
      76A      1.839546    77A      1.925275    78A      1.990000  
      79A      2.058521    80A      2.098747    81A      2.119344  
      82A      2.137863    83A      2.189600    84A      2.253918  
      85A      2.270318    86A      2.305657    87A      2.330978  
      88A      2.386392    89A      2.426585    90A      2.491489  
      91A      2.539860    92A      2.625446    93A      2.648206  
      94A      2.670522    95A      2.691475    96A      2.750752  
      97A      2.775363    98A      2.842143    99A      2.881543  
     100A      3.018535   101A      3.048879   102A      3.115845  
     103A      3.374634   104A      3.378809   105A      4.471636  
     106A      4.535639   107A      4.623818   108A      4.760110  
     109A      4.869574   110A      4.997597  

    Final Occupation by Irrep:
              A 
    DOCC [    24 ]

  Energy converged.

  @DF-RHF Final Energy:  -270.02657614951676

   => Energetics <=

    Nuclear Repulsion Energy =            244.3403901640970730
    One-Electron Energy =                -850.0257968429025368
    Two-Electron Energy =                 335.6588305292882524
    DFT Exchange-Correlation Energy =       0.0000000000000000
    Empirical Dispersion Energy =           0.0000000000000000
    PCM Polarization Energy =               0.0000000000000000
    EFP Energy =                            0.0000000000000000
    Total Energy =                       -270.0265761495172683

    Alert: EFP and PCM quantities not currently incorporated into SCF psivars.

Properties will be evaluated at   0.000000,   0.000000,   0.000000 Bohr
  ==> Properties <==


Properties computed using the SCF density matrix

  Nuclear Dipole Moment: (a.u.)
     X:     4.5714      Y:     4.8007      Z:     0.3599

  Electronic Dipole Moment: (a.u.)
     X:    -3.9336      Y:    -4.0083      Z:     0.2343

  Dipole Moment: (a.u.)
     X:     0.6378      Y:     0.7924      Z:     0.5942     Total:     1.1780

  Dipole Moment: (Debye)
     X:     1.6211      Y:     2.0140      Z:     1.5103     Total:     2.9942


  Saving occupied orbitals to File 180.

*** tstop() called on cx1-3-15-3.cx1.hpc.ic.ac.uk at Tue Jul  5 16:43:58 2016
Module time:
	user time   =       6.66 seconds =       0.11 minutes
	system time =       0.05 seconds =       0.00 minutes
	total time  =          7 seconds =       0.12 minutes
Total time:
	user time   =       6.66 seconds =       0.11 minutes
	system time =       0.05 seconds =       0.00 minutes
	total time  =          7 seconds =       0.12 minutes


Properties will be evaluated at   0.000000,   0.000000,   0.000000 Bohr

Properties computed using the  density matrix

  Nuclear Dipole Moment: (a.u.)
     X:     4.5714      Y:     4.8007      Z:     0.3599

  Electronic Dipole Moment: (a.u.)
     X:    -3.9336      Y:    -4.0083      Z:     0.2343

  Dipole Moment: (a.u.)
     X:     0.6378      Y:     0.7924      Z:     0.5942     Total:     1.1780

  Dipole Moment: (Debye)
     X:     1.6211      Y:     2.0140      Z:     1.5103     Total:     2.9942

  Quadrupole Moment: (Debye Ang)
    XX:   -39.8443     YY:   -40.0452     ZZ:   -37.6488
    XY:    -3.7135     XZ:    -2.0631     YZ:    -1.0709

  Traceless Quadrupole Moment: (Debye Ang)
    XX:    -0.6649     YY:    -0.8657     ZZ:     1.5306
    XY:    -3.7135     XZ:    -2.0631     YZ:    -1.0709

  Mulliken Charges: (a.u.)
   Center  Symbol    Alpha    Beta     Spin     Total
       1     O     4.26273  4.26273  0.00000 -0.52546
       2     C     2.74174  2.74174  0.00000  0.51652
       3     C     3.19892  3.19892  0.00000 -0.39784
       4     C     3.28981  3.28981  0.00000 -0.57962
       5     C     3.15325  3.15325  0.00000 -0.30649
       6     H     0.39905  0.39905  0.00000  0.20191
       7     H     0.41898  0.41898  0.00000  0.16203
       8     C     3.25334  3.25334  0.00000 -0.50668
       9     H     0.41611  0.41611  0.00000  0.16779
      10     H     0.40695  0.40695  0.00000  0.18609
      11     H     0.41296  0.41296  0.00000  0.17408
      12     H     0.42242  0.42242  0.00000  0.15517
      13     H     0.41231  0.41231  0.00000  0.17538
      14     H     0.40914  0.40914  0.00000  0.18172
      15     H     0.39702  0.39702  0.00000  0.20596
      16     H     0.40527  0.40527  0.00000  0.18946

   Total alpha = 24.00000, Total beta = 24.00000, Total charge =  0.00000


*** PSI4 exiting successfully. Buy a developer a beer!
