    -----------------------------------------------------------------------
          Psi4: An Open-Source Ab Initio Electronic Structure Package
                              Psi4 (no tag) Driver

                          Git: Rev {detached?}  

    J. M. Turney, A. C. Simmonett, R. M. Parrish, E. G. Hohenstein,
    F. A. Evangelista, J. T. Fermann, B. J. Mintz, L. A. Burns, J. J. Wilke,
    M. L. Abrams, N. J. Russ, M. L. Leininger, C. L. Janssen, E. T. Seidl,
    W. D. Allen, H. F. Schaefer, R. A. King, E. F. Valeev, C. D. Sherrill,
    and T. D. Crawford, WIREs Comput. Mol. Sci. 2, 556-565 (2012)
    (doi: 10.1002/wcms.93)

                         Additional Contributions by
    A. E. DePrince, M. Saitow, U. Bozkaya, A. Yu. Sokolov
    -----------------------------------------------------------------------


    Psi4 started on: Tue Jul  5 16:42:21 2016

    Process ID:  26596
    PSI4DATADIR: /export131/home/mjharvey/miniconda3/share
    Memory level set to 256.000 MB

  ==> Input File <==

--------------------------------------------------------------------------
set {
	reference rhf
	basis 6-31G*
}


set_num_threads( 1 )
memory 2 gb

molecule MOL {
0 1

H	 0.079024	 -0.534305	 -2.555155
O	 -0.693165	 -1.018407	 -2.279191
C	 -0.424494	 -1.592694	 -1.107166
C	 -0.318135	 -0.576402	 0.000164
O	 -0.292714	 -2.767802	 -0.994247
C	 -1.454360	 0.441875	 -0.000474
H	 -0.278694	 -1.122640	 0.938818
H	 0.648115	 -0.089019	 -0.098941
C	 -2.826123	 -0.230780	 0.000056
H	 -1.357605	 1.085198	 -0.868380
H	 -1.357504	 1.086451	 0.866496
H	 -2.959731	 -0.858053	 -0.876869
H	 -3.619374	 0.509403	 -0.000080
H	 -2.959371	 -0.857318	 0.877556

	symmetry c1
}
set optking {
	frozen_dihedral = ("
		7 4 6 10,
		2 3 4 7
	")
}

ee = energy('scf')
oeprop('DIPOLE', 'QUADRUPOLE', 'MULLIKEN_CHARGES')
f=open( 'psi4out.xyz', 'w' )
f.write( "14  " )
f.write( str(ee) + "\n" )
f.write( MOL.save_string_xyz() )
f.close()
--------------------------------------------------------------------------

  Memory set to   2.000 GiB by Python script.

*** tstart() called on cx1-3-16-4.cx1.hpc.ic.ac.uk
*** at Tue Jul  5 16:42:22 2016


         ---------------------------------------------------------
                                   SCF
            by Justin Turney, Rob Parrish, and Andy Simmonett
                              RHF Reference
                        1 Threads,   2000 MiB Core
         ---------------------------------------------------------

  ==> Geometry <==

    Molecular point group: c1
    Full point group: C1

    Geometry (in Angstrom), charge = 0, multiplicity = 1:

       Center              X                  Y                   Z               Mass       
    ------------   -----------------  -----------------  -----------------  -----------------
           H          1.077791558522     0.429240139098    -1.789958754919     1.007825032070
           O          0.305602558522    -0.054861860902    -1.513994754919    15.994914619560
           C          0.574273558522    -0.629148860902    -0.341969754919    12.000000000000
           C          0.680632558522     0.387143139098     0.765360245081    12.000000000000
           O          0.706053558522    -1.804256860902    -0.229050754919    15.994914619560
           C         -0.455592441478     1.405420139098     0.764722245081    12.000000000000
           H          0.720073558522    -0.159094860902     1.704014245081     1.007825032070
           H          1.646882558522     0.874526139098     0.666255245081     1.007825032070
           C         -1.827355441478     0.732765139098     0.765252245081    12.000000000000
           H         -0.358837441478     2.048743139098    -0.103183754919     1.007825032070
           H         -0.358736441478     2.049996139098     1.631692245081     1.007825032070
           H         -1.960963441478     0.105492139098    -0.111672754919     1.007825032070
           H         -2.620606441478     1.472948139098     0.765116245081     1.007825032070
           H         -1.960603441478     0.106227139098     1.642752245081     1.007825032070

  Running in c1 symmetry.

  Rotational constants: A =      0.19430  B =      0.08133  C =      0.07881 [cm^-1]
  Rotational constants: A =   5825.04830  B =   2438.33387  C =   2362.51489 [MHz]
  Nuclear repulsion =  247.931054567804381

  Charge       = 0
  Multiplicity = 1
  Electrons    = 48
  Nalpha       = 24
  Nbeta        = 24

  ==> Algorithm <==

  SCF Algorithm Type is DF.
  DIIS enabled.
  MOM disabled.
  Fractional occupation disabled.
  Guess Type is CORE.
  Energy threshold   = 1.00e-06
  Density threshold  = 1.00e-06
  Integral threshold = 0.00e+00

  ==> Primary Basis <==

  Basis Set: 6-31G*
    Number of shells: 52
    Number of basis function: 106
    Number of Cartesian functions: 106
    Spherical Harmonics?: false
    Max angular momentum: 2

  ==> Pre-Iterations <==

   -------------------------------------------------------
    Irrep   Nso     Nmo     Nalpha   Nbeta   Ndocc  Nsocc
   -------------------------------------------------------
     A        106     106       0       0       0       0
   -------------------------------------------------------
    Total     106     106      24      24      24       0
   -------------------------------------------------------

 OEINTS: Overlap, kinetic, potential, dipole, and quadrupole integrals
         stored in file 35.

  ==> Integral Setup <==

  ==> DFJK: Density-Fitted J/K Matrices <==

    J tasked:                  Yes
    K tasked:                  Yes
    wK tasked:                  No
    OpenMP threads:              1
    Integrals threads:           1
    Memory (MB):              1430
    Algorithm:                Core
    Integral Cache:           NONE
    Schwarz Cutoff:          1E-12
    Fitting Condition:       1E-12

   => Auxiliary Basis Set <=

  Basis Set: 
    Number of shells: 216
    Number of basis function: 686
    Number of Cartesian functions: 686
    Spherical Harmonics?: false
    Max angular momentum: 3

  Minimum eigenvalue in the overlap matrix is 3.5972374370E-03.
  Using Symmetric Orthogonalization.
  SCF Guess: Core (One-Electron) Hamiltonian.

  ==> Iterations <==

                           Total Energy        Delta E     RMS |[F,P]|

   @DF-RHF iter   1:  -244.27278104054415   -2.44273e+02   7.48072e-02 
   @DF-RHF iter   2:  -165.18155734869634    7.90912e+01   8.49326e-02 DIIS
   @DF-RHF iter   3:  -279.91619431542097   -1.14735e+02   3.77769e-02 DIIS
   @DF-RHF iter   4:  -238.27600601550637    4.16402e+01   7.78637e-02 DIIS
   @DF-RHF iter   5:  -280.24604038365715   -4.19700e+01   5.05613e-02 DIIS
   @DF-RHF iter   6:  -295.94202665922046   -1.56960e+01   3.36950e-02 DIIS
   @DF-RHF iter   7:  -305.36106688057339   -9.41904e+00   8.44841e-03 DIIS
   @DF-RHF iter   8:  -305.77724581543100   -4.16179e-01   3.60988e-03 DIIS
   @DF-RHF iter   9:  -305.82945037127683   -5.22046e-02   1.82109e-03 DIIS
   @DF-RHF iter  10:  -305.85226524886195   -2.28149e-02   5.15512e-04 DIIS
   @DF-RHF iter  11:  -305.85451916300156   -2.25391e-03   1.27978e-04 DIIS
   @DF-RHF iter  12:  -305.85468340053819   -1.64238e-04   4.43029e-05 DIIS
   @DF-RHF iter  13:  -305.85469831979867   -1.49193e-05   1.88276e-05 DIIS
   @DF-RHF iter  14:  -305.85470168479367   -3.36499e-06   5.84308e-06 DIIS
   @DF-RHF iter  15:  -305.85470232622106   -6.41427e-07   2.77905e-06 DIIS
   @DF-RHF iter  16:  -305.85470247299293   -1.46772e-07   1.09990e-06 DIIS
   @DF-RHF iter  17:  -305.85470250997764   -3.69847e-08   3.32555e-07 DIIS

  ==> Post-Iterations <==

    Orbital Energies (a.u.)
    -----------------------

    Doubly Occupied:                                                      

       1A    -20.601734     2A    -20.558763     3A    -11.379736  
       4A    -11.242730     5A    -11.235978     6A    -11.217727  
       7A     -1.469617     8A     -1.370139     9A     -1.088994  
      10A     -0.972406    11A     -0.855281    12A     -0.816608  
      13A     -0.700832    14A     -0.681889    15A     -0.668694  
      16A     -0.623745    17A     -0.602239    18A     -0.562208  
      19A     -0.527377    20A     -0.513759    21A     -0.498626  
      22A     -0.487959    23A     -0.483634    24A     -0.439762  

    Virtual:                                                              

      25A      0.164541    26A      0.205830    27A      0.253083  
      28A      0.282393    29A      0.285491    30A      0.303418  
      31A      0.325011    32A      0.332962    33A      0.345440  
      34A      0.385121    35A      0.413768    36A      0.438902  
      37A      0.508375    38A      0.576284    39A      0.702440  
      40A      0.716527    41A      0.738385    42A      0.787371  
      43A      0.835761    44A      0.845198    45A      0.858306  
      46A      0.899522    47A      0.930274    48A      0.958221  
      49A      1.005669    50A      1.036876    51A      1.081326  
      52A      1.105438    53A      1.123169    54A      1.144800  
      55A      1.162753    56A      1.177473    57A      1.193373  
      58A      1.206244    59A      1.222546    60A      1.248759  
      61A      1.270101    62A      1.294395    63A      1.342221  
      64A      1.362819    65A      1.380828    66A      1.458978  
      67A      1.553135    68A      1.638572    69A      1.680814  
      70A      1.774185    71A      1.859429    72A      1.900130  
      73A      1.940634    74A      1.991219    75A      2.039078  
      76A      2.056807    77A      2.116139    78A      2.122508  
      79A      2.148900    80A      2.205740    81A      2.259656  
      82A      2.287645    83A      2.326361    84A      2.385971  
      85A      2.419426    86A      2.470154    87A      2.588514  
      88A      2.631994    89A      2.649132    90A      2.692918  
      91A      2.755901    92A      2.799840    93A      2.863423  
      94A      2.912418    95A      3.003931    96A      3.049404  
      97A      3.159255    98A      3.232499    99A      3.379211  
     100A      3.483516   101A      4.264123   102A      4.511142  
     103A      4.613560   104A      4.703942   105A      4.855009  
     106A      4.963071  

    Final Occupation by Irrep:
              A 
    DOCC [    24 ]

  Energy converged.

  @DF-RHF Final Energy:  -305.85470250997764

   => Energetics <=

    Nuclear Repulsion Energy =            247.9310545678043809
    One-Electron Energy =                -908.3706158726986359
    Two-Electron Energy =                 354.5848587949164994
    DFT Exchange-Correlation Energy =       0.0000000000000000
    Empirical Dispersion Energy =           0.0000000000000000
    PCM Polarization Energy =               0.0000000000000000
    EFP Energy =                            0.0000000000000000
    Total Energy =                       -305.8547025099777557

    Alert: EFP and PCM quantities not currently incorporated into SCF psivars.

Properties will be evaluated at   0.000000,   0.000000,   0.000000 Bohr
  ==> Properties <==


Properties computed using the SCF density matrix

  Nuclear Dipole Moment: (a.u.)
     X:    -3.5716      Y:     6.4859      Z:     4.1212

  Electronic Dipole Moment: (a.u.)
     X:     4.0124      Y:    -5.0294      Z:    -3.9261

  Dipole Moment: (a.u.)
     X:     0.4408      Y:     1.4565      Z:     0.1951     Total:     1.5342

  Dipole Moment: (Debye)
     X:     1.1205      Y:     3.7021      Z:     0.4959     Total:     3.8996


  Saving occupied orbitals to File 180.

*** tstop() called on cx1-3-16-4.cx1.hpc.ic.ac.uk at Tue Jul  5 16:42:29 2016
Module time:
	user time   =       6.62 seconds =       0.11 minutes
	system time =       0.06 seconds =       0.00 minutes
	total time  =          7 seconds =       0.12 minutes
Total time:
	user time   =       6.62 seconds =       0.11 minutes
	system time =       0.06 seconds =       0.00 minutes
	total time  =          7 seconds =       0.12 minutes


Properties will be evaluated at   0.000000,   0.000000,   0.000000 Bohr

Properties computed using the  density matrix

  Nuclear Dipole Moment: (a.u.)
     X:    -3.5716      Y:     6.4859      Z:     4.1212

  Electronic Dipole Moment: (a.u.)
     X:     4.0124      Y:    -5.0294      Z:    -3.9261

  Dipole Moment: (a.u.)
     X:     0.4408      Y:     1.4565      Z:     0.1951     Total:     1.5342

  Dipole Moment: (Debye)
     X:     1.1205      Y:     3.7021      Z:     0.4959     Total:     3.8996

  Quadrupole Moment: (Debye Ang)
    XX:   -33.9532     YY:   -42.7028     ZZ:   -36.0956
    XY:     3.1833     XZ:    -2.9457     YZ:    -1.9400

  Traceless Quadrupole Moment: (Debye Ang)
    XX:     3.6307     YY:    -5.1190     ZZ:     1.4883
    XY:     3.1833     XZ:    -2.9457     YZ:    -1.9400

  Mulliken Charges: (a.u.)
   Center  Symbol    Alpha    Beta     Spin     Total
       1     H     0.26679  0.26679  0.00000  0.46641
       2     O     4.35079  4.35079  0.00000 -0.70158
       3     C     2.63802  2.63802  0.00000  0.72395
       4     C     3.21535  3.21535  0.00000 -0.43071
       5     O     4.25192  4.25192  0.00000 -0.50385
       6     C     3.15169  3.15169  0.00000 -0.30338
       7     H     0.39720  0.39720  0.00000  0.20559
       8     H     0.40874  0.40874  0.00000  0.18252
       9     C     3.25060  3.25060  0.00000 -0.50119
      10     H     0.41650  0.41650  0.00000  0.16699
      11     H     0.41351  0.41351  0.00000  0.17299
      12     H     0.40735  0.40735  0.00000  0.18530
      13     H     0.41491  0.41491  0.00000  0.17019
      14     H     0.41662  0.41662  0.00000  0.16677

   Total alpha = 24.00000, Total beta = 24.00000, Total charge = -0.00000


*** PSI4 exiting successfully. Buy a developer a beer!
