    -----------------------------------------------------------------------
          Psi4: An Open-Source Ab Initio Electronic Structure Package
                              Psi4 (no tag) Driver

                          Git: Rev {detached?}  

    J. M. Turney, A. C. Simmonett, R. M. Parrish, E. G. Hohenstein,
    F. A. Evangelista, J. T. Fermann, B. J. Mintz, L. A. Burns, J. J. Wilke,
    M. L. Abrams, N. J. Russ, M. L. Leininger, C. L. Janssen, E. T. Seidl,
    W. D. Allen, H. F. Schaefer, R. A. King, E. F. Valeev, C. D. Sherrill,
    and T. D. Crawford, WIREs Comput. Mol. Sci. 2, 556-565 (2012)
    (doi: 10.1002/wcms.93)

                         Additional Contributions by
    A. E. DePrince, M. Saitow, U. Bozkaya, A. Yu. Sokolov
    -----------------------------------------------------------------------


    Psi4 started on: Tue Jul  5 16:52:30 2016

    Process ID:  14630
    PSI4DATADIR: /export131/home/mjharvey/miniconda3/share
    Memory level set to 256.000 MB

  ==> Input File <==

--------------------------------------------------------------------------
set {
	reference rhf
	basis 6-31G*
}


set_num_threads( 1 )
memory 2 gb

molecule MOL {
0 1

H	 -2.153054	 -2.250733	 0.000000
O	 -2.462445	 -1.355403	 0.000000
C	 -1.434260	 -0.483044	 0.000000
C	 -0.160282	 -0.998433	 0.214627
C	 -1.606806	 0.873172	 -0.202032
H	 -0.050522	 -2.055314	 0.369249
C	 0.931284	 -0.154718	 0.225708
H	 -2.586306	 1.284548	 -0.369080
C	 -0.495009	 1.711703	 -0.187945
H	 1.912113	 -0.560710	 0.392185
C	 0.777868	 1.209965	 0.024721
C	 -0.683838	 3.129388	 -0.400099
H	 1.624995	 1.868669	 0.032793
N	 -0.831491	 4.243155	 -0.569290

	symmetry c1
}
set optking {
	frozen_dihedral = ("
		5 3 2 1
	")
}

ee = energy('scf')
oeprop('DIPOLE', 'QUADRUPOLE', 'MULLIKEN_CHARGES')
f=open( 'psi4out.xyz', 'w' )
f.write( "14  " )
f.write( str(ee) + "\n" )
f.write( MOL.save_string_xyz() )
f.close()
--------------------------------------------------------------------------

  Memory set to   2.000 GiB by Python script.

*** tstart() called on cx1-3-4-4.cx1.hpc.ic.ac.uk
*** at Tue Jul  5 16:52:30 2016


         ---------------------------------------------------------
                                   SCF
            by Justin Turney, Rob Parrish, and Andy Simmonett
                              RHF Reference
                        1 Threads,   2000 MiB Core
         ---------------------------------------------------------

  ==> Geometry <==

    Molecular point group: c1
    Full point group: C1

    Geometry (in Angstrom), charge = 0, multiplicity = 1:

       Center              X                  Y                   Z               Mass       
    ------------   -----------------  -----------------  -----------------  -----------------
           H         -1.444492461059    -3.086330424624     0.096134523490     1.007825032070
           O         -1.753883461059    -2.191000424624     0.096134523490    15.994914619560
           C         -0.725698461059    -1.318641424624     0.096134523490    12.000000000000
           C          0.548279538941    -1.834030424624     0.310761523490    12.000000000000
           C         -0.898244461059     0.037574575376    -0.105897476510    12.000000000000
           H          0.658039538941    -2.890911424624     0.465383523490     1.007825032070
           C          1.639845538941    -0.990315424624     0.321842523490    12.000000000000
           H         -1.877744461059     0.448950575376    -0.272945476510     1.007825032070
           C          0.213552538941     0.876105575376    -0.091810476510    12.000000000000
           H          2.620674538941    -1.396307424624     0.488319523490     1.007825032070
           C          1.486429538941     0.374367575376     0.120855523490    12.000000000000
           C          0.024723538941     2.293790575376    -0.303964476510    12.000000000000
           H          2.333556538941     1.033071575376     0.128927523490     1.007825032070
           N         -0.122929461059     3.407557575376    -0.473155476510    14.003074004780

  Running in c1 symmetry.

  Rotational constants: A =      0.11888  B =      0.04008  C =      0.02997 [cm^-1]
  Rotational constants: A =   3563.90168  B =   1201.43241  C =    898.60140 [MHz]
  Nuclear repulsion =  379.327279992955255

  Charge       = 0
  Multiplicity = 1
  Electrons    = 62
  Nalpha       = 31
  Nbeta        = 31

  ==> Algorithm <==

  SCF Algorithm Type is DF.
  DIIS enabled.
  MOM disabled.
  Fractional occupation disabled.
  Guess Type is CORE.
  Energy threshold   = 1.00e-06
  Density threshold  = 1.00e-06
  Integral threshold = 0.00e+00

  ==> Primary Basis <==

  Basis Set: 6-31G*
    Number of shells: 64
    Number of basis function: 145
    Number of Cartesian functions: 145
    Spherical Harmonics?: false
    Max angular momentum: 2

  ==> Pre-Iterations <==

   -------------------------------------------------------
    Irrep   Nso     Nmo     Nalpha   Nbeta   Ndocc  Nsocc
   -------------------------------------------------------
     A        145     145       0       0       0       0
   -------------------------------------------------------
    Total     145     145      31      31      31       0
   -------------------------------------------------------

 OEINTS: Overlap, kinetic, potential, dipole, and quadrupole integrals
         stored in file 35.

  ==> Integral Setup <==

  ==> DFJK: Density-Fitted J/K Matrices <==

    J tasked:                  Yes
    K tasked:                  Yes
    wK tasked:                  No
    OpenMP threads:              1
    Integrals threads:           1
    Memory (MB):              1430
    Algorithm:                Core
    Integral Cache:           NONE
    Schwarz Cutoff:          1E-12
    Fitting Condition:       1E-12

   => Auxiliary Basis Set <=

  Basis Set: 
    Number of shells: 261
    Number of basis function: 854
    Number of Cartesian functions: 854
    Spherical Harmonics?: false
    Max angular momentum: 3

  Minimum eigenvalue in the overlap matrix is 4.1966546245E-04.
  Using Symmetric Orthogonalization.
  SCF Guess: Core (One-Electron) Hamiltonian.

  ==> Iterations <==

                           Total Energy        Delta E     RMS |[F,P]|

   @DF-RHF iter   1:  -309.44018990194616   -3.09440e+02   6.50338e-02 
   @DF-RHF iter   2:  -146.50490351706674    1.62935e+02   7.88078e-02 DIIS
   @DF-RHF iter   3:  -317.80749616277092   -1.71303e+02   5.28262e-02 DIIS
   @DF-RHF iter   4:  -342.09201619110945   -2.42845e+01   5.26486e-02 DIIS
   @DF-RHF iter   5:  -395.87234453924384   -5.37803e+01   1.08324e-02 DIIS
   @DF-RHF iter   6:  -397.09142308659079   -1.21908e+00   4.28319e-03 DIIS
   @DF-RHF iter   7:  -397.27037329540167   -1.78950e-01   1.19008e-03 DIIS
   @DF-RHF iter   8:  -397.28590925505478   -1.55360e-02   4.34260e-04 DIIS
   @DF-RHF iter   9:  -397.28843713428978   -2.52788e-03   1.40351e-04 DIIS
   @DF-RHF iter  10:  -397.28882115629756   -3.84022e-04   6.02814e-05 DIIS
   @DF-RHF iter  11:  -397.28892388490965   -1.02729e-04   3.04308e-05 DIIS
   @DF-RHF iter  12:  -397.28897331019516   -4.94253e-05   1.36379e-05 DIIS
   @DF-RHF iter  13:  -397.28898286393871   -9.55374e-06   7.14591e-06 DIIS
   @DF-RHF iter  14:  -397.28898619219558   -3.32826e-06   2.39651e-06 DIIS
   @DF-RHF iter  15:  -397.28898644234766   -2.50152e-07   5.75676e-07 DIIS

  ==> Post-Iterations <==

    Orbital Energies (a.u.)
    -----------------------

    Doubly Occupied:                                                      

       1A    -20.611047     2A    -15.574811     3A    -11.327056  
       4A    -11.294964     5A    -11.275905     6A    -11.264871  
       7A    -11.261203     8A    -11.259548     9A    -11.258562  
      10A     -1.433015    11A     -1.232412    12A     -1.182514  
      13A     -1.063422    14A     -1.039939    15A     -0.898839  
      16A     -0.859235    17A     -0.793922    18A     -0.718018  
      19A     -0.691181    20A     -0.675860    21A     -0.629004  
      22A     -0.614659    23A     -0.592230    24A     -0.566872  
      25A     -0.547166    26A     -0.538132    27A     -0.522302  
      28A     -0.473587    29A     -0.472042    30A     -0.363661  
      31A     -0.337544  

    Virtual:                                                              

      32A      0.085757    33A      0.132539    34A      0.200300  
      35A      0.220349    36A      0.225881    37A      0.274073  
      38A      0.280440    39A      0.290825    40A      0.330316  
      41A      0.369321    42A      0.378520    43A      0.437627  
      44A      0.455213    45A      0.468646    46A      0.485856  
      47A      0.570718    48A      0.598732    49A      0.633652  
      50A      0.700293    51A      0.713990    52A      0.717191  
      53A      0.757324    54A      0.782769    55A      0.793272  
      56A      0.803105    57A      0.804022    58A      0.827384  
      59A      0.852285    60A      0.856732    61A      0.871004  
      62A      0.884258    63A      0.887595    64A      0.937565  
      65A      0.955031    66A      0.993270    67A      0.996671  
      68A      1.064725    69A      1.090035    70A      1.103506  
      71A      1.104234    72A      1.122944    73A      1.126893  
      74A      1.138769    75A      1.169642    76A      1.188545  
      77A      1.220748    78A      1.232542    79A      1.262292  
      80A      1.331410    81A      1.376254    82A      1.392008  
      83A      1.437545    84A      1.450244    85A      1.465307  
      86A      1.518269    87A      1.558959    88A      1.587416  
      89A      1.610031    90A      1.634462    91A      1.687990  
      92A      1.701498    93A      1.730376    94A      1.733406  
      95A      1.799781    96A      1.807051    97A      1.844886  
      98A      1.983347    99A      2.024200   100A      2.062181  
     101A      2.079564   102A      2.102792   103A      2.110585  
     104A      2.154379   105A      2.227482   106A      2.241671  
     107A      2.261979   108A      2.285165   109A      2.292198  
     110A      2.295490   111A      2.329962   112A      2.388407  
     113A      2.423088   114A      2.440321   115A      2.454384  
     116A      2.537132   117A      2.585605   118A      2.614099  
     119A      2.623415   120A      2.754256   121A      2.824862  
     122A      2.843167   123A      2.868025   124A      2.928857  
     125A      2.994069   126A      3.004539   127A      3.023830  
     128A      3.097846   129A      3.138818   130A      3.168870  
     131A      3.209111   132A      3.280575   133A      3.382113  
     134A      3.562799   135A      3.674704   136A      3.870789  
     137A      4.348292   138A      4.465610   139A      4.506290  
     140A      4.559645   141A      4.613449   142A      4.720950  
     143A      4.828581   144A      4.970599   145A      5.257845  

    Final Occupation by Irrep:
              A 
    DOCC [    31 ]

  Energy converged.

  @DF-RHF Final Energy:  -397.28898644234766

   => Energetics <=

    Nuclear Repulsion Energy =            379.3272799929552548
    One-Electron Energy =               -1290.4852698890799729
    Two-Electron Energy =                 513.8690034537777365
    DFT Exchange-Correlation Energy =       0.0000000000000000
    Empirical Dispersion Energy =           0.0000000000000000
    PCM Polarization Energy =               0.0000000000000000
    EFP Energy =                            0.0000000000000000
    Total Energy =                       -397.2889864423469817

    Alert: EFP and PCM quantities not currently incorporated into SCF psivars.

Properties will be evaluated at   0.000000,   0.000000,   0.000000 Bohr
  ==> Properties <==


Properties computed using the SCF density matrix

  Nuclear Dipole Moment: (a.u.)
     X:     2.1388      Y:    -5.5436      Z:     0.8510

  Electronic Dipole Moment: (a.u.)
     X:    -1.4441      Y:     3.3463      Z:    -0.5863

  Dipole Moment: (a.u.)
     X:     0.6947      Y:    -2.1973      Z:     0.2647     Total:     2.3196

  Dipole Moment: (Debye)
     X:     1.7656      Y:    -5.5849      Z:     0.6727     Total:     5.8959


  Saving occupied orbitals to File 180.

*** tstop() called on cx1-3-4-4.cx1.hpc.ic.ac.uk at Tue Jul  5 16:52:46 2016
Module time:
	user time   =      15.55 seconds =       0.26 minutes
	system time =       0.10 seconds =       0.00 minutes
	total time  =         16 seconds =       0.27 minutes
Total time:
	user time   =      15.55 seconds =       0.26 minutes
	system time =       0.10 seconds =       0.00 minutes
	total time  =         16 seconds =       0.27 minutes


Properties will be evaluated at   0.000000,   0.000000,   0.000000 Bohr

Properties computed using the  density matrix

  Nuclear Dipole Moment: (a.u.)
     X:     2.1388      Y:    -5.5436      Z:     0.8510

  Electronic Dipole Moment: (a.u.)
     X:    -1.4441      Y:     3.3463      Z:    -0.5863

  Dipole Moment: (a.u.)
     X:     0.6947      Y:    -2.1973      Z:     0.2647     Total:     2.3196

  Dipole Moment: (Debye)
     X:     1.7656      Y:    -5.5849      Z:     0.6727     Total:     5.8959

  Quadrupole Moment: (Debye Ang)
    XX:   -48.8402     YY:   -56.9772     ZZ:   -54.2028
    XY:    -0.2582     XZ:     1.0691     YZ:     1.3856

  Traceless Quadrupole Moment: (Debye Ang)
    XX:     4.4999     YY:    -3.6371     ZZ:    -0.8627
    XY:    -0.2582     XZ:     1.0691     YZ:     1.3856

  Mulliken Charges: (a.u.)
   Center  Symbol    Alpha    Beta     Spin     Total
       1     H     0.26692  0.26692  0.00000  0.46615
       2     O     4.37907  4.37907  0.00000 -0.75815
       3     C     2.78297  2.78297  0.00000  0.43406
       4     C     3.13897  3.13897  0.00000 -0.27794
       5     C     3.11592  3.11592  0.00000 -0.23185
       6     H     0.39660  0.39660  0.00000  0.20680
       7     C     3.09484  3.09484  0.00000 -0.18969
       8     H     0.37403  0.37403  0.00000  0.25193
       9     C     2.99088  2.99088  0.00000  0.01823
      10     H     0.38937  0.38937  0.00000  0.22125
      11     C     3.09953  3.09953  0.00000 -0.19906
      12     C     2.86527  2.86527  0.00000  0.26945
      13     H     0.38121  0.38121  0.00000  0.23758
      14     N     3.72439  3.72439  0.00000 -0.44879

   Total alpha = 31.00000, Total beta = 31.00000, Total charge =  0.00000


*** PSI4 exiting successfully. Buy a developer a beer!
