    -----------------------------------------------------------------------
          Psi4: An Open-Source Ab Initio Electronic Structure Package
                              Psi4 (no tag) Driver

                          Git: Rev {detached?}  

    J. M. Turney, A. C. Simmonett, R. M. Parrish, E. G. Hohenstein,
    F. A. Evangelista, J. T. Fermann, B. J. Mintz, L. A. Burns, J. J. Wilke,
    M. L. Abrams, N. J. Russ, M. L. Leininger, C. L. Janssen, E. T. Seidl,
    W. D. Allen, H. F. Schaefer, R. A. King, E. F. Valeev, C. D. Sherrill,
    and T. D. Crawford, WIREs Comput. Mol. Sci. 2, 556-565 (2012)
    (doi: 10.1002/wcms.93)

                         Additional Contributions by
    A. E. DePrince, M. Saitow, U. Bozkaya, A. Yu. Sokolov
    -----------------------------------------------------------------------


    Psi4 started on: Tue Jul  5 16:41:27 2016

    Process ID:  25585
    PSI4DATADIR: /export131/home/mjharvey/miniconda3/share
    Memory level set to 256.000 MB

  ==> Input File <==

--------------------------------------------------------------------------
set {
	reference rhf
	basis 6-31G*
}


set_num_threads( 1 )
memory 2 gb

molecule MOL {
0 1

O	 -0.609692	 -0.037852	 0.654353
C	 -0.451170	 -1.129930	 1.097049
C	 0.801727	 -1.959116	 0.945507
O	 -1.374845	 -1.776253	 1.794687
C	 1.124911	 -2.785238	 2.184071
H	 1.613075	 -1.280220	 0.700432
H	 0.669725	 -2.590969	 0.072237
H	 1.272053	 -2.149836	 3.048928
H	 2.030738	 -3.360307	 2.024106
H	 0.320287	 -3.472711	 2.414906
C	 -2.615120	 -1.113161	 2.017008
C	 -2.349376	 0.042959	 2.957794
H	 -3.320569	 -1.816735	 2.437613
H	 -3.008848	 -0.774387	 1.068429
H	 -1.950368	 -0.312438	 3.901003
H	 -3.272474	 0.578270	 3.155229
H	 -1.636986	 0.735720	 2.524389

	symmetry c1
}
set optking {
	frozen_dihedral = ("
		2 4 11 13,
		11 4 2 3
	")
}

ee = energy('scf')
oeprop('DIPOLE', 'QUADRUPOLE', 'MULLIKEN_CHARGES')
f=open( 'psi4out.xyz', 'w' )
f.write( "17  " )
f.write( str(ee) + "\n" )
f.write( MOL.save_string_xyz() )
f.close()
--------------------------------------------------------------------------

  Memory set to   2.000 GiB by Python script.

*** tstart() called on cx1-3-16-4.cx1.hpc.ic.ac.uk
*** at Tue Jul  5 16:41:27 2016


         ---------------------------------------------------------
                                   SCF
            by Justin Turney, Rob Parrish, and Andy Simmonett
                              RHF Reference
                        1 Threads,   2000 MiB Core
         ---------------------------------------------------------

  ==> Geometry <==

    Molecular point group: c1
    Full point group: C1

    Geometry (in Angstrom), charge = 0, multiplicity = 1:

       Center              X                  Y                   Z               Mass       
    ------------   -----------------  -----------------  -----------------  -----------------
           O          0.183417812625     1.205503629577    -1.022014866681    15.994914619560
           C          0.341939812625     0.113425629577    -0.579318866681    12.000000000000
           C          1.594836812625    -0.715760370423    -0.730860866681    12.000000000000
           O         -0.581735187375    -0.532897370423     0.118319133319    15.994914619560
           C          1.918020812625    -1.541882370423     0.507703133319    12.000000000000
           H          2.406184812625    -0.036864370423    -0.975935866681     1.007825032070
           H          1.462834812625    -1.347613370423    -1.604130866681     1.007825032070
           H          2.065162812625    -0.906480370423     1.372560133319     1.007825032070
           H          2.823847812625    -2.116951370423     0.347738133319     1.007825032070
           H          1.113396812625    -2.229355370423     0.738538133319     1.007825032070
           C         -1.822010187375     0.130194629577     0.340640133319    12.000000000000
           C         -1.556266187375     1.286314629577     1.281426133319    12.000000000000
           H         -2.527459187375    -0.573379370423     0.761245133319     1.007825032070
           H         -2.215738187375     0.468968629577    -0.607938866681     1.007825032070
           H         -1.157258187375     0.930917629577     2.224635133319     1.007825032070
           H         -2.479364187375     1.821625629577     1.478861133319     1.007825032070
           H         -0.843876187375     1.979075629577     0.848021133319     1.007825032070

  Running in c1 symmetry.

  Rotational constants: A =      0.15576  B =      0.05945  C =      0.05066 [cm^-1]
  Rotational constants: A =   4669.65916  B =   1782.23014  C =   1518.70120 [MHz]
  Nuclear repulsion =  324.954729245532576

  Charge       = 0
  Multiplicity = 1
  Electrons    = 56
  Nalpha       = 28
  Nbeta        = 28

  ==> Algorithm <==

  SCF Algorithm Type is DF.
  DIIS enabled.
  MOM disabled.
  Fractional occupation disabled.
  Guess Type is CORE.
  Energy threshold   = 1.00e-06
  Density threshold  = 1.00e-06
  Integral threshold = 0.00e+00

  ==> Primary Basis <==

  Basis Set: 6-31G*
    Number of shells: 62
    Number of basis function: 125
    Number of Cartesian functions: 125
    Spherical Harmonics?: false
    Max angular momentum: 2

  ==> Pre-Iterations <==

   -------------------------------------------------------
    Irrep   Nso     Nmo     Nalpha   Nbeta   Ndocc  Nsocc
   -------------------------------------------------------
     A        125     125       0       0       0       0
   -------------------------------------------------------
    Total     125     125      28      28      28       0
   -------------------------------------------------------

 OEINTS: Overlap, kinetic, potential, dipole, and quadrupole integrals
         stored in file 35.

  ==> Integral Setup <==

  ==> DFJK: Density-Fitted J/K Matrices <==

    J tasked:                  Yes
    K tasked:                  Yes
    wK tasked:                  No
    OpenMP threads:              1
    Integrals threads:           1
    Memory (MB):              1430
    Algorithm:                Core
    Integral Cache:           NONE
    Schwarz Cutoff:          1E-12
    Fitting Condition:       1E-12

   => Auxiliary Basis Set <=

  Basis Set: 
    Number of shells: 258
    Number of basis function: 817
    Number of Cartesian functions: 817
    Spherical Harmonics?: false
    Max angular momentum: 3

  Minimum eigenvalue in the overlap matrix is 3.2278554419E-03.
  Using Symmetric Orthogonalization.
  SCF Guess: Core (One-Electron) Hamiltonian.

  ==> Iterations <==

                           Total Energy        Delta E     RMS |[F,P]|

   @DF-RHF iter   1:  -236.70000042740810   -2.36700e+02   8.40943e-02 
   @DF-RHF iter   2:  -228.13516748664904    8.56483e+00   6.51599e-02 DIIS
   @DF-RHF iter   3:  -307.57770400579227   -7.94425e+01   4.66722e-02 DIIS
   @DF-RHF iter   4:  -344.00198825018299   -3.64243e+01   1.04578e-02 DIIS
   @DF-RHF iter   5:  -344.75252035758797   -7.50532e-01   4.85066e-03 DIIS
   @DF-RHF iter   6:  -344.88516170981904   -1.32641e-01   1.47522e-03 DIIS
   @DF-RHF iter   7:  -344.89991774568023   -1.47560e-02   6.70276e-04 DIIS
   @DF-RHF iter   8:  -344.90372736804522   -3.80962e-03   2.01678e-04 DIIS
   @DF-RHF iter   9:  -344.90417198089744   -4.44613e-04   5.68739e-05 DIIS
   @DF-RHF iter  10:  -344.90421474083473   -4.27599e-05   1.55253e-05 DIIS
   @DF-RHF iter  11:  -344.90421891814776   -4.17731e-06   5.07701e-06 DIIS
   @DF-RHF iter  12:  -344.90421935350491   -4.35357e-07   1.80893e-06 DIIS
   @DF-RHF iter  13:  -344.90421941693933   -6.34344e-08   6.66854e-07 DIIS

  ==> Post-Iterations <==

    Orbital Energies (a.u.)
    -----------------------

    Doubly Occupied:                                                      

       1A    -20.602030     2A    -20.543206     3A    -11.373325  
       4A    -11.285650     5A    -11.237734     6A    -11.220893  
       7A    -11.210176     8A     -1.469943     9A     -1.362775  
      10A     -1.074216    11A     -1.023220    12A     -0.906178  
      13A     -0.868435    14A     -0.760909    15A     -0.702900  
      16A     -0.685515    17A     -0.654656    18A     -0.619242  
      19A     -0.604570    20A     -0.566692    21A     -0.556960  
      22A     -0.540213    23A     -0.522763    24A     -0.513676  
      25A     -0.500577    26A     -0.487272    27A     -0.448533  
      28A     -0.430011  

    Virtual:                                                              

      29A      0.193436    30A      0.242140    31A      0.262792  
      32A      0.286950    33A      0.298630    34A      0.304820  
      35A      0.307212    36A      0.320558    37A      0.324147  
      38A      0.341328    39A      0.353148    40A      0.369046  
      41A      0.397677    42A      0.420100    43A      0.445812  
      44A      0.518531    45A      0.574126    46A      0.711690  
      47A      0.722100    48A      0.736755    49A      0.741555  
      50A      0.757354    51A      0.781395    52A      0.786476  
      53A      0.818512    54A      0.878497    55A      0.915430  
      56A      0.918463    57A      0.958300    58A      1.004101  
      59A      1.010393    60A      1.052620    61A      1.080243  
      62A      1.113233    63A      1.138408    64A      1.140559  
      65A      1.169133    66A      1.171814    67A      1.187148  
      68A      1.200587    69A      1.205533    70A      1.230419  
      71A      1.238761    72A      1.251217    73A      1.263201  
      74A      1.324048    75A      1.376747    76A      1.407575  
      77A      1.423832    78A      1.472092    79A      1.614735  
      80A      1.640718    81A      1.703927    82A      1.716996  
      83A      1.771999    84A      1.779740    85A      1.861548  
      86A      1.913435    87A      1.982930    88A      2.026290  
      89A      2.071779    90A      2.120830    91A      2.134845  
      92A      2.179987    93A      2.205338    94A      2.242624  
      95A      2.254719    96A      2.283176    97A      2.293692  
      98A      2.353525    99A      2.369766   100A      2.431067  
     101A      2.492529   102A      2.583266   103A      2.603084  
     104A      2.642259   105A      2.657434   106A      2.692118  
     107A      2.727977   108A      2.753671   109A      2.772988  
     110A      2.812972   111A      2.911558   112A      2.925886  
     113A      3.040026   114A      3.104660   115A      3.170166  
     116A      3.361288   117A      3.432475   118A      3.561357  
     119A      4.438414   120A      4.545204   121A      4.649790  
     122A      4.676504   123A      4.756122   124A      4.856131  
     125A      4.987398  

    Final Occupation by Irrep:
              A 
    DOCC [    28 ]

  Energy converged.

  @DF-RHF Final Energy:  -344.90421941693933

   => Energetics <=

    Nuclear Repulsion Energy =            324.9547292455325760
    One-Electron Energy =               -1114.1732469847067932
    Two-Electron Energy =                 444.3142983222357998
    DFT Exchange-Correlation Energy =       0.0000000000000000
    Empirical Dispersion Energy =           0.0000000000000000
    PCM Polarization Energy =               0.0000000000000000
    EFP Energy =                            0.0000000000000000
    Total Energy =                       -344.9042194169384175

    Alert: EFP and PCM quantities not currently incorporated into SCF psivars.

Properties will be evaluated at   0.000000,   0.000000,   0.000000 Bohr
  ==> Properties <==


Properties computed using the SCF density matrix

  Nuclear Dipole Moment: (a.u.)
     X:     0.6053      Y:    -1.8811      Z:     4.2926

  Electronic Dipole Moment: (a.u.)
     X:    -0.7271      Y:     1.2245      Z:    -3.9247

  Dipole Moment: (a.u.)
     X:    -0.1218      Y:    -0.6566      Z:     0.3679     Total:     0.7625

  Dipole Moment: (Debye)
     X:    -0.3096      Y:    -1.6690      Z:     0.9351     Total:     1.9380


  Saving occupied orbitals to File 180.

*** tstop() called on cx1-3-16-4.cx1.hpc.ic.ac.uk at Tue Jul  5 16:41:38 2016
Module time:
	user time   =      10.51 seconds =       0.18 minutes
	system time =       0.07 seconds =       0.00 minutes
	total time  =         11 seconds =       0.18 minutes
Total time:
	user time   =      10.51 seconds =       0.18 minutes
	system time =       0.07 seconds =       0.00 minutes
	total time  =         11 seconds =       0.18 minutes


Properties will be evaluated at   0.000000,   0.000000,   0.000000 Bohr

Properties computed using the  density matrix

  Nuclear Dipole Moment: (a.u.)
     X:     0.6053      Y:    -1.8811      Z:     4.2926

  Electronic Dipole Moment: (a.u.)
     X:    -0.7271      Y:     1.2245      Z:    -3.9247

  Dipole Moment: (a.u.)
     X:    -0.1218      Y:    -0.6566      Z:     0.3679     Total:     0.7625

  Dipole Moment: (Debye)
     X:    -0.3096      Y:    -1.6690      Z:     0.9351     Total:     1.9380

  Quadrupole Moment: (Debye Ang)
    XX:   -37.7262     YY:   -46.7248     ZZ:   -44.2433
    XY:    -1.7419     XZ:    -0.8808     YZ:     3.6569

  Traceless Quadrupole Moment: (Debye Ang)
    XX:     5.1719     YY:    -3.8267     ZZ:    -1.3452
    XY:    -1.7419     XZ:    -0.8808     YZ:     3.6569

  Mulliken Charges: (a.u.)
   Center  Symbol    Alpha    Beta     Spin     Total
       1     O     4.28921  4.28921  0.00000 -0.57843
       2     C     2.60595  2.60595  0.00000  0.78811
       3     C     3.20421  3.20421  0.00000 -0.40841
       4     O     4.30913  4.30913  0.00000 -0.61826
       5     C     3.24434  3.24434  0.00000 -0.48868
       6     H     0.39854  0.39854  0.00000  0.20293
       7     H     0.40046  0.40046  0.00000  0.19908
       8     H     0.41560  0.41560  0.00000  0.16881
       9     H     0.41567  0.41567  0.00000  0.16866
      10     H     0.40498  0.40498  0.00000  0.19003
      11     C     3.00670  3.00670  0.00000 -0.01341
      12     C     3.26303  3.26303  0.00000 -0.52606
      13     H     0.40783  0.40783  0.00000  0.18434
      14     H     0.40719  0.40719  0.00000  0.18561
      15     H     0.41702  0.41702  0.00000  0.16595
      16     H     0.42021  0.42021  0.00000  0.15959
      17     H     0.38993  0.38993  0.00000  0.22014

   Total alpha = 28.00000, Total beta = 28.00000, Total charge = -0.00000


*** PSI4 exiting successfully. Buy a developer a beer!
