    -----------------------------------------------------------------------
          Psi4: An Open-Source Ab Initio Electronic Structure Package
                              Psi4 (no tag) Driver

                          Git: Rev {detached?}  

    J. M. Turney, A. C. Simmonett, R. M. Parrish, E. G. Hohenstein,
    F. A. Evangelista, J. T. Fermann, B. J. Mintz, L. A. Burns, J. J. Wilke,
    M. L. Abrams, N. J. Russ, M. L. Leininger, C. L. Janssen, E. T. Seidl,
    W. D. Allen, H. F. Schaefer, R. A. King, E. F. Valeev, C. D. Sherrill,
    and T. D. Crawford, WIREs Comput. Mol. Sci. 2, 556-565 (2012)
    (doi: 10.1002/wcms.93)

                         Additional Contributions by
    A. E. DePrince, M. Saitow, U. Bozkaya, A. Yu. Sokolov
    -----------------------------------------------------------------------


    Psi4 started on: Tue Jul  5 16:48:50 2016

    Process ID:   2033
    PSI4DATADIR: /export131/home/mjharvey/miniconda3/share
    Memory level set to 256.000 MB

  ==> Input File <==

--------------------------------------------------------------------------
set {
	reference rhf
	basis 6-31G*
}


set_num_threads( 1 )
memory 2 gb

molecule MOL {
0 1

H	 -3.892951	 0.981613	 -0.358725
C	 -3.196921	 0.361773	 0.172313
C	 -2.076860	 -0.007332	 -0.404944
H	 -3.439953	 0.057760	 1.173024
O	 -1.180634	 -0.819263	 0.215062
H	 -1.811520	 0.292194	 -1.403480
C	 0.051604	 -1.018856	 -0.387932
C	 1.043764	 0.054862	 -0.001873
H	 -0.017620	 -1.041351	 -1.469781
H	 0.437898	 -1.966374	 -0.042284
F	 0.454433	 1.240338	 -0.057920
F	 1.492900	 -0.112364	 1.231067
F	 2.084436	 0.080302	 -0.808561

	symmetry c1
}
set optking {
	frozen_dihedral = ("
		3 5 7 9,
		6 3 2 1,
		6 3 5 7
	")
}

ee = energy('scf')
oeprop('DIPOLE', 'QUADRUPOLE', 'MULLIKEN_CHARGES')
f=open( 'psi4out.xyz', 'w' )
f.write( "13  " )
f.write( str(ee) + "\n" )
f.write( MOL.save_string_xyz() )
f.close()
--------------------------------------------------------------------------

  Memory set to   2.000 GiB by Python script.

*** tstart() called on cx1-3-14-4.cx1.hpc.ic.ac.uk
*** at Tue Jul  5 16:48:51 2016


         ---------------------------------------------------------
                                   SCF
            by Justin Turney, Rob Parrish, and Andy Simmonett
                              RHF Reference
                        1 Threads,   2000 MiB Core
         ---------------------------------------------------------

  ==> Geometry <==

    Molecular point group: c1
    Full point group: C1

    Geometry (in Angstrom), charge = 0, multiplicity = 1:

       Center              X                  Y                   Z               Mass       
    ------------   -----------------  -----------------  -----------------  -----------------
           H         -3.883268044762     0.974889458191    -0.364910308980     1.007825032070
           C         -3.187238044762     0.355049458191     0.166127691020    12.000000000000
           C         -2.067177044762    -0.014055541809    -0.411129308980    12.000000000000
           H         -3.430270044762     0.051036458191     1.166838691020     1.007825032070
           O         -1.170951044762    -0.825986541809     0.208876691020    15.994914619560
           H         -1.801837044762     0.285470458191    -1.409665308980     1.007825032070
           C          0.061286955238    -1.025579541809    -0.394117308980    12.000000000000
           C          1.053446955238     0.048138458191    -0.008058308980    12.000000000000
           H         -0.007937044762    -1.048074541809    -1.475966308980     1.007825032070
           H          0.447580955238    -1.973097541809    -0.048469308980     1.007825032070
           F          0.464115955238     1.233614458191    -0.064105308980    18.998403224000
           F          1.502582955238    -0.119087541809     1.224881691020    18.998403224000
           F          2.094118955238     0.073578458191    -0.814746308980    18.998403224000

  Running in c1 symmetry.

  Rotational constants: A =      0.15040  B =      0.04004  C =      0.03920 [cm^-1]
  Rotational constants: A =   4508.80327  B =   1200.46323  C =   1175.16456 [MHz]
  Nuclear repulsion =  414.428380871368233

  Charge       = 0
  Multiplicity = 1
  Electrons    = 64
  Nalpha       = 32
  Nbeta        = 32

  ==> Algorithm <==

  SCF Algorithm Type is DF.
  DIIS enabled.
  MOM disabled.
  Fractional occupation disabled.
  Guess Type is CORE.
  Energy threshold   = 1.00e-06
  Density threshold  = 1.00e-06
  Integral threshold = 0.00e+00

  ==> Primary Basis <==

  Basis Set: 6-31G*
    Number of shells: 58
    Number of basis function: 130
    Number of Cartesian functions: 130
    Spherical Harmonics?: false
    Max angular momentum: 2

  ==> Pre-Iterations <==

   -------------------------------------------------------
    Irrep   Nso     Nmo     Nalpha   Nbeta   Ndocc  Nsocc
   -------------------------------------------------------
     A        130     130       0       0       0       0
   -------------------------------------------------------
    Total     130     130      32      32      32       0
   -------------------------------------------------------

 OEINTS: Overlap, kinetic, potential, dipole, and quadrupole integrals
         stored in file 35.

  ==> Integral Setup <==

  ==> DFJK: Density-Fitted J/K Matrices <==

    J tasked:                  Yes
    K tasked:                  Yes
    wK tasked:                  No
    OpenMP threads:              1
    Integrals threads:           1
    Memory (MB):              1430
    Algorithm:                Core
    Integral Cache:           NONE
    Schwarz Cutoff:          1E-12
    Fitting Condition:       1E-12

   => Auxiliary Basis Set <=

  Basis Set: 
    Number of shells: 237
    Number of basis function: 773
    Number of Cartesian functions: 773
    Spherical Harmonics?: false
    Max angular momentum: 3

  Minimum eigenvalue in the overlap matrix is 1.8225596411E-03.
  Using Symmetric Orthogonalization.
  SCF Guess: Core (One-Electron) Hamiltonian.

  ==> Iterations <==

                           Total Energy        Delta E     RMS |[F,P]|

   @DF-RHF iter   1:  -440.36193313747702   -4.40362e+02   7.41080e-02 
   @DF-RHF iter   2:  -176.32110068323271    2.64041e+02   9.72988e-02 DIIS
   @DF-RHF iter   3:  -490.90419557207707   -3.14583e+02   3.96269e-02 DIIS
   @DF-RHF iter   4:  -421.33374189988120    6.95705e+01   6.97646e-02 DIIS
   @DF-RHF iter   5:  -520.60811191380094   -9.92744e+01   2.05933e-02 DIIS
   @DF-RHF iter   6:  -526.83340561067712   -6.22529e+00   9.80158e-03 DIIS
   @DF-RHF iter   7:  -527.49094846270782   -6.57543e-01   2.09423e-03 DIIS
   @DF-RHF iter   8:  -527.52022746540706   -2.92790e-02   1.06684e-03 DIIS
   @DF-RHF iter   9:  -527.53023162691488   -1.00042e-02   5.48287e-04 DIIS
   @DF-RHF iter  10:  -527.53277198237788   -2.54036e-03   2.94390e-04 DIIS
   @DF-RHF iter  11:  -527.53382578031233   -1.05380e-03   5.32322e-05 DIIS
   @DF-RHF iter  12:  -527.53386473204318   -3.89517e-05   2.18873e-05 DIIS
   @DF-RHF iter  13:  -527.53387093772562   -6.20568e-06   6.89604e-06 DIIS
   @DF-RHF iter  14:  -527.53387181120456   -8.73479e-07   2.14938e-06 DIIS
   @DF-RHF iter  15:  -527.53387190725653   -9.60520e-08   7.43123e-07 DIIS

  ==> Post-Iterations <==

    Orbital Energies (a.u.)
    -----------------------

    Doubly Occupied:                                                      

       1A    -26.349256     2A    -26.340323     3A    -26.339515  
       4A    -20.608031     5A    -11.503398     6A    -11.318609  
       7A    -11.298761     8A    -11.214489     9A     -1.742259  
      10A     -1.642544    11A     -1.635799    12A     -1.437489  
      13A     -1.084042    14A     -1.015805    15A     -0.925116  
      16A     -0.837329    17A     -0.831192    18A     -0.821590  
      19A     -0.790469    20A     -0.723131    21A     -0.712909  
      22A     -0.696999    23A     -0.674629    24A     -0.662812  
      25A     -0.653900    26A     -0.642992    27A     -0.628522  
      28A     -0.584170    29A     -0.562105    30A     -0.524241  
      31A     -0.513621    32A     -0.350532  

    Virtual:                                                              

      33A      0.192320    34A      0.234551    35A      0.271120  
      36A      0.280759    37A      0.296003    38A      0.313883  
      39A      0.344454    40A      0.405479    41A      0.423662  
      42A      0.449560    43A      0.475324    44A      0.510092  
      45A      0.525915    46A      0.691419    47A      0.701569  
      48A      0.722128    49A      0.739758    50A      0.757695  
      51A      0.769484    52A      0.811150    53A      0.823840  
      54A      0.876812    55A      0.909460    56A      0.922269  
      57A      0.978686    58A      1.076726    59A      1.098672  
      60A      1.129976    61A      1.147835    62A      1.158637  
      63A      1.204092    64A      1.237455    65A      1.268990  
      66A      1.324830    67A      1.358380    68A      1.375035  
      69A      1.418031    70A      1.428296    71A      1.450282  
      72A      1.465287    73A      1.591880    74A      1.611580  
      75A      1.633840    76A      1.649332    77A      1.667909  
      78A      1.673882    79A      1.684941    80A      1.726305  
      81A      1.748035    82A      1.822429    83A      1.850371  
      84A      1.907741    85A      1.936725    86A      1.972715  
      87A      2.022469    88A      2.040801    89A      2.106096  
      90A      2.127255    91A      2.138974    92A      2.146015  
      93A      2.233887    94A      2.250800    95A      2.272579  
      96A      2.298452    97A      2.314969    98A      2.326213  
      99A      2.368224   100A      2.397078   101A      2.409873  
     102A      2.421439   103A      2.494179   104A      2.523871  
     105A      2.553744   106A      2.586983   107A      2.668662  
     108A      2.702436   109A      2.718961   110A      2.811766  
     111A      2.856837   112A      2.920669   113A      2.997301  
     114A      3.095863   115A      3.144687   116A      3.173822  
     117A      3.214291   118A      3.294726   119A      3.423524  
     120A      3.425228   121A      3.439286   122A      3.486257  
     123A      4.361121   124A      4.538617   125A      4.607147  
     126A      4.709728   127A      4.882946   128A      4.957413  
     129A      5.143926   130A      5.798316  

    Final Occupation by Irrep:
              A 
    DOCC [    32 ]

  Energy converged.

  @DF-RHF Final Energy:  -527.53387190725653

   => Energetics <=

    Nuclear Repulsion Energy =            414.4283808713682333
    One-Electron Energy =               -1552.5914509535259640
    Two-Electron Energy =                 610.6291981749013758
    DFT Exchange-Correlation Energy =       0.0000000000000000
    Empirical Dispersion Energy =           0.0000000000000000
    PCM Polarization Energy =               0.0000000000000000
    EFP Energy =                            0.0000000000000000
    Total Energy =                       -527.5338719072562981

    Alert: EFP and PCM quantities not currently incorporated into SCF psivars.

Properties will be evaluated at   0.000000,   0.000000,   0.000000 Bohr
  ==> Properties <==


Properties computed using the SCF density matrix

  Nuclear Dipole Moment: (a.u.)
     X:   -11.9696      Y:    -2.7276      Z:    -2.3243

  Electronic Dipole Moment: (a.u.)
     X:    11.7761      Y:     2.3228      Z:     1.5991

  Dipole Moment: (a.u.)
     X:    -0.1935      Y:    -0.4049      Z:    -0.7252     Total:     0.8528

  Dipole Moment: (Debye)
     X:    -0.4918      Y:    -1.0291      Z:    -1.8433     Total:     2.1676


  Saving occupied orbitals to File 180.

*** tstop() called on cx1-3-14-4.cx1.hpc.ic.ac.uk at Tue Jul  5 16:49:01 2016
Module time:
	user time   =      10.16 seconds =       0.17 minutes
	system time =       0.07 seconds =       0.00 minutes
	total time  =         10 seconds =       0.17 minutes
Total time:
	user time   =      10.16 seconds =       0.17 minutes
	system time =       0.07 seconds =       0.00 minutes
	total time  =         10 seconds =       0.17 minutes


Properties will be evaluated at   0.000000,   0.000000,   0.000000 Bohr

Properties computed using the  density matrix

  Nuclear Dipole Moment: (a.u.)
     X:   -11.9696      Y:    -2.7276      Z:    -2.3243

  Electronic Dipole Moment: (a.u.)
     X:    11.7761      Y:     2.3228      Z:     1.5991

  Dipole Moment: (a.u.)
     X:    -0.1935      Y:    -0.4049      Z:    -0.7252     Total:     0.8528

  Dipole Moment: (Debye)
     X:    -0.4918      Y:    -1.0291      Z:    -1.8433     Total:     2.1676

  Quadrupole Moment: (Debye Ang)
    XX:   -45.7961     YY:   -44.3306     ZZ:   -43.4196
    XY:    -3.2429     XZ:     0.8609     YZ:     0.5411

  Traceless Quadrupole Moment: (Debye Ang)
    XX:    -1.2807     YY:     0.1848     ZZ:     1.0958
    XY:    -3.2429     XZ:     0.8609     YZ:     0.5411

  Mulliken Charges: (a.u.)
   Center  Symbol    Alpha    Beta     Spin     Total
       1     H     0.40743  0.40743  0.00000  0.18514
       2     C     3.23696  3.23696  0.00000 -0.47391
       3     C     2.89159  2.89159  0.00000  0.21682
       4     H     0.40217  0.40217  0.00000  0.19566
       5     O     4.30115  4.30115  0.00000 -0.60229
       6     H     0.40792  0.40792  0.00000  0.18417
       7     C     3.06894  3.06894  0.00000 -0.13789
       8     C     2.45139  2.45139  0.00000  1.09721
       9     H     0.40560  0.40560  0.00000  0.18880
      10     H     0.38967  0.38967  0.00000  0.22066
      11     F     4.68071  4.68071  0.00000 -0.36143
      12     F     4.67820  4.67820  0.00000 -0.35641
      13     F     4.67827  4.67827  0.00000 -0.35654

   Total alpha = 32.00000, Total beta = 32.00000, Total charge = -0.00000


*** PSI4 exiting successfully. Buy a developer a beer!
