    -----------------------------------------------------------------------
          Psi4: An Open-Source Ab Initio Electronic Structure Package
                              Psi4 (no tag) Driver

                          Git: Rev {detached?}  

    J. M. Turney, A. C. Simmonett, R. M. Parrish, E. G. Hohenstein,
    F. A. Evangelista, J. T. Fermann, B. J. Mintz, L. A. Burns, J. J. Wilke,
    M. L. Abrams, N. J. Russ, M. L. Leininger, C. L. Janssen, E. T. Seidl,
    W. D. Allen, H. F. Schaefer, R. A. King, E. F. Valeev, C. D. Sherrill,
    and T. D. Crawford, WIREs Comput. Mol. Sci. 2, 556-565 (2012)
    (doi: 10.1002/wcms.93)

                         Additional Contributions by
    A. E. DePrince, M. Saitow, U. Bozkaya, A. Yu. Sokolov
    -----------------------------------------------------------------------


    Psi4 started on: Tue Jul  5 16:46:53 2016

    Process ID:  10249
    PSI4DATADIR: /export131/home/mjharvey/miniconda3/share
    Memory level set to 256.000 MB

  ==> Input File <==

--------------------------------------------------------------------------
set {
	reference rhf
	basis 6-31G*
}


set_num_threads( 1 )
memory 2 gb

molecule MOL {
0 1

H	 -0.103008	 -0.593064	 -0.472841
C	 -0.411562	 -1.370352	 0.223406
O	 -1.020556	 -0.830459	 1.351670
H	 -1.135270	 -2.009295	 -0.263566
H	 0.462327	 -1.965292	 0.485688
C	 -0.200255	 0.017064	 2.091979
C	 1.244560	 -0.262687	 1.750721
H	 -0.427560	 1.058853	 1.862404
H	 -0.352011	 -0.132141	 3.159083
O	 1.392611	 -0.295398	 0.366430
H	 1.872653	 0.510224	 2.189028
H	 1.536610	 -1.219695	 2.184930
C	 2.706965	 -0.449871	 -0.062409
H	 2.756559	 -0.644779	 -1.131878
H	 3.305899	 0.433456	 0.155466
H	 3.125548	 -1.294566	 0.467107

	symmetry c1
}
set optking {
	frozen_dihedral = ("
		3 6 7 11,
		7 10 13 14
	")
}

ee = energy('scf')
oeprop('DIPOLE', 'QUADRUPOLE', 'MULLIKEN_CHARGES')
f=open( 'psi4out.xyz', 'w' )
f.write( "16  " )
f.write( str(ee) + "\n" )
f.write( MOL.save_string_xyz() )
f.close()
--------------------------------------------------------------------------

  Memory set to   2.000 GiB by Python script.

*** tstart() called on cx1-3-2-2.cx1.hpc.ic.ac.uk
*** at Tue Jul  5 16:46:54 2016


         ---------------------------------------------------------
                                   SCF
            by Justin Turney, Rob Parrish, and Andy Simmonett
                              RHF Reference
                        1 Threads,   2000 MiB Core
         ---------------------------------------------------------

  ==> Geometry <==

    Molecular point group: c1
    Full point group: C1

    Geometry (in Angstrom), charge = 0, multiplicity = 1:

       Center              X                  Y                   Z               Mass       
    ------------   -----------------  -----------------  -----------------  -----------------
           H         -0.737590565349    -0.052358973821    -1.408002720620     1.007825032070
           C         -1.046144565349    -0.829646973821    -0.711755720620    12.000000000000
           O         -1.655138565349    -0.289753973821     0.416508279380    15.994914619560
           H         -1.769852565349    -1.468589973821    -1.198727720620     1.007825032070
           H         -0.172255565349    -1.424586973821    -0.449473720620     1.007825032070
           C         -0.834837565349     0.557769026179     1.156817279380    12.000000000000
           C          0.609977434651     0.278018026179     0.815559279380    12.000000000000
           H         -1.062142565349     1.599558026179     0.927242279380     1.007825032070
           H         -0.986593565349     0.408564026179     2.223921279380     1.007825032070
           O          0.758028434651     0.245307026179    -0.568731720620    15.994914619560
           H          1.238070434651     1.050929026179     1.253866279380     1.007825032070
           H          0.902027434651    -0.678989973821     1.249768279380     1.007825032070
           C          2.072382434651     0.090834026179    -0.997570720620    12.000000000000
           H          2.121976434651    -0.104073973821    -2.067039720620     1.007825032070
           H          2.671316434651     0.974161026179    -0.779695720620     1.007825032070
           H          2.490965434651    -0.753860973821    -0.468054720620     1.007825032070

  Running in c1 symmetry.

  Rotational constants: A =      0.22890  B =      0.09080  C =      0.07008 [cm^-1]
  Rotational constants: A =   6862.22385  B =   2721.98398  C =   2100.97916 [MHz]
  Nuclear repulsion =  278.043820281852618

  Charge       = 0
  Multiplicity = 1
  Electrons    = 50
  Nalpha       = 25
  Nbeta        = 25

  ==> Algorithm <==

  SCF Algorithm Type is DF.
  DIIS enabled.
  MOM disabled.
  Fractional occupation disabled.
  Guess Type is CORE.
  Energy threshold   = 1.00e-06
  Density threshold  = 1.00e-06
  Integral threshold = 0.00e+00

  ==> Primary Basis <==

  Basis Set: 6-31G*
    Number of shells: 56
    Number of basis function: 110
    Number of Cartesian functions: 110
    Spherical Harmonics?: false
    Max angular momentum: 2

  ==> Pre-Iterations <==

   -------------------------------------------------------
    Irrep   Nso     Nmo     Nalpha   Nbeta   Ndocc  Nsocc
   -------------------------------------------------------
     A        110     110       0       0       0       0
   -------------------------------------------------------
    Total     110     110      25      25      25       0
   -------------------------------------------------------

 OEINTS: Overlap, kinetic, potential, dipole, and quadrupole integrals
         stored in file 35.

  ==> Integral Setup <==

  ==> DFJK: Density-Fitted J/K Matrices <==

    J tasked:                  Yes
    K tasked:                  Yes
    wK tasked:                  No
    OpenMP threads:              1
    Integrals threads:           1
    Memory (MB):              1430
    Algorithm:                Core
    Integral Cache:           NONE
    Schwarz Cutoff:          1E-12
    Fitting Condition:       1E-12

   => Auxiliary Basis Set <=

  Basis Set: 
    Number of shells: 234
    Number of basis function: 736
    Number of Cartesian functions: 736
    Spherical Harmonics?: false
    Max angular momentum: 3

  Minimum eigenvalue in the overlap matrix is 3.8800177858E-03.
  Using Symmetric Orthogonalization.
  SCF Guess: Core (One-Electron) Hamiltonian.

  ==> Iterations <==

                           Total Energy        Delta E     RMS |[F,P]|

   @DF-RHF iter   1:  -249.88614256055291   -2.49886e+02   7.63820e-02 
   @DF-RHF iter   2:  -195.35239696530130    5.45337e+01   6.61678e-02 DIIS
   @DF-RHF iter   3:  -267.94007458264912   -7.25877e+01   6.07174e-02 DIIS
   @DF-RHF iter   4:  -295.35956402713271   -2.74195e+01   3.40880e-02 DIIS
   @DF-RHF iter   5:  -306.50132119425245   -1.11418e+01   8.12319e-03 DIIS
   @DF-RHF iter   6:  -306.85862623748847   -3.57305e-01   3.05194e-03 DIIS
   @DF-RHF iter   7:  -306.90136493912030   -4.27387e-02   7.06642e-04 DIIS
   @DF-RHF iter   8:  -306.90393202609073   -2.56709e-03   3.67775e-04 DIIS
   @DF-RHF iter   9:  -306.90476431751119   -8.32291e-04   1.14778e-04 DIIS
   @DF-RHF iter  10:  -306.90488558484697   -1.21267e-04   2.88816e-05 DIIS
   @DF-RHF iter  11:  -306.90489454750798   -8.96266e-06   8.37598e-06 DIIS
   @DF-RHF iter  12:  -306.90489530991601   -7.62408e-07   2.90195e-06 DIIS
   @DF-RHF iter  13:  -306.90489540580404   -9.58880e-08   6.58335e-07 DIIS

  ==> Post-Iterations <==

    Orbital Energies (a.u.)
    -----------------------

    Doubly Occupied:                                                      

       1A    -20.560287     2A    -20.542267     3A    -11.279295  
       4A    -11.277560     5A    -11.269800     6A    -11.228799  
       7A     -1.413811     8A     -1.363202     9A     -1.030577  
      10A     -0.959766    11A     -0.882403    12A     -0.828729  
      13A     -0.715950    14A     -0.694144    15A     -0.654319  
      16A     -0.630243    17A     -0.609036    18A     -0.591106  
      19A     -0.561408    20A     -0.545243    21A     -0.528468  
      22A     -0.491909    23A     -0.440125    24A     -0.397468  
      25A     -0.391437  

    Virtual:                                                              

      26A      0.219184    27A      0.261005    28A      0.286186  
      29A      0.297889    30A      0.301536    31A      0.319034  
      32A      0.323129    33A      0.331565    34A      0.339777  
      35A      0.361492    36A      0.371145    37A      0.402102  
      38A      0.425925    39A      0.447079    40A      0.463480  
      41A      0.723824    42A      0.752021    43A      0.774207  
      44A      0.778197    45A      0.812987    46A      0.817599  
      47A      0.847326    48A      0.869338    49A      0.893934  
      50A      0.937985    51A      1.012846    52A      1.048030  
      53A      1.095830    54A      1.115699    55A      1.119674  
      56A      1.132338    57A      1.155248    58A      1.168831  
      59A      1.186298    60A      1.201831    61A      1.213254  
      62A      1.232232    63A      1.250219    64A      1.299401  
      65A      1.323119    66A      1.409239    67A      1.440132  
      68A      1.477922    69A      1.490318    70A      1.548889  
      71A      1.650002    72A      1.673759    73A      1.682313  
      74A      1.755902    75A      1.814967    76A      1.893213  
      77A      1.933817    78A      1.999024    79A      2.117883  
      80A      2.180054    81A      2.232341    82A      2.260368  
      83A      2.288974    84A      2.396964    85A      2.435149  
      86A      2.443721    87A      2.449445    88A      2.493543  
      89A      2.506710    90A      2.555582    91A      2.590968  
      92A      2.608999    93A      2.676760    94A      2.715306  
      95A      2.770957    96A      2.806287    97A      2.855506  
      98A      2.878634    99A      2.959882   100A      3.043636  
     101A      3.140367   102A      3.217887   103A      3.313943  
     104A      3.349245   105A      4.441927   106A      4.515098  
     107A      4.646257   108A      4.709065   109A      4.786267  
     110A      4.908387  

    Final Occupation by Irrep:
              A 
    DOCC [    25 ]

  Energy converged.

  @DF-RHF Final Energy:  -306.90489540580404

   => Energetics <=

    Nuclear Repulsion Energy =            278.0438202818526179
    One-Electron Energy =                -970.1226453333068775
    Two-Electron Energy =                 385.1739296456505599
    DFT Exchange-Correlation Energy =       0.0000000000000000
    Empirical Dispersion Energy =           0.0000000000000000
    PCM Polarization Energy =               0.0000000000000000
    EFP Energy =                            0.0000000000000000
    Total Energy =                       -306.9048954058036998

    Alert: EFP and PCM quantities not currently incorporated into SCF psivars.

Properties will be evaluated at   0.000000,   0.000000,   0.000000 Bohr
  ==> Properties <==


Properties computed using the SCF density matrix

  Nuclear Dipole Moment: (a.u.)
     X:     4.3980      Y:    -0.4214      Z:    -0.6721

  Electronic Dipole Moment: (a.u.)
     X:    -3.1503      Y:     0.6232      Z:     0.8272

  Dipole Moment: (a.u.)
     X:     1.2476      Y:     0.2018      Z:     0.1551     Total:     1.2733

  Dipole Moment: (Debye)
     X:     3.1712      Y:     0.5129      Z:     0.3942     Total:     3.2365


  Saving occupied orbitals to File 180.

*** tstop() called on cx1-3-2-2.cx1.hpc.ic.ac.uk at Tue Jul  5 16:47:01 2016
Module time:
	user time   =       7.10 seconds =       0.12 minutes
	system time =       0.04 seconds =       0.00 minutes
	total time  =          7 seconds =       0.12 minutes
Total time:
	user time   =       7.10 seconds =       0.12 minutes
	system time =       0.04 seconds =       0.00 minutes
	total time  =          7 seconds =       0.12 minutes


Properties will be evaluated at   0.000000,   0.000000,   0.000000 Bohr

Properties computed using the  density matrix

  Nuclear Dipole Moment: (a.u.)
     X:     4.3980      Y:    -0.4214      Z:    -0.6721

  Electronic Dipole Moment: (a.u.)
     X:    -3.1503      Y:     0.6232      Z:     0.8272

  Dipole Moment: (a.u.)
     X:     1.2476      Y:     0.2018      Z:     0.1551     Total:     1.2733

  Dipole Moment: (Debye)
     X:     3.1712      Y:     0.5129      Z:     0.3942     Total:     3.2365

  Quadrupole Moment: (Debye Ang)
    XX:   -40.2626     YY:   -38.1183     ZZ:   -35.4228
    XY:    -1.1727     XZ:    -0.2173     YZ:     1.6707

  Traceless Quadrupole Moment: (Debye Ang)
    XX:    -2.3280     YY:    -0.1837     ZZ:     2.5118
    XY:    -1.1727     XZ:    -0.2173     YZ:     1.6707

  Mulliken Charges: (a.u.)
   Center  Symbol    Alpha    Beta     Spin     Total
       1     H     0.40742  0.40742  0.00000  0.18515
       2     C     3.06701  3.06701  0.00000 -0.13403
       3     O     4.31123  4.31123  0.00000 -0.62246
       4     H     0.42811  0.42811  0.00000  0.14378
       5     H     0.43441  0.43441  0.00000  0.13118
       6     C     2.98019  2.98019  0.00000  0.03961
       7     C     3.03223  3.03223  0.00000 -0.06446
       8     H     0.42460  0.42460  0.00000  0.15079
       9     H     0.41962  0.41962  0.00000  0.16076
      10     O     4.30792  4.30792  0.00000 -0.61585
      11     H     0.42064  0.42064  0.00000  0.15872
      12     H     0.42169  0.42169  0.00000  0.15662
      13     C     3.08163  3.08163  0.00000 -0.16326
      14     H     0.41072  0.41072  0.00000  0.17857
      15     H     0.42447  0.42447  0.00000  0.15106
      16     H     0.42809  0.42809  0.00000  0.14382

   Total alpha = 25.00000, Total beta = 25.00000, Total charge = -0.00000


*** PSI4 exiting successfully. Buy a developer a beer!
