    -----------------------------------------------------------------------
          Psi4: An Open-Source Ab Initio Electronic Structure Package
                              Psi4 (no tag) Driver

                          Git: Rev {detached?}  

    J. M. Turney, A. C. Simmonett, R. M. Parrish, E. G. Hohenstein,
    F. A. Evangelista, J. T. Fermann, B. J. Mintz, L. A. Burns, J. J. Wilke,
    M. L. Abrams, N. J. Russ, M. L. Leininger, C. L. Janssen, E. T. Seidl,
    W. D. Allen, H. F. Schaefer, R. A. King, E. F. Valeev, C. D. Sherrill,
    and T. D. Crawford, WIREs Comput. Mol. Sci. 2, 556-565 (2012)
    (doi: 10.1002/wcms.93)

                         Additional Contributions by
    A. E. DePrince, M. Saitow, U. Bozkaya, A. Yu. Sokolov
    -----------------------------------------------------------------------


    Psi4 started on: Tue Jul  5 17:45:58 2016

    Process ID:  12559
    PSI4DATADIR: /export131/home/mjharvey/miniconda3/share
    Memory level set to 256.000 MB

  ==> Input File <==

--------------------------------------------------------------------------
set {
	reference rhf
	basis 6-31G*
}


set_num_threads( 1 )
memory 2 gb

molecule MOL {
0 1

O	 3.225979	 0.970355	 -0.599647
C	 2.701189	 0.057885	 -0.047330
C	 1.245376	 -0.013843	 0.345420
O	 3.347903	 -1.046386	 0.304773
C	 0.455112	 1.231400	 -0.050772
H	 0.838542	 -0.913825	 -0.103701
H	 1.208210	 -0.175333	 1.419774
C	 -0.998893	 1.219485	 0.433193
H	 0.482531	 1.345121	 -1.130325
H	 0.957290	 2.103070	 0.354729
C	 -1.883438	 0.145884	 -0.207175
H	 -1.431207	 2.195402	 0.224832
H	 -1.019646	 1.105716	 1.516076
C	 -3.347647	 0.245583	 0.225435
H	 -1.822183	 0.231698	 -1.291012
H	 -1.510341	 -0.844814	 0.042401
C	 -3.569713	 -0.103913	 1.698075
H	 -3.951744	 -0.414504	 -0.394717
H	 -3.710593	 1.254951	 0.037965
C	 -2.588921	 0.601606	 2.634019
H	 -4.587767	 0.156254	 1.980072
H	 -3.482685	 -1.180398	 1.829933
H	 -2.771498	 0.333861	 3.670159
H	 -2.675810	 1.681329	 2.551283
H	 -1.562232	 0.334795	 2.399511
C	 4.728119	 -1.109107	 -0.004993
H	 4.882018	 -1.033965	 -1.071845
H	 5.068212	 -2.067527	 0.355250
H	 5.265056	 -0.311663	 0.488280

	symmetry c1
}
set optking {
	frozen_dihedral = ("
		21 17 14 11,
		15 11 8 5,
		6 3 5 9,
		11 8 5 9,
		2 4 26 27,
		1 2 4 26,
		6 3 2 1
	")
}

ee = energy('scf')
oeprop('DIPOLE', 'QUADRUPOLE', 'MULLIKEN_CHARGES')
f=open( 'psi4out.xyz', 'w' )
f.write( "29  " )
f.write( str(ee) + "\n" )
f.write( MOL.save_string_xyz() )
f.close()
--------------------------------------------------------------------------

  Memory set to   2.000 GiB by Python script.

*** tstart() called on cx1-3-14-1.cx1.hpc.ic.ac.uk
*** at Tue Jul  5 17:45:58 2016


         ---------------------------------------------------------
                                   SCF
            by Justin Turney, Rob Parrish, and Andy Simmonett
                              RHF Reference
                        1 Threads,   2000 MiB Core
         ---------------------------------------------------------

  ==> Geometry <==

    Molecular point group: c1
    Full point group: C1

    Geometry (in Angstrom), charge = 0, multiplicity = 1:

       Center              X                  Y                   Z               Mass       
    ------------   -----------------  -----------------  -----------------  -----------------
           O          2.870942453920     0.781185162004    -1.033297323851    15.994914619560
           C          2.346152453920    -0.131284837996    -0.480980323851    12.000000000000
           C          0.890339453920    -0.203012837996    -0.088230323851    12.000000000000
           O          2.992866453920    -1.235555837996    -0.128877323851    15.994914619560
           C          0.100075453920     1.042230162004    -0.484422323851    12.000000000000
           H          0.483505453920    -1.102994837996    -0.537351323851     1.007825032070
           H          0.853173453920    -0.364502837996     0.986123676149     1.007825032070
           C         -1.353929546080     1.030315162004    -0.000457323851    12.000000000000
           H          0.127494453920     1.155951162004    -1.563975323851     1.007825032070
           H          0.602253453920     1.913900162004    -0.078921323851     1.007825032070
           C         -2.238474546080    -0.043285837996    -0.640825323851    12.000000000000
           H         -1.786243546080     2.006232162004    -0.208818323851     1.007825032070
           H         -1.374682546080     0.916546162004     1.082425676149     1.007825032070
           C         -3.702683546080     0.056413162004    -0.208215323851    12.000000000000
           H         -2.177219546080     0.042528162004    -1.724662323851     1.007825032070
           H         -1.865377546080    -1.033983837996    -0.391249323851     1.007825032070
           C         -3.924749546080    -0.293082837996     1.264424676149    12.000000000000
           H         -4.306780546080    -0.603673837996    -0.828367323851     1.007825032070
           H         -4.065629546080     1.065781162004    -0.395685323851     1.007825032070
           C         -2.943957546080     0.412436162004     2.200368676149    12.000000000000
           H         -4.942803546080    -0.032915837996     1.546421676149     1.007825032070
           H         -3.837721546080    -1.369567837996     1.396282676149     1.007825032070
           H         -3.126534546080     0.144691162004     3.236508676149     1.007825032070
           H         -3.030846546080     1.492159162004     2.117632676149     1.007825032070
           H         -1.917268546080     0.145625162004     1.965860676149     1.007825032070
           C          4.373082453920    -1.298276837996    -0.438643323851    12.000000000000
           H          4.526981453920    -1.223134837996    -1.505495323851     1.007825032070
           H          4.713175453920    -2.256696837996    -0.078400323851     1.007825032070
           H          4.910019453920    -0.500832837996     0.054629676149     1.007825032070

  Running in c1 symmetry.

  Rotational constants: A =      0.08817  B =      0.01182  C =      0.01142 [cm^-1]
  Rotational constants: A =   2643.14707  B =    354.28916  C =    342.24935 [MHz]
  Nuclear repulsion =  634.926211800826081

  Charge       = 0
  Multiplicity = 1
  Electrons    = 88
  Nalpha       = 44
  Nbeta        = 44

  ==> Algorithm <==

  SCF Algorithm Type is DF.
  DIIS enabled.
  MOM disabled.
  Fractional occupation disabled.
  Guess Type is CORE.
  Energy threshold   = 1.00e-06
  Density threshold  = 1.00e-06
  Integral threshold = 0.00e+00

  ==> Primary Basis <==

  Basis Set: 6-31G*
    Number of shells: 102
    Number of basis function: 201
    Number of Cartesian functions: 201
    Spherical Harmonics?: false
    Max angular momentum: 2

  ==> Pre-Iterations <==

   -------------------------------------------------------
    Irrep   Nso     Nmo     Nalpha   Nbeta   Ndocc  Nsocc
   -------------------------------------------------------
     A        201     201       0       0       0       0
   -------------------------------------------------------
    Total     201     201      44      44      44       0
   -------------------------------------------------------

 OEINTS: Overlap, kinetic, potential, dipole, and quadrupole integrals
         stored in file 35.

  ==> Integral Setup <==

  ==> DFJK: Density-Fitted J/K Matrices <==

    J tasked:                  Yes
    K tasked:                  Yes
    wK tasked:                  No
    OpenMP threads:              1
    Integrals threads:           1
    Memory (MB):              1430
    Algorithm:                Core
    Integral Cache:           NONE
    Schwarz Cutoff:          1E-12
    Fitting Condition:       1E-12

   => Auxiliary Basis Set <=

  Basis Set: 
    Number of shells: 426
    Number of basis function: 1341
    Number of Cartesian functions: 1341
    Spherical Harmonics?: false
    Max angular momentum: 3

  Minimum eigenvalue in the overlap matrix is 2.5135246845E-03.
  Using Symmetric Orthogonalization.
  SCF Guess: Core (One-Electron) Hamiltonian.

  ==> Iterations <==

                           Total Energy        Delta E     RMS |[F,P]|

   @DF-RHF iter   1:  -332.97929023529741   -3.32979e+02   5.90195e-02 
   @DF-RHF iter   2:   -31.47185768384020    3.01507e+02   7.87569e-02 DIIS
   @DF-RHF iter   3:  -193.82121959642325   -1.62349e+02   6.77959e-02 DIIS
   @DF-RHF iter   4:  -334.54258263691293   -1.40721e+02   4.76661e-02 DIIS
   @DF-RHF iter   5:  -299.11860183665669    3.54240e+01   5.63031e-02 DIIS
   @DF-RHF iter   6:  -492.57993106670358   -1.93461e+02   1.14023e-02 DIIS
   @DF-RHF iter   7:  -461.09603929569778    3.14839e+01   2.50225e-02 DIIS
   @DF-RHF iter   8:  -500.75900757835541   -3.96630e+01   3.69990e-03 DIIS
   @DF-RHF iter   9:  -500.98144902245974   -2.22441e-01   9.88738e-04 DIIS
   @DF-RHF iter  10:  -501.00078627849109   -1.93373e-02   3.18295e-04 DIIS
   @DF-RHF iter  11:  -501.00326028249799   -2.47400e-03   1.20862e-04 DIIS
   @DF-RHF iter  12:  -501.00362614098947   -3.65858e-04   6.10564e-05 DIIS
   @DF-RHF iter  13:  -501.00371904306974   -9.29021e-05   3.08951e-05 DIIS
   @DF-RHF iter  14:  -501.00374440799612   -2.53649e-05   1.16923e-05 DIIS
   @DF-RHF iter  15:  -501.00374885656595   -4.44857e-06   3.61366e-06 DIIS
   @DF-RHF iter  16:  -501.00374917632496   -3.19759e-07   1.02383e-06 DIIS
   @DF-RHF iter  17:  -501.00374922004414   -4.37192e-08   2.50044e-07 DIIS

  ==> Post-Iterations <==

    Orbital Energies (a.u.)
    -----------------------

    Doubly Occupied:                                                      

       1A    -20.602849     2A    -20.544514     3A    -11.371282  
       4A    -11.280277     5A    -11.234022     6A    -11.217701  
       7A    -11.215619     8A    -11.215360     9A    -11.214815  
      10A    -11.207662    11A    -11.205388    12A     -1.468477  
      13A     -1.361843    14A     -1.103706    15A     -1.066847  
      16A     -1.011467    17A     -0.976227    18A     -0.940916  
      19A     -0.873217    20A     -0.797859    21A     -0.781830  
      22A     -0.763701    23A     -0.700065    24A     -0.682016  
      25A     -0.673196    26A     -0.660517    27A     -0.621871  
      28A     -0.615969    29A     -0.601392    30A     -0.581090  
      31A     -0.561259    32A     -0.549586    33A     -0.547040  
      34A     -0.526787    35A     -0.517830    36A     -0.513003  
      37A     -0.504710    38A     -0.477979    39A     -0.466968  
      40A     -0.456927    41A     -0.456034    42A     -0.445824  
      43A     -0.436122    44A     -0.419471  

    Virtual:                                                              

      45A      0.198396    46A      0.220094    47A      0.236604  
      48A      0.257635    49A      0.262729    50A      0.272485  
      51A      0.294324    52A      0.299842    53A      0.306625  
      54A      0.308931    55A      0.315269    56A      0.321027  
      57A      0.324387    58A      0.329305    59A      0.340189  
      60A      0.344134    61A      0.352379    62A      0.358857  
      63A      0.378462    64A      0.395305    65A      0.408675  
      66A      0.418280    67A      0.435293    68A      0.455842  
      69A      0.464122    70A      0.481135    71A      0.495836  
      72A      0.540196    73A      0.592037    74A      0.709015  
      75A      0.722588    76A      0.727697    77A      0.731174  
      78A      0.738475    79A      0.750713    80A      0.767509  
      81A      0.776076    82A      0.788087    83A      0.805050  
      84A      0.816622    85A      0.848123    86A      0.861484  
      87A      0.889674    88A      0.923764    89A      0.934683  
      90A      0.952822    91A      0.967963    92A      0.981372  
      93A      0.991279    94A      1.008139    95A      1.037548  
      96A      1.061934    97A      1.084824    98A      1.110562  
      99A      1.122982   100A      1.125375   101A      1.134581  
     102A      1.138375   103A      1.147250   104A      1.157215  
     105A      1.159600   106A      1.171343   107A      1.178553  
     108A      1.183933   109A      1.189431   110A      1.206338  
     111A      1.215000   112A      1.218443   113A      1.230017  
     114A      1.242478   115A      1.246385   116A      1.257802  
     117A      1.276321   118A      1.287849   119A      1.291282  
     120A      1.308177   121A      1.345135   122A      1.353334  
     123A      1.369782   124A      1.395201   125A      1.417941  
     126A      1.483094   127A      1.549452   128A      1.613298  
     129A      1.648813   130A      1.665892   131A      1.699371  
     132A      1.717802   133A      1.739084   134A      1.768093  
     135A      1.803655   136A      1.864647   137A      1.883860  
     138A      1.890592   139A      1.959545   140A      1.977533  
     141A      1.991221   142A      2.002979   143A      2.026355  
     144A      2.082740   145A      2.101474   146A      2.120828  
     147A      2.160033   148A      2.167905   149A      2.204631  
     150A      2.219847   151A      2.239452   152A      2.248227  
     153A      2.290977   154A      2.306826   155A      2.318484  
     156A      2.340066   157A      2.351857   158A      2.373407  
     159A      2.380297   160A      2.400822   161A      2.429018  
     162A      2.439989   163A      2.456501   164A      2.484906  
     165A      2.522692   166A      2.597114   167A      2.609299  
     168A      2.638896   169A      2.668618   170A      2.685577  
     171A      2.695999   172A      2.699964   173A      2.729415  
     174A      2.740336   175A      2.778810   176A      2.803562  
     177A      2.832848   178A      2.849025   179A      2.915286  
     180A      2.942375   181A      2.970738   182A      3.022688  
     183A      3.045559   184A      3.068128   185A      3.101623  
     186A      3.163550   187A      3.190850   188A      3.350806  
     189A      3.451942   190A      3.582437   191A      4.418056  
     192A      4.548039   193A      4.597310   194A      4.631739  
     195A      4.693015   196A      4.737722   197A      4.783622  
     198A      4.845289   199A      4.945488   200A      4.975903  
     201A      5.038589  

    Final Occupation by Irrep:
              A 
    DOCC [    44 ]

  Energy converged.

  @DF-RHF Final Energy:  -501.00374922004414

   => Energetics <=

    Nuclear Repulsion Energy =            634.9262118008260813
    One-Electron Energy =               -1940.9174233004691814
    Two-Electron Energy =                 804.9874622796020276
    DFT Exchange-Correlation Energy =       0.0000000000000000
    Empirical Dispersion Energy =           0.0000000000000000
    PCM Polarization Energy =               0.0000000000000000
    EFP Energy =                            0.0000000000000000
    Total Energy =                       -501.0037492200411862

    Alert: EFP and PCM quantities not currently incorporated into SCF psivars.

Properties will be evaluated at   0.000000,   0.000000,   0.000000 Bohr
  ==> Properties <==


Properties computed using the SCF density matrix

  Nuclear Dipole Moment: (a.u.)
     X:   -15.1724      Y:     0.3682      Z:     4.7502

  Electronic Dipole Moment: (a.u.)
     X:    14.9539      Y:    -0.9957      Z:    -4.3925

  Dipole Moment: (a.u.)
     X:    -0.2185      Y:    -0.6275      Z:     0.3576     Total:     0.7546

  Dipole Moment: (Debye)
     X:    -0.5554      Y:    -1.5950      Z:     0.9090     Total:     1.9180


  Saving occupied orbitals to File 180.

*** tstop() called on cx1-3-14-1.cx1.hpc.ic.ac.uk at Tue Jul  5 17:46:51 2016
Module time:
	user time   =      51.82 seconds =       0.86 minutes
	system time =       0.49 seconds =       0.01 minutes
	total time  =         53 seconds =       0.88 minutes
Total time:
	user time   =      51.82 seconds =       0.86 minutes
	system time =       0.49 seconds =       0.01 minutes
	total time  =         53 seconds =       0.88 minutes


Properties will be evaluated at   0.000000,   0.000000,   0.000000 Bohr

Properties computed using the  density matrix

  Nuclear Dipole Moment: (a.u.)
     X:   -15.1724      Y:     0.3682      Z:     4.7502

  Electronic Dipole Moment: (a.u.)
     X:    14.9539      Y:    -0.9957      Z:    -4.3925

  Dipole Moment: (a.u.)
     X:    -0.2185      Y:    -0.6275      Z:     0.3576     Total:     0.7546

  Dipole Moment: (Debye)
     X:    -0.5554      Y:    -1.5950      Z:     0.9090     Total:     1.9180

  Quadrupole Moment: (Debye Ang)
    XX:   -66.0019     YY:   -72.0032     ZZ:   -71.4241
    XY:    -7.2503     XZ:     2.6191     YZ:     3.1494

  Traceless Quadrupole Moment: (Debye Ang)
    XX:     3.8078     YY:    -2.1935     ZZ:    -1.6143
    XY:    -7.2503     XZ:     2.6191     YZ:     3.1494

  Mulliken Charges: (a.u.)
   Center  Symbol    Alpha    Beta     Spin     Total
       1     O     4.28575  4.28575  0.00000 -0.57151
       2     C     2.60444  2.60444  0.00000  0.79111
       3     C     3.21076  3.21076  0.00000 -0.42153
       4     O     4.30762  4.30762  0.00000 -0.61524
       5     C     3.14991  3.14991  0.00000 -0.29981
       6     H     0.39915  0.39915  0.00000  0.20170
       7     H     0.40308  0.40308  0.00000  0.19385
       8     C     3.15951  3.15951  0.00000 -0.31903
       9     H     0.41513  0.41513  0.00000  0.16973
      10     H     0.41022  0.41022  0.00000  0.17956
      11     C     3.16142  3.16142  0.00000 -0.32283
      12     H     0.42002  0.42002  0.00000  0.15996
      13     H     0.42117  0.42117  0.00000  0.15767
      14     C     3.15408  3.15408  0.00000 -0.30815
      15     H     0.41865  0.41865  0.00000  0.16270
      16     H     0.42451  0.42451  0.00000  0.15098
      17     C     3.14928  3.14928  0.00000 -0.29857
      18     H     0.41948  0.41948  0.00000  0.16103
      19     H     0.42312  0.42312  0.00000  0.15377
      20     C     3.25077  3.25077  0.00000 -0.50153
      21     H     0.41949  0.41949  0.00000  0.16101
      22     H     0.42239  0.42239  0.00000  0.15521
      23     H     0.41867  0.41867  0.00000  0.16266
      24     H     0.41811  0.41811  0.00000  0.16378
      25     H     0.41398  0.41398  0.00000  0.17204
      26     C     3.09235  3.09235  0.00000 -0.18470
      27     H     0.40910  0.40910  0.00000  0.18181
      28     H     0.40865  0.40865  0.00000  0.18270
      29     H     0.40919  0.40919  0.00000  0.18161

   Total alpha = 44.00000, Total beta = 44.00000, Total charge =  0.00000


*** PSI4 exiting successfully. Buy a developer a beer!
