    -----------------------------------------------------------------------
          Psi4: An Open-Source Ab Initio Electronic Structure Package
                              Psi4 (no tag) Driver

                          Git: Rev {detached?}  

    J. M. Turney, A. C. Simmonett, R. M. Parrish, E. G. Hohenstein,
    F. A. Evangelista, J. T. Fermann, B. J. Mintz, L. A. Burns, J. J. Wilke,
    M. L. Abrams, N. J. Russ, M. L. Leininger, C. L. Janssen, E. T. Seidl,
    W. D. Allen, H. F. Schaefer, R. A. King, E. F. Valeev, C. D. Sherrill,
    and T. D. Crawford, WIREs Comput. Mol. Sci. 2, 556-565 (2012)
    (doi: 10.1002/wcms.93)

                         Additional Contributions by
    A. E. DePrince, M. Saitow, U. Bozkaya, A. Yu. Sokolov
    -----------------------------------------------------------------------


    Psi4 started on: Tue Jul  5 16:27:15 2016

    Process ID:  19633
    PSI4DATADIR: /export131/home/mjharvey/miniconda3/share
    Memory level set to 256.000 MB

  ==> Input File <==

--------------------------------------------------------------------------
set {
	reference rhf
	basis 6-31G*
}


set_num_threads( 1 )
memory 2 gb

molecule MOL {
0 1

H	 -2.036051	 -1.271800	 0.000000
C	 -1.130686	 -0.690249	 -0.000000
N	 0.000066	 -1.373227	 -0.000000
C	 -1.190148	 0.693523	 0.000000
C	 1.130704	 -0.690156	 -0.000000
H	 -2.139595	 1.196000	 0.000000
C	 -0.000046	 1.399670	 0.000000
H	 2.036065	 -1.271571	 0.000000
C	 1.190111	 0.693617	 0.000000
H	 -0.000091	 2.475090	 0.000000
H	 2.139527	 1.196148	 0.000000

	symmetry c1
}
ee = energy('scf')
oeprop('DIPOLE', 'QUADRUPOLE', 'MULLIKEN_CHARGES')
oeprop('GRID_ESP')
f=open( 'psi4out.xyz', 'w' )
f.write( "11  " )
f.write( str(ee) + "\n" )
f.write( MOL.save_string_xyz() )
f.close()
--------------------------------------------------------------------------

  Memory set to   2.000 GiB by Python script.

*** tstart() called on cx1-3-4-2.cx1.hpc.ic.ac.uk
*** at Tue Jul  5 16:27:16 2016


         ---------------------------------------------------------
                                   SCF
            by Justin Turney, Rob Parrish, and Andy Simmonett
                              RHF Reference
                        1 Threads,   2000 MiB Core
         ---------------------------------------------------------

  ==> Geometry <==

    Molecular point group: c1
    Full point group: Cs

    Geometry (in Angstrom), charge = 0, multiplicity = 1:

       Center              X                  Y                   Z               Mass       
    ------------   -----------------  -----------------  -----------------  -----------------
           H         -2.036050975561    -1.271667311731     0.000000000000     1.007825032070
           C         -1.130685975561    -0.690116311731     0.000000000000    12.000000000000
           N          0.000066024439    -1.373094311731     0.000000000000    14.003074004780
           C         -1.190147975561     0.693655688269     0.000000000000    12.000000000000
           C          1.130704024439    -0.690023311731     0.000000000000    12.000000000000
           H         -2.139594975561     1.196132688269     0.000000000000     1.007825032070
           C         -0.000045975561     1.399802688269     0.000000000000    12.000000000000
           H          2.036065024439    -1.271438311731     0.000000000000     1.007825032070
           C          1.190111024439     0.693749688269     0.000000000000    12.000000000000
           H         -0.000090975561     2.475222688269     0.000000000000     1.007825032070
           H          2.139527024439     1.196280688269     0.000000000000     1.007825032070

  Running in c1 symmetry.

  Rotational constants: A =      0.20493  B =      0.19783  C =      0.10066 [cm^-1]
  Rotational constants: A =   6143.66877  B =   5930.94380  C =   3017.71622 [MHz]
  Nuclear repulsion =  207.914464927341470

  Charge       = 0
  Multiplicity = 1
  Electrons    = 42
  Nalpha       = 21
  Nbeta        = 21

  ==> Algorithm <==

  SCF Algorithm Type is DF.
  DIIS enabled.
  MOM disabled.
  Fractional occupation disabled.
  Guess Type is CORE.
  Energy threshold   = 1.00e-06
  Density threshold  = 1.00e-06
  Integral threshold = 0.00e+00

  ==> Primary Basis <==

  Basis Set: 6-31G*
    Number of shells: 46
    Number of basis function: 100
    Number of Cartesian functions: 100
    Spherical Harmonics?: false
    Max angular momentum: 2

  ==> Pre-Iterations <==

   -------------------------------------------------------
    Irrep   Nso     Nmo     Nalpha   Nbeta   Ndocc  Nsocc
   -------------------------------------------------------
     A        100     100       0       0       0       0
   -------------------------------------------------------
    Total     100     100      21      21      21       0
   -------------------------------------------------------

 OEINTS: Overlap, kinetic, potential, dipole, and quadrupole integrals
         stored in file 35.

  ==> Integral Setup <==

  ==> DFJK: Density-Fitted J/K Matrices <==

    J tasked:                  Yes
    K tasked:                  Yes
    wK tasked:                  No
    OpenMP threads:              1
    Integrals threads:           1
    Memory (MB):              1430
    Algorithm:                Core
    Integral Cache:           NONE
    Schwarz Cutoff:          1E-12
    Fitting Condition:       1E-12

   => Auxiliary Basis Set <=

  Basis Set: 
    Number of shells: 189
    Number of basis function: 611
    Number of Cartesian functions: 611
    Spherical Harmonics?: false
    Max angular momentum: 3

  Minimum eigenvalue in the overlap matrix is 8.1356969760E-04.
  Using Symmetric Orthogonalization.
  SCF Guess: Core (One-Electron) Hamiltonian.

  ==> Iterations <==

                           Total Energy        Delta E     RMS |[F,P]|

   @DF-RHF iter   1:  -204.15158222451450   -2.04152e+02   7.07737e-02 
   @DF-RHF iter   2:  -200.00882747109088    4.14275e+00   5.49081e-02 DIIS
   @DF-RHF iter   3:  -224.63888556761563   -2.46301e+01   5.50327e-02 DIIS
   @DF-RHF iter   4:  -245.90191963072195   -2.12630e+01   1.08479e-02 DIIS
   @DF-RHF iter   5:  -246.51029358730418   -6.08374e-01   5.17588e-03 DIIS
   @DF-RHF iter   6:  -246.67996544149011   -1.69672e-01   1.27251e-03 DIIS
   @DF-RHF iter   7:  -246.69357696476717   -1.36115e-02   4.46709e-04 DIIS
   @DF-RHF iter   8:  -246.69499118672192   -1.41422e-03   2.25451e-04 DIIS
   @DF-RHF iter   9:  -246.69539015800345   -3.98971e-04   5.63390e-05 DIIS
   @DF-RHF iter  10:  -246.69541387787174   -2.37199e-05   2.48914e-05 DIIS
   @DF-RHF iter  11:  -246.69541769286738   -3.81500e-06   3.54827e-06 DIIS
   @DF-RHF iter  12:  -246.69541788403163   -1.91164e-07   1.57997e-06 DIIS
   @DF-RHF iter  13:  -246.69541793486732   -5.08357e-08   6.56848e-07 DIIS

  ==> Post-Iterations <==

    Orbital Energies (a.u.)
    -----------------------

    Doubly Occupied:                                                      

       1A    -15.561349     2A    -11.268240     3A    -11.268218  
       4A    -11.255069     5A    -11.237454     6A    -11.237404  
       7A     -1.263225     8A     -1.088966     9A     -1.033781  
      10A     -0.856504    11A     -0.855852    12A     -0.722174  
      13A     -0.659650    14A     -0.651813    15A     -0.597284  
      16A     -0.573717    17A     -0.541001    18A     -0.518169  
      19A     -0.409415    20A     -0.380321    21A     -0.344045  

    Virtual:                                                              

      22A      0.126952    23A      0.141214    24A      0.239619  
      25A      0.287787    26A      0.304496    27A      0.325316  
      28A      0.328847    29A      0.359870    30A      0.414056  
      31A      0.467812    32A      0.502718    33A      0.512798  
      34A      0.636388    35A      0.649666    36A      0.743149  
      37A      0.763178    38A      0.789527    39A      0.807929  
      40A      0.811999    41A      0.827962    42A      0.828953  
      43A      0.838661    44A      0.899336    45A      0.914291  
      46A      0.937574    47A      0.938081    48A      1.094385  
      49A      1.096674    50A      1.097105    51A      1.112336  
      52A      1.123909    53A      1.135566    54A      1.185103  
      55A      1.191797    56A      1.215470    57A      1.289716  
      58A      1.323353    59A      1.361561    60A      1.413383  
      61A      1.461593    62A      1.509638    63A      1.628385  
      64A      1.640041    65A      1.732863    66A      1.759155  
      67A      1.764657    68A      1.799803    69A      1.810760  
      70A      1.970823    71A      2.067489    72A      2.127479  
      73A      2.141047    74A      2.256351    75A      2.316637  
      76A      2.398529    77A      2.454338    78A      2.473820  
      79A      2.507724    80A      2.518560    81A      2.542325  
      82A      2.634971    83A      2.665489    84A      2.726656  
      85A      2.867410    86A      2.885674    87A      2.994203  
      88A      3.042955    89A      3.068139    90A      3.117723  
      91A      3.159079    92A      3.161854    93A      3.439455  
      94A      3.800114    95A      4.471101    96A      4.528731  
      97A      4.575239    98A      4.659162    99A      4.748765  
     100A      5.020864  

    Final Occupation by Irrep:
              A 
    DOCC [    21 ]

  Energy converged.

  @DF-RHF Final Energy:  -246.69541793486732

   => Energetics <=

    Nuclear Repulsion Energy =            207.9144649273414700
    One-Electron Energy =                -744.5725111903232118
    Two-Electron Energy =                 289.9626283281145334
    DFT Exchange-Correlation Energy =       0.0000000000000000
    Empirical Dispersion Energy =           0.0000000000000000
    PCM Polarization Energy =               0.0000000000000000
    EFP Energy =                            0.0000000000000000
    Total Energy =                       -246.6954179348672369

    Alert: EFP and PCM quantities not currently incorporated into SCF psivars.

Properties will be evaluated at   0.000000,   0.000000,   0.000000 Bohr
  ==> Properties <==


Properties computed using the SCF density matrix

  Nuclear Dipole Moment: (a.u.)
     X:    -0.0001      Y:     2.1832      Z:     0.0000

  Electronic Dipole Moment: (a.u.)
     X:     0.0001      Y:    -1.2728      Z:    -0.0000

  Dipole Moment: (a.u.)
     X:    -0.0000      Y:     0.9104      Z:    -0.0000     Total:     0.9104

  Dipole Moment: (Debye)
     X:    -0.0001      Y:     2.3140      Z:    -0.0000     Total:     2.3140


  Saving occupied orbitals to File 180.

*** tstop() called on cx1-3-4-2.cx1.hpc.ic.ac.uk at Tue Jul  5 16:27:22 2016
Module time:
	user time   =       5.74 seconds =       0.10 minutes
	system time =       0.05 seconds =       0.00 minutes
	total time  =          6 seconds =       0.10 minutes
Total time:
	user time   =       5.74 seconds =       0.10 minutes
	system time =       0.05 seconds =       0.00 minutes
	total time  =          6 seconds =       0.10 minutes


Properties will be evaluated at   0.000000,   0.000000,   0.000000 Bohr

Properties computed using the  density matrix

  Nuclear Dipole Moment: (a.u.)
     X:    -0.0001      Y:     2.1832      Z:     0.0000

  Electronic Dipole Moment: (a.u.)
     X:     0.0001      Y:    -1.2728      Z:    -0.0000

  Dipole Moment: (a.u.)
     X:    -0.0000      Y:     0.9104      Z:    -0.0000     Total:     0.9104

  Dipole Moment: (Debye)
     X:    -0.0001      Y:     2.3140      Z:    -0.0000     Total:     2.3140

  Quadrupole Moment: (Debye Ang)
    XX:   -28.9240     YY:   -35.9682     ZZ:   -37.8198
    XY:     0.0005     XZ:    -0.0000     YZ:     0.0000

  Traceless Quadrupole Moment: (Debye Ang)
    XX:     5.3133     YY:    -1.7309     ZZ:    -3.5824
    XY:     0.0005     XZ:    -0.0000     YZ:     0.0000

  Mulliken Charges: (a.u.)
   Center  Symbol    Alpha    Beta     Spin     Total
       1     H     0.39903  0.39903  0.00000  0.20195
       2     C     2.96657  2.96657  0.00000  0.06685
       3     N     3.75780  3.75780  0.00000 -0.51560
       4     C     3.12838  3.12838  0.00000 -0.25676
       5     C     2.96656  2.96656  0.00000  0.06688
       6     H     0.39491  0.39491  0.00000  0.21018
       7     C     3.07143  3.07143  0.00000 -0.14286
       8     H     0.39903  0.39903  0.00000  0.20194
       9     C     3.12838  3.12838  0.00000 -0.25677
      10     H     0.39299  0.39299  0.00000  0.21401
      11     H     0.39491  0.39491  0.00000  0.21019

   Total alpha = 21.00000, Total beta = 21.00000, Total charge = -0.00000



Properties will be evaluated at   0.000000,   0.000000,   0.000000 Bohr

Properties computed using the  density matrix


 Electrostatic potential computed on the grid and written to grid_esp.dat

*** PSI4 exiting successfully. Buy a developer a beer!
