    -----------------------------------------------------------------------
          Psi4: An Open-Source Ab Initio Electronic Structure Package
                              Psi4 1.0.54 Driver

                          Git: Rev {master} 8d4cec3 dirty

    J. M. Turney, A. C. Simmonett, R. M. Parrish, E. G. Hohenstein,
    F. A. Evangelista, J. T. Fermann, B. J. Mintz, L. A. Burns, J. J. Wilke,
    M. L. Abrams, N. J. Russ, M. L. Leininger, C. L. Janssen, E. T. Seidl,
    W. D. Allen, H. F. Schaefer, R. A. King, E. F. Valeev, C. D. Sherrill,
    and T. D. Crawford, WIREs Comput. Mol. Sci. 2, 556-565 (2012)
    (doi: 10.1002/wcms.93)

                         Additional Contributions by
    A. E. DePrince, U. Bozkaya, A. Yu. Sokolov, D. G. A. Smith, R. Di Remigio,
    R. M. Richard, J. F. Gonthier, H. R. McAlexander, M. Saitow, and
    B. P. Pritchard
    -----------------------------------------------------------------------


    Psi4 started on: Tue Dec 12 14:33:17 2017

    Process ID:  29008
    PSI4DATADIR: /opt/acellera/miniconda3/share/psi4
    Memory level set to 256.000 MB

  ==> Input File <==

--------------------------------------------------------------------------
set_num_threads(1)
set_memory(3145728000)

set { reference rks }
set { basis 6-31G* }

molecule MOL {
    1 1
    noreorient
    nocom
    symmetry c1
    C    0.000000   0.000000  -0.177864
    C    0.036678   1.219374   0.524165
    C    0.031764   1.213119   1.915444
    C   -0.000000  -0.000000   2.610107
    C   -0.031764  -1.213119   1.915444
    C   -0.036677  -1.219374   0.524165
    C    0.000000  -0.000000  -1.644734
    H    0.018170   2.164705  -0.010853
    H    0.042402   2.152895   2.457886
    H   -0.000000  -0.000000   3.695756
    H   -0.042402  -2.152895   2.457886
    H   -0.018170  -2.164705  -0.010853
    N   -0.712590  -0.905950  -2.308460
    N    0.712590   0.905950  -2.308461
    H    0.673432   1.006469  -3.315997
    H    1.377190   1.485970  -1.813317
    H   -0.596462  -1.004655  -3.308488
    H   -1.332871  -1.562466  -1.849107
}

set optking { frozen_dihedral = (" 1 7 13 17 ") }

set optking { dynamic_level = 1 
 geom_maxiter = 250
 print_trajectory_xyz_file = True }

energy, wfn = optimize('B3LYP-D3', return_wfn=True)

import os
os.chdir(os.environ['HTMD_PSI4_WORKDIR'])

oeprop(wfn, 'DIPOLE', 'QUADRUPOLE', 'MULLIKEN_CHARGES')

with open('psi4out.xyz', 'w') as f:
    f.write('18 ' )
    f.write('%.12f\n' % energy)
    f.write(MOL.save_string_xyz())
--------------------------------------------------------------------------

  Memory set to   3.146 GiB by Python script.
gradient() will perform analytic gradient computation.

*** tstart() called on computer04
*** at Tue Dec 12 14:33:19 2017


         ---------------------------------------------------------
                                   SCF
            by Justin Turney, Rob Parrish, and Andy Simmonett
                              RKS Reference
                        1 Threads,   3145 MiB Core
         ---------------------------------------------------------

  ==> Geometry <==

    Molecular point group: c1
    Full point group: C1

    Geometry (in Angstrom), charge = 1, multiplicity = 1:

       Center              X                  Y                   Z               Mass       
    ------------   -----------------  -----------------  -----------------  -----------------
           C          0.000000000000     0.000000000000    -0.177864000000    12.000000000000
           C          0.036678000000     1.219374000000     0.524165000000    12.000000000000
           C          0.031764000000     1.213119000000     1.915444000000    12.000000000000
           C          0.000000000000     0.000000000000     2.610107000000    12.000000000000
           C         -0.031764000000    -1.213119000000     1.915444000000    12.000000000000
           C         -0.036677000000    -1.219374000000     0.524165000000    12.000000000000
           C          0.000000000000     0.000000000000    -1.644734000000    12.000000000000
           H          0.018170000000     2.164705000000    -0.010853000000     1.007825032070
           H          0.042402000000     2.152895000000     2.457886000000     1.007825032070
           H          0.000000000000     0.000000000000     3.695756000000     1.007825032070
           H         -0.042402000000    -2.152895000000     2.457886000000     1.007825032070
           H         -0.018170000000    -2.164705000000    -0.010853000000     1.007825032070
           N         -0.712590000000    -0.905950000000    -2.308460000000    14.003074004780
           N          0.712590000000     0.905950000000    -2.308461000000    14.003074004780
           H          0.673432000000     1.006469000000    -3.315997000000     1.007825032070
           H          1.377190000000     1.485970000000    -1.813317000000     1.007825032070
           H         -0.596462000000    -1.004655000000    -3.308488000000     1.007825032070
           H         -1.332871000000    -1.562466000000    -1.849107000000     1.007825032070

  Running in c1 symmetry.

  Rotational constants: A =      0.12189  B =      0.03958  C =      0.03127 [cm^-1]
  Rotational constants: A =   3654.18635  B =   1186.66686  C =    937.57973 [MHz]
  Nuclear repulsion =  416.898873517441530

  Charge       = 1
  Multiplicity = 1
  Electrons    = 64
  Nalpha       = 32
  Nbeta        = 32

  ==> Algorithm <==

  SCF Algorithm Type is DF.
  DIIS enabled.
  MOM disabled.
  Fractional occupation disabled.
  Guess Type is SAD.
  Energy threshold   = 1.00e-08
  Density threshold  = 1.00e-08
  Integral threshold = 0.00e+00

  ==> Primary Basis <==

  Basis Set: 6-31G*
    Number of shells: 72
    Number of basis function: 153
    Number of Cartesian functions: 153
    Spherical Harmonics?: false
    Max angular momentum: 2

  ==> DFT Potential <==

   => B3LYP-D3 Composite Functional <= 

    B3LYP Hybrid-GGA Exchange-Correlation Functional (VWN1-RPA)

    P.J. Stephens et. al., J. Phys. Chem., 98, 11623-11627, 1994

    Points   =           5000
    Deriv    =              1
    GGA      =           TRUE
    Meta     =          FALSE

    X_LRC        =          FALSE
    X_Hybrid     =           TRUE
    X_Alpha      =   2.000000E-01
    X_Omega      =   0.000000E+00
    C_LRC        =          FALSE
    C_Hybrid     =          FALSE
    C_Alpha      =   0.000000E+00
    C_Omega      =   0.000000E+00

   => Exchange Functionals <=

    0.8000    B3_X
    0.2000      HF 

   => Correlation Functionals <=

    0.1900 VWN3RPA_C
    0.8100   LYP_C

   => -D3ZERO: Empirical Dispersion <=

    Grimme's -D3 (zero-damping) Dispersion Correction

    Grimme S.; Antony J.; Ehrlich S.; Krieg H. (2010), J. Chem. Phys., 132: 154104

    S6  =   1.000000E+00
    S8  =   1.703000E+00
    SR6 =   1.261000E+00
    A6  =   1.400000E+01

   => Molecular Quadrature <=

    Radial Scheme    =       TREUTLER
    Pruning Scheme   =           FLAT
    Nuclear Scheme   =       TREUTLER

    BS radius alpha  =              1
    Pruning alpha    =              1
    Radial Points    =             75
    Spherical Points =            302
    Total Points     =         396931
    Total Blocks     =            363
    Max Points       =           4976
    Max Functions    =            151

  ==> Pre-Iterations <==

   -------------------------------------------------------
    Irrep   Nso     Nmo     Nalpha   Nbeta   Ndocc  Nsocc
   -------------------------------------------------------
     A        153     153       0       0       0       0
   -------------------------------------------------------
    Total     153     153      32      32      32       0
   -------------------------------------------------------

  ==> Integral Setup <==

  ==> DFJK: Density-Fitted J/K Matrices <==

    J tasked:                  Yes
    K tasked:                  Yes
    wK tasked:                  No
    OpenMP threads:              1
    Integrals threads:           1
    Memory (MB):              2250
    Algorithm:                Core
    Integral Cache:           NONE
    Schwarz Cutoff:          1E-12
    Fitting Condition:       1E-12

   => Auxiliary Basis Set <=

  Basis Set: 
    Number of shells: 297
    Number of basis function: 954
    Number of Cartesian functions: 954
    Spherical Harmonics?: false
    Max angular momentum: 3

  Minimum eigenvalue in the overlap matrix is 4.8699649964E-04.
  Using Symmetric Orthogonalization.
  SCF Guess: Superposition of Atomic Densities via on-the-fly atomic UHF.

  ==> Iterations <==

                           Total Energy        Delta E     RMS |[F,P]|

   @DF-RKS iter   0:  -380.51415087591920   -3.80514e+02   3.50796e-02 
   @DF-RKS iter   1:  -381.11906593354399   -6.04915e-01   5.46533e-03 
   @DF-RKS iter   2:  -381.04912948519598    6.99364e-02   6.04956e-03 DIIS
   @DF-RKS iter   3:  -381.46169593892921   -4.12566e-01   8.87349e-04 DIIS
   @DF-RKS iter   4:  -381.46868123119123   -6.98529e-03   3.50078e-04 DIIS
   @DF-RKS iter   5:  -381.46986365364899   -1.18242e-03   1.04298e-04 DIIS
   @DF-RKS iter   6:  -381.46996672465662   -1.03071e-04   3.80340e-05 DIIS
   @DF-RKS iter   7:  -381.46998266745572   -1.59428e-05   9.15716e-06 DIIS
   @DF-RKS iter   8:  -381.46998364287947   -9.75424e-07   3.05977e-06 DIIS
   @DF-RKS iter   9:  -381.46998375893202   -1.16053e-07   9.40058e-07 DIIS
   @DF-RKS iter  10:  -381.46998376897625   -1.00442e-08   2.20767e-07 DIIS
   @DF-RKS iter  11:  -381.46998376953434   -5.58089e-10   5.45438e-08 DIIS
   @DF-RKS iter  12:  -381.46998376955401   -1.96678e-11   3.72235e-08 DIIS
   @DF-RKS iter  13:  -381.46998376957265   -1.86446e-11   4.81102e-09 DIIS

  ==> Post-Iterations <==

    Orbital Energies (a.u.)
    -----------------------

    Doubly Occupied:                                                      

       1A    -14.568422     2A    -14.568357     3A    -10.497346  
       4A    -10.372917     5A    -10.356348     6A    -10.355912  
       7A    -10.342928     8A    -10.340417     9A    -10.340249  
      10A     -1.184394    11A     -1.091987    12A     -1.014198  
      13A     -0.926586    14A     -0.902150    15A     -0.845663  
      16A     -0.786742    17A     -0.772704    18A     -0.741092  
      19A     -0.732652    20A     -0.691030    21A     -0.668686  
      22A     -0.625204    23A     -0.617851    24A     -0.586875  
      25A     -0.578810    26A     -0.573014    27A     -0.518251  
      28A     -0.505375    29A     -0.498056    30A     -0.472921  
      31A     -0.411551    32A     -0.405618  

    Virtual:                                                              

      33A     -0.216884    34A     -0.157366    35A     -0.128076  
      36A     -0.108937    37A     -0.067906    38A     -0.063051  
      39A     -0.038539    40A     -0.033474    41A      0.007173  
      42A      0.020385    43A      0.021679    44A      0.056702  
      45A      0.062033    46A      0.083739    47A      0.126215  
      48A      0.148368    49A      0.157494    50A      0.157940  
      51A      0.201851    52A      0.243571    53A      0.297150  
      54A      0.351453    55A      0.353740    56A      0.380285  
      57A      0.387227    58A      0.397435    59A      0.421893  
      60A      0.422929    61A      0.442279    62A      0.447151  
      63A      0.453247    64A      0.471543    65A      0.472878  
      66A      0.475318    67A      0.485706    68A      0.509989  
      69A      0.527166    70A      0.532752    71A      0.539578  
      72A      0.589882    73A      0.606651    74A      0.655846  
      75A      0.660167    76A      0.682111    77A      0.689154  
      78A      0.704123    79A      0.716323    80A      0.718808  
      81A      0.741769    82A      0.774686    83A      0.776355  
      84A      0.798736    85A      0.811552    86A      0.827269  
      87A      0.849983    88A      0.942659    89A      0.962805  
      90A      0.995279    91A      1.002020    92A      1.027956  
      93A      1.065681    94A      1.076486    95A      1.141032  
      96A      1.166616    97A      1.221120    98A      1.270024  
      99A      1.282798   100A      1.304071   101A      1.322228  
     102A      1.343593   103A      1.362433   104A      1.370528  
     105A      1.444177   106A      1.452110   107A      1.479852  
     108A      1.604357   109A      1.620943   110A      1.655571  
     111A      1.662431   112A      1.736550   113A      1.754278  
     114A      1.797592   115A      1.826383   116A      1.854169  
     117A      1.906496   118A      1.911304   119A      1.962408  
     120A      1.973614   121A      1.997311   122A      2.018651  
     123A      2.039440   124A      2.066772   125A      2.117692  
     126A      2.130423   127A      2.151235   128A      2.213967  
     129A      2.219536   130A      2.268523   131A      2.349610  
     132A      2.369158   133A      2.444685   134A      2.452657  
     135A      2.489800   136A      2.517679   137A      2.549828  
     138A      2.588493   139A      2.603880   140A      2.629752  
     141A      2.739311   142A      2.882186   143A      2.984412  
     144A      3.259293   145A      3.641221   146A      3.655321  
     147A      3.913343   148A      3.948491   149A      3.963730  
     150A      4.055114   151A      4.173894   152A      4.257838  
     153A      4.546427  

    Final Occupation by Irrep:
              A 
    DOCC [    32 ]

  Energy converged.

  @DF-RKS Final Energy:  -381.46998376957265

   => Energetics <=

    Nuclear Repulsion Energy =            416.8988735174415297
    One-Electron Energy =               -1329.0012466249593217
    Two-Electron Energy =                 575.0502018636110506
    DFT Exchange-Correlation Energy =     -44.4058916556658687
    Empirical Dispersion Energy =          -0.0119208700000000
    PCM Polarization Energy =               0.0000000000000000
    EFP Energy =                            0.0000000000000000
    Total Energy =                       -381.4699837695725932


  Saving occupied orbitals to File 180.

*** tstop() called on computer04 at Tue Dec 12 14:34:20 2017
Module time:
	user time   =      59.56 seconds =       0.99 minutes
	system time =       0.35 seconds =       0.01 minutes
	total time  =         61 seconds =       1.02 minutes
Total time:
	user time   =      59.56 seconds =       0.99 minutes
	system time =       0.35 seconds =       0.01 minutes
	total time  =         61 seconds =       1.02 minutes


Properties will be evaluated at   0.000000,   0.000000,   0.000000 Bohr

Properties computed using the SCF density matrix

  Nuclear Dipole Moment: (a.u.)
     X:     0.2292      Y:    -0.1411      Z:    -0.0287

  Electronic Dipole Moment: (a.u.)
     X:    -0.1592      Y:     0.0886      Z:    -2.2259

  Dipole Moment: (a.u.)
     X:     0.0700      Y:    -0.0525      Z:    -2.2546     Total:     2.2563

  Dipole Moment: (Debye)
     X:     0.1780      Y:    -0.1335      Z:    -5.7305     Total:     5.7348


*** tstart() called on computer04
*** at Tue Dec 12 14:34:20 2017


         ------------------------------------------------------------
                                   SCF GRAD                          
                          Rob Parrish, Justin Turney,                
                       Andy Simmonett, and Alex Sokolov              
         ------------------------------------------------------------

  ==> Geometry <==

    Molecular point group: c1
    Full point group: C1

    Geometry (in Angstrom), charge = 1, multiplicity = 1:

       Center              X                  Y                   Z               Mass       
    ------------   -----------------  -----------------  -----------------  -----------------
           C          0.000000000000     0.000000000000    -0.177864000000    12.000000000000
           C          0.036678000000     1.219374000000     0.524165000000    12.000000000000
           C          0.031764000000     1.213119000000     1.915444000000    12.000000000000
           C          0.000000000000     0.000000000000     2.610107000000    12.000000000000
           C         -0.031764000000    -1.213119000000     1.915444000000    12.000000000000
           C         -0.036677000000    -1.219374000000     0.524165000000    12.000000000000
           C          0.000000000000     0.000000000000    -1.644734000000    12.000000000000
           H          0.018170000000     2.164705000000    -0.010853000000     1.007825032070
           H          0.042402000000     2.152895000000     2.457886000000     1.007825032070
           H          0.000000000000     0.000000000000     3.695756000000     1.007825032070
           H         -0.042402000000    -2.152895000000     2.457886000000     1.007825032070
           H         -0.018170000000    -2.164705000000    -0.010853000000     1.007825032070
           N         -0.712590000000    -0.905950000000    -2.308460000000    14.003074004780
           N          0.712590000000     0.905950000000    -2.308461000000    14.003074004780
           H          0.673432000000     1.006469000000    -3.315997000000     1.007825032070
           H          1.377190000000     1.485970000000    -1.813317000000     1.007825032070
           H         -0.596462000000    -1.004655000000    -3.308488000000     1.007825032070
           H         -1.332871000000    -1.562466000000    -1.849107000000     1.007825032070

  Nuclear repulsion =  416.898873517441530

  ==> Basis Set <==

  Basis Set: 6-31G*
    Number of shells: 72
    Number of basis function: 153
    Number of Cartesian functions: 153
    Spherical Harmonics?: false
    Max angular momentum: 2

  ==> DFJKGrad: Density-Fitted SCF Gradients <==

    Gradient:                    1
    J tasked:                  Yes
    K tasked:                  Yes
    wK tasked:                  No
    OpenMP threads:              1
    Integrals threads:           1
    Memory (MB):              2250
    Schwarz Cutoff:          0E+00
    Fitting Condition:       1E-12

   => Auxiliary Basis Set <=

  Basis Set: 
    Number of shells: 297
    Number of basis function: 954
    Number of Cartesian functions: 954
    Spherical Harmonics?: false
    Max angular momentum: 3

  ==> DFT Potential <==

   => B3LYP-D3 Composite Functional <= 

    B3LYP Hybrid-GGA Exchange-Correlation Functional (VWN1-RPA)

    P.J. Stephens et. al., J. Phys. Chem., 98, 11623-11627, 1994

    Points   =           5000
    Deriv    =              1
    GGA      =           TRUE
    Meta     =          FALSE

    X_LRC        =          FALSE
    X_Hybrid     =           TRUE
    X_Alpha      =   2.000000E-01
    X_Omega      =   0.000000E+00
    C_LRC        =          FALSE
    C_Hybrid     =          FALSE
    C_Alpha      =   0.000000E+00
    C_Omega      =   0.000000E+00

   => Exchange Functionals <=

    0.8000    B3_X
    0.2000      HF 

   => Correlation Functionals <=

    0.1900 VWN3RPA_C
    0.8100   LYP_C

   => -D3ZERO: Empirical Dispersion <=

    Grimme's -D3 (zero-damping) Dispersion Correction

    Grimme S.; Antony J.; Ehrlich S.; Krieg H. (2010), J. Chem. Phys., 132: 154104

    S6  =   1.000000E+00
    S8  =   1.703000E+00
    SR6 =   1.261000E+00
    A6  =   1.400000E+01

   => Molecular Quadrature <=

    Radial Scheme    =       TREUTLER
    Pruning Scheme   =           FLAT
    Nuclear Scheme   =       TREUTLER

    BS radius alpha  =              1
    Pruning alpha    =              1
    Radial Points    =             75
    Spherical Points =            302
    Total Points     =         396931
    Total Blocks     =            363
    Max Points       =           4976
    Max Functions    =            151


  -Total Gradient:
     Atom            X                  Y                   Z
    ------   -----------------  -----------------  -----------------
       1       -0.000083158806    -0.000558207115    -0.000010572612
       2       -0.000018394323     0.000130577735    -0.000134384165
       3        0.000005774877    -0.000028934581    -0.000031545173
       4       -0.000005642473    -0.000058010971     0.000040314113
       5       -0.000032733599     0.000134053390     0.000095401470
       6        0.000020024660    -0.000307264427    -0.000009791630
       7        0.002014053508     0.003024130428    -0.005962643374
       8        0.000008200411     0.000008921984     0.000008710380
       9        0.000006465710     0.000002177426    -0.000019120876
      10        0.000006062984     0.000010769809    -0.000000662790
      11        0.000007407927    -0.000000774781    -0.000016302332
      12       -0.000016885303     0.000089239325    -0.000131184758
      13       -0.004637407591    -0.001165665503     0.005448223851
      14        0.000629462054     0.000112014359     0.000628747982
      15       -0.000045781095    -0.000190528037     0.000106173210
      16        0.000315837255    -0.000113816412    -0.000136057349
      17        0.002912309647     0.002632012108     0.002158234468
      18       -0.001088375704    -0.003715366315    -0.002052526966


*** tstop() called on computer04 at Tue Dec 12 14:34:37 2017
Module time:
	user time   =      17.31 seconds =       0.29 minutes
	system time =       0.19 seconds =       0.00 minutes
	total time  =         17 seconds =       0.28 minutes
Total time:
	user time   =      76.88 seconds =       1.28 minutes
	system time =       0.54 seconds =       0.01 minutes
	total time  =         78 seconds =       1.30 minutes

			-----------------------------------------
			 OPTKING 2.0: for geometry optimizations 
			  - R.A. King,  Bethel University        
			-----------------------------------------
	At level 1: Red. Int., RFO, no backsteps, dynamic trust

	Internal coordinates to be generated automatically.
	Detected frag 1 with atoms:  1 2 3 4 5 6 7 8 9 10 11 12 13 14 15 16 17 18
	---Fragment 1 Bond Connectivity---
	 1 : 2 6 7
	 2 : 1 3 8
	 3 : 2 4 9
	 4 : 3 5 10
	 5 : 4 6 11
	 6 : 1 5 12
	 7 : 1 13 14
	 8 : 2
	 9 : 3
	 10 : 4
	 11 : 5
	 12 : 6
	 13 : 7 17 18
	 14 : 7 15 16
	 15 : 14
	 16 : 14
	 17 : 13
	 18 : 13

	Assuming in current code that numbering for constraints corresponds to unified fragment.
	Frozen dihedral atom list: 
	     1     7    13    17
	---Fragment 1 Geometry and Gradient---
	 C           0.0000000000        0.0000000000       -0.3361142489
	 C           0.0693113751        2.3042829136        0.9905282984
	 C           0.0600252609        2.2924626766        3.6196645829
	 C           0.0000000000        0.0000000000        4.9323874075
	 C          -0.0600252609       -2.2924626766        3.6196645829
	 C          -0.0693094854       -2.3042829136        0.9905282984
	 C           0.0000000000        0.0000000000       -3.1080968214
	 H           0.0343363238        4.0906996085       -0.0205091977
	 H           0.0801281675        4.0683819429        4.6447314059
	 H           0.0000000000        0.0000000000        6.9839666940
	 H          -0.0801281675       -4.0683819429        4.6447314059
	 H          -0.0343363238       -4.0906996085       -0.0205091977
	 N          -1.3465999450       -1.7119973901       -4.3623571887
	 N           1.3465999450        1.7119973901       -4.3623590784
	 H           1.2726020491        1.9019507712       -6.2663261875
	 H           2.6025119329        2.8080763417       -3.4266725221
	 H          -1.1271498287       -1.8985228080       -6.2521362339
	 H          -2.5187611605       -2.9526328319       -3.4943058204
	            -0.0000831588       -0.0005582071       -0.0000105726
	            -0.0000183943        0.0001305777       -0.0001343842
	             0.0000057749       -0.0000289346       -0.0000315452
	            -0.0000056425       -0.0000580110        0.0000403141
	            -0.0000327336        0.0001340534        0.0000954015
	             0.0000200247       -0.0003072644       -0.0000097916
	             0.0020140535        0.0030241304       -0.0059626434
	             0.0000082004        0.0000089220        0.0000087104
	             0.0000064657        0.0000021774       -0.0000191209
	             0.0000060630        0.0000107698       -0.0000006628
	             0.0000074079       -0.0000007748       -0.0000163023
	            -0.0000168853        0.0000892393       -0.0001311848
	            -0.0046374076       -0.0011656655        0.0054482239
	             0.0006294621        0.0001120144        0.0006287480
	            -0.0000457811       -0.0001905280        0.0001061732
	             0.0003158373       -0.0001138164       -0.0001360573
	             0.0029123096        0.0026320121        0.0021582345
	            -0.0010883757       -0.0037153663       -0.0020525270

	Previous optimization step data not found.  Starting new optimization.

	---Fragment 1 Intrafragment Coordinates---
	 - Coordinate -           - BOHR/RAD -       - ANG/DEG -
	 R(1,2)           =         2.659794	       1.407502
	 R(1,6)           =         2.659794	       1.407502
	 R(1,7)           =         2.771983	       1.466870
	 R(2,3)           =         2.629179	       1.391302
	 R(2,8)           =         2.052975	       1.086387
	 R(3,4)           =         2.642391	       1.398293
	 R(3,9)           =         2.050623	       1.085143
	 R(4,5)           =         2.642391	       1.398293
	 R(4,10)          =         2.051579	       1.085649
	 R(5,6)           =         2.629179	       1.391302
	 R(5,11)          =         2.050623	       1.085143
	 R(6,12)          =         2.052975	       1.086387
	 R(7,13)          =         2.513451	       1.330061
	 R(7,14)          =         2.513452	       1.330061
	 R(13,17)         =         1.911600	       1.011575
	 R(13,18)         =         1.914850	       1.013295
	 R(14,15)         =         1.914850	       1.013295
	 R(14,16)         =         1.911600	       1.011575
	 B(1,2,3)         =         2.088380	     119.655334
	 B(1,2,8)         =         2.103396	     120.515735
	 B(1,6,5)         =         2.088380	     119.655336
	 B(1,6,12)        =         2.103396	     120.515739
	 B(1,7,13)        =         2.093263	     119.935135
	 B(1,7,14)        =         2.093264	     119.935172
	 B(2,1,6)         =         2.097220	     120.161836
	 B(2,1,7)         =         2.092983	     119.919082
	 B(2,3,4)         =         2.095280	     120.050699
	 B(2,3,9)         =         2.089718	     119.732039
	 B(3,2,8)         =         2.090149	     119.756716
	 B(3,4,5)         =         2.101792	     120.423818
	 B(3,4,10)        =         2.090697	     119.788091
	 B(4,3,9)         =         2.098135	     120.214304
	 B(4,5,6)         =         2.095280	     120.050698
	 B(4,5,11)        =         2.098135	     120.214304
	 B(5,4,10)        =         2.090697	     119.788091
	 B(5,6,12)        =         2.090149	     119.756718
	 B(6,1,7)         =         2.092983	     119.919082
	 B(6,5,11)        =         2.089718	     119.732040
	 B(7,13,17)       =         2.092411	     119.886299
	 B(7,13,18)       =         2.144861	     122.891491
	 B(7,14,15)       =         2.144860	     122.891403
	 B(7,14,16)       =         2.092412	     119.886356
	 B(13,7,14)       =         2.096659	     120.129694
	 B(15,14,16)      =         2.043400	     117.078183
	 B(17,13,18)      =         2.043399	     117.078144
	 D(1,2,3,4)       =         0.007800	       0.446917
	 D(1,2,3,9)       =        -3.122897	    -178.928796
	 D(1,6,5,4)       =         0.007799	       0.446823
	 D(1,6,5,11)      =        -3.122897	    -178.928843
	*D(1,7,13,17)     =        -2.967059	    -169.999982
	 D(1,7,13,18)     =         0.096115	       5.506971
	 D(1,7,14,15)     =        -3.032165	    -173.730265
	 D(1,7,14,16)     =         0.187844	      10.762677
	 D(2,1,6,5)       =        -0.003905	      -0.223756
	 D(2,1,6,12)      =        -3.091438	    -177.126344
	 D(2,1,7,13)      =        -2.505167	    -143.535494
	 D(2,1,7,14)      =         0.636426	      36.464506
	 D(2,3,4,5)       =        -0.003943	      -0.225922
	 D(2,3,4,10)      =         3.137650	     179.774078
	 D(3,2,1,6)       =        -0.003908	      -0.223897
	 D(3,2,1,7)       =         3.137686	     179.776150
	 D(3,4,5,6)       =        -0.003942	      -0.225875
	 D(3,4,5,11)      =         3.126701	     179.146753
	 D(4,3,2,8)       =         3.095745	     177.373103
	 D(4,5,6,12)      =         3.095746	     177.373164
	 D(5,4,3,9)       =         3.126701	     179.146753
	 D(5,6,1,7)       =         3.137687	     179.776197
	 D(6,1,2,8)       =        -3.091438	    -177.126330
	 D(6,1,7,13)      =         0.636427	      36.464553
	 D(6,1,7,14)      =        -2.505166	    -143.535447
	 D(6,5,4,10)      =         3.137650	     179.774125
	 D(7,1,2,8)       =         0.050156	       2.873717
	 D(7,1,6,12)      =         0.050154	       2.873609
	 D(8,2,3,9)       =        -0.034952	      -2.002610
	 D(9,3,4,10)      =        -0.014892	      -0.853247
	 D(10,4,5,11)     =        -0.014892	      -0.853247
	 D(11,5,6,12)     =        -0.034950	      -2.002502
	 D(13,7,14,15)    =         0.109428	       6.269735
	 D(13,7,14,16)    =        -2.953749	    -169.237323
	 D(14,7,13,17)    =         0.174533	      10.000018
	 D(14,7,13,18)    =        -3.045478	    -174.493029

	Current energy   :      -381.4699837696

	Generating empirical Hessian (Schlegel '84) for each fragment.
	Taking RFO optimization step.
	Going to follow RFO solution 1.
	Using RFO vector 1.
	Norm of target step-size    0.10435
	Projected energy change by RFO approximation:        -0.0007185446

	Back-transformation to cartesian coordinates...
	Could not converge backtransformation.
	Using first guess instead.

	Back-transformation to cartesian coordinates to adjust frozen coordinates...
	Successfully converged to displaced geometry.

	--- Internal Coordinate Step in ANG or DEG, aJ/ANG or AJ/DEG ---
	 ---------------------------------------------------------------------------
	   Coordinate                Previous        Force       Change         New 
	   ----------                --------       ------       ------       ------
	    1 R(1,2)          =      1.407502     0.000129     0.000029     1.407531
	    2 R(1,6)          =      1.407502    -0.000361    -0.000054     1.407448
	    3 R(1,7)          =      1.466870     0.001628     0.000297     1.467167
	    4 R(2,3)          =      1.391302     0.000091     0.000024     1.391326
	    5 R(2,8)          =      1.086387    -0.000022    -0.000003     1.086385
	    6 R(3,4)          =      1.398293    -0.000528    -0.000069     1.398224
	    7 R(3,9)          =      1.085143     0.000060     0.000020     1.085164
	    8 R(4,5)          =      1.398293    -0.000054     0.000004     1.398297
	    9 R(4,10)         =      1.085649    -0.000003     0.000006     1.085655
	   10 R(5,6)          =      1.391302    -0.000711    -0.000094     1.391207
	   11 R(5,11)         =      1.085143     0.000057     0.000011     1.085154
	   12 R(6,12)         =      1.086387     0.000113     0.000032     1.086420
	   13 R(7,13)         =      1.330061    -0.002196    -0.000198     1.329863
	   14 R(7,14)         =      1.330061    -0.000413    -0.000024     1.330038
	   15 R(13,17)        =      1.011575     0.016947     0.003208     1.014783
	   16 R(13,18)        =      1.013295    -0.017660    -0.000717     1.012579
	   17 R(14,15)        =      1.013295     0.001020     0.000167     1.013461
	   18 R(14,16)        =      1.011575    -0.000627     0.000000     1.011575
	   19 B(1,2,3)        =    119.655334     0.000007     0.025397   119.680730
	   20 B(1,2,8)        =    120.515735    -0.000005    -0.017900   120.497835
	   21 B(1,6,5)        =    119.655336     0.000009     0.026082   119.681418
	   22 B(1,6,12)       =    120.515739     0.000008     0.043153   120.558892
	   23 B(1,7,13)       =    119.935135     0.000103     0.307003   120.242137
	   24 B(1,7,14)       =    119.935172    -0.000007    -0.022350   119.912822
	   25 B(2,1,6)        =    120.161836    -0.000012    -0.035948   120.125888
	   26 B(2,1,7)        =    119.919082     0.000006     0.019674   119.938756
	   27 B(2,3,4)        =    120.050699    -0.000003    -0.009445   120.041254
	   28 B(2,3,9)        =    119.732039     0.000003     0.011163   119.743202
	   29 B(3,2,8)        =    119.756716    -0.000003    -0.008877   119.747839
	   30 B(3,4,5)        =    120.423818    -0.000001    -0.002095   120.421722
	   31 B(3,4,10)       =    119.788091     0.000001     0.004661   119.792752
	   32 B(4,3,9)        =    120.214304     0.000000    -0.001711   120.212593
	   33 B(4,5,6)        =    120.050698    -0.000001    -0.004284   120.046414
	   34 B(4,5,11)       =    120.214304    -0.000001    -0.002506   120.211797
	   35 B(5,4,10)       =    119.788091    -0.000001    -0.002566   119.785525
	   36 B(5,6,12)       =    119.756718    -0.000017    -0.071020   119.685698
	   37 B(6,1,7)        =    119.919082     0.000005     0.016272   119.935354
	   38 B(6,5,11)       =    119.732040     0.000001     0.007038   119.739078
	   39 B(7,13,17)      =    119.886299     0.000555     2.637296   122.523595
	   40 B(7,13,18)      =    122.891491    -0.000533    -2.472065   120.419426
	   41 B(7,14,15)      =    122.891403     0.000024     0.127754   123.019157
	   42 B(7,14,16)      =    119.886356    -0.000021    -0.081141   119.805215
	   43 B(13,7,14)      =    120.129694    -0.000096    -0.290040   119.839654
	   44 B(15,14,16)     =    117.078183    -0.000001     0.004421   117.082603
	   45 B(17,13,18)     =    117.078144    -0.000017    -0.047254   117.030890
	   46 D(1,2,3,4)      =      0.446917     0.000000     0.028143     0.475060
	   47 D(1,2,3,9)      =   -178.928796     0.000000     0.027434  -178.901361
	   48 D(1,6,5,4)      =      0.446823     0.000000     0.027744     0.474567
	   49 D(1,6,5,11)     =   -178.928843    -0.000000     0.001036  -178.927806
	   50 *D(1,7,13,17)   =   -169.999982    -0.000000     0.000000  -169.999982
	   51 D(1,7,13,18)    =      5.506971     0.000018     2.579333     8.086304
	   52 D(1,7,14,15)    =   -173.730265     0.000003     0.592695  -173.137570
	   53 D(1,7,14,16)    =     10.762677    -0.000002    -0.288644    10.474033
	   54 D(2,1,6,5)      =     -0.223756    -0.000000    -0.006361    -0.230117
	   55 D(2,1,6,12)     =   -177.126344     0.000000     0.033901  -177.092443
	   56 D(2,1,7,13)     =   -143.535494     0.000003     0.520801  -143.014693
	   57 D(2,1,7,14)     =     36.464506    -0.000002    -0.324838    36.139668
	   58 D(2,3,4,5)      =     -0.225922    -0.000000    -0.006764    -0.232686
	   59 D(2,3,4,10)     =    179.774078     0.000000    -0.000185   179.773893
	   60 D(3,2,1,6)      =     -0.223897    -0.000000    -0.021679    -0.245577
	   61 D(3,2,1,7)      =    179.776150    -0.000000    -0.002736   179.773414
	   62 D(3,4,5,6)      =     -0.225875    -0.000000    -0.021306    -0.247180
	   63 D(3,4,5,11)     =    179.146753     0.000000     0.005590   179.152342
	   64 D(4,3,2,8)      =    177.373103    -0.000000    -0.001626   177.371477
	   65 D(4,5,6,12)     =    177.373164     0.000000    -0.008621   177.364543
	   66 D(5,4,3,9)      =    179.146753    -0.000000    -0.005971   179.140781
	   67 D(5,6,1,7)      =    179.776197    -0.000000    -0.025304   179.750893
	   68 D(6,1,2,8)      =   -177.126330     0.000000     0.008021  -177.118309
	   69 D(6,1,7,13)     =     36.464553     0.000003     0.539708    37.004261
	   70 D(6,1,7,14)     =   -143.535447    -0.000002    -0.305931  -143.841378
	   71 D(6,5,4,10)     =    179.774125    -0.000000    -0.027884   179.746241
	   72 D(7,1,2,8)      =      2.873717     0.000000     0.026965     2.900682
	   73 D(7,1,6,12)     =      2.873609     0.000000     0.014958     2.888567
	   74 D(8,2,3,9)      =     -2.002610    -0.000000    -0.002335    -2.004944
	   75 D(9,3,4,10)     =     -0.853247     0.000000     0.000607    -0.852640
	   76 D(10,4,5,11)    =     -0.853247     0.000000    -0.000989    -0.854236
	   77 D(11,5,6,12)    =     -2.002502    -0.000000    -0.035329    -2.037830
	   78 D(13,7,14,15)   =      6.269735    -0.000001    -0.249515     6.020221
	   79 D(13,7,14,16)   =   -169.237323    -0.000007    -1.130853  -170.368176
	   80 D(14,7,13,17)   =     10.000018     0.000005     0.845018    10.845037
	   81 D(14,7,13,18)   =   -174.493029     0.000023     3.424352  -171.068677
	 ---------------------------------------------------------------------------
	Successfully symmetrized geometry.

  ==> Convergence Check <==

  Measures of convergence in internal coordinates in au.
  Criteria marked as inactive (o), active & met (*), and active & unmet ( ).
  --------------------------------------------------------------------------------------------- ~
   Step     Total Energy     Delta E     MAX Force     RMS Force      MAX Disp      RMS Disp    ~
  --------------------------------------------------------------------------------------------- ~
    Convergence Criteria    1.00e-06 *    3.00e-04 *             o    1.20e-03 *             o  ~
  --------------------------------------------------------------------------------------------- ~
      1    -381.46998377   -3.81e+02      7.29e-03      1.21e-03 o    5.98e-02      1.15e-02 o  ~
  ---------------------------------------------------------------------------------------------

	Writing optimization data to binary file.
	Structure for next step:
	Cartesian Geometry (in Angstrom)
	    C     0.0057880942  -0.0040769870  -0.1787244148
	    C     0.0372491976   1.2159548290   0.5224722655
	    C     0.0278273262   1.2113915649   1.9137589537
	    C    -0.0026925586  -0.0010164893   2.6095792608
	    C    -0.0288312465  -1.2149338707   1.9160690755
	    C    -0.0297825558  -1.2225112211   0.5248826591
	    C     0.0105021605  -0.0057253804  -1.6458830943
	    H     0.0177221752   2.1606515255  -0.0136231071
	    H     0.0339962862   2.1517709990   2.4552645708
	    H    -0.0062270099   0.0000474629   3.6952275983
	    H    -0.0386114605  -2.1541655644   2.4594913896
	    H    -0.0067494471  -2.1689704907  -0.0080266668
	    N    -0.7036225897  -0.9047317327  -2.3169643599
	    N     0.7180113471   0.9054060719  -2.3079027476
	    H     0.6763939461   1.0122405730  -3.3148577250
	    H     1.3726473830   1.4935164278  -1.8090421119
	    H    -0.6135014388  -1.0351951252  -3.3192829678
	    H    -1.3488296091  -1.5143345923  -1.8297195781
			--------------------------
			 OPTKING Finished Execution 
			--------------------------

    Structure for next step:
    Molecular point group: c1
    Full point group: C1

    Geometry (in Angstrom), charge = 1, multiplicity = 1:

    C            0.005788094184    -0.004076986966    -0.178724414807
    C            0.037249197559     1.215954828994     0.522472265515
    C            0.027827326222     1.211391564916     1.913758953661
    C           -0.002692558619    -0.001016489328     2.609579260785
    C           -0.028831246545    -1.214933870697     1.916069075490
    C           -0.029782555835    -1.222511221139     0.524882659106
    C            0.010502160451    -0.005725380441    -1.645883094268
    H            0.017722175220     2.160651525476    -0.013623107116
    H            0.033996286235     2.151770998974     2.455264570817
    H           -0.006227009947     0.000047462915     3.695227598328
    H           -0.038611460456    -2.154165564445     2.459491389571
    H           -0.006749447137    -2.168970490678    -0.008026666792
    N           -0.703622589717    -0.904731732735    -2.316964359857
    N            0.718011347147     0.905406071855    -2.307902747629
    H            0.676393946072     1.012240572973    -3.314857725032
    H            1.372647383013     1.493516427824    -1.809042111917
    H           -0.613501438786    -1.035195125220    -3.319282967800
    H           -1.348829609062    -1.514334592277    -1.829719578055

gradient() will perform analytic gradient computation.

*** tstart() called on computer04
*** at Tue Dec 12 14:34:38 2017


         ---------------------------------------------------------
                                   SCF
            by Justin Turney, Rob Parrish, and Andy Simmonett
                              RKS Reference
                        1 Threads,   3145 MiB Core
         ---------------------------------------------------------

  ==> Geometry <==

    Molecular point group: c1
    Full point group: C1

    Geometry (in Angstrom), charge = 1, multiplicity = 1:

       Center              X                  Y                   Z               Mass       
    ------------   -----------------  -----------------  -----------------  -----------------
           C          0.005788094184    -0.004076986966    -0.178724414807    12.000000000000
           C          0.037249197559     1.215954828994     0.522472265515    12.000000000000
           C          0.027827326222     1.211391564916     1.913758953661    12.000000000000
           C         -0.002692558619    -0.001016489328     2.609579260785    12.000000000000
           C         -0.028831246545    -1.214933870697     1.916069075490    12.000000000000
           C         -0.029782555835    -1.222511221139     0.524882659106    12.000000000000
           C          0.010502160451    -0.005725380441    -1.645883094268    12.000000000000
           H          0.017722175220     2.160651525476    -0.013623107116     1.007825032070
           H          0.033996286235     2.151770998974     2.455264570817     1.007825032070
           H         -0.006227009947     0.000047462915     3.695227598328     1.007825032070
           H         -0.038611460456    -2.154165564445     2.459491389571     1.007825032070
           H         -0.006749447137    -2.168970490678    -0.008026666792     1.007825032070
           N         -0.703622589717    -0.904731732735    -2.316964359857    14.003074004780
           N          0.718011347147     0.905406071855    -2.307902747629    14.003074004780
           H          0.676393946072     1.012240572973    -3.314857725032     1.007825032070
           H          1.372647383013     1.493516427824    -1.809042111917     1.007825032070
           H         -0.613501438786    -1.035195125220    -3.319282967800     1.007825032070
           H         -1.348829609062    -1.514334592277    -1.829719578055     1.007825032070

  Running in c1 symmetry.

  Rotational constants: A =      0.12200  B =      0.03953  C =      0.03126 [cm^-1]
  Rotational constants: A =   3657.49116  B =   1185.14276  C =    937.22021 [MHz]
  Nuclear repulsion =  416.850972342515604

  Charge       = 1
  Multiplicity = 1
  Electrons    = 64
  Nalpha       = 32
  Nbeta        = 32

  ==> Algorithm <==

  SCF Algorithm Type is DF.
  DIIS enabled.
  MOM disabled.
  Fractional occupation disabled.
  Guess Type is READ.
  Energy threshold   = 1.00e-08
  Density threshold  = 1.00e-08
  Integral threshold = 0.00e+00

  ==> Primary Basis <==

  Basis Set: 6-31G*
    Number of shells: 72
    Number of basis function: 153
    Number of Cartesian functions: 153
    Spherical Harmonics?: false
    Max angular momentum: 2

  ==> DFT Potential <==

   => B3LYP-D3 Composite Functional <= 

    B3LYP Hybrid-GGA Exchange-Correlation Functional (VWN1-RPA)

    P.J. Stephens et. al., J. Phys. Chem., 98, 11623-11627, 1994

    Points   =           5000
    Deriv    =              1
    GGA      =           TRUE
    Meta     =          FALSE

    X_LRC        =          FALSE
    X_Hybrid     =           TRUE
    X_Alpha      =   2.000000E-01
    X_Omega      =   0.000000E+00
    C_LRC        =          FALSE
    C_Hybrid     =          FALSE
    C_Alpha      =   0.000000E+00
    C_Omega      =   0.000000E+00

   => Exchange Functionals <=

    0.8000    B3_X
    0.2000      HF 

   => Correlation Functionals <=

    0.1900 VWN3RPA_C
    0.8100   LYP_C

   => -D3ZERO: Empirical Dispersion <=

    Grimme's -D3 (zero-damping) Dispersion Correction

    Grimme S.; Antony J.; Ehrlich S.; Krieg H. (2010), J. Chem. Phys., 132: 154104

    S6  =   1.000000E+00
    S8  =   1.703000E+00
    SR6 =   1.261000E+00
    A6  =   1.400000E+01

   => Molecular Quadrature <=

    Radial Scheme    =       TREUTLER
    Pruning Scheme   =           FLAT
    Nuclear Scheme   =       TREUTLER

    BS radius alpha  =              1
    Pruning alpha    =              1
    Radial Points    =             75
    Spherical Points =            302
    Total Points     =         396951
    Total Blocks     =            361
    Max Points       =           4989
    Max Functions    =            151

  ==> Pre-Iterations <==

   -------------------------------------------------------
    Irrep   Nso     Nmo     Nalpha   Nbeta   Ndocc  Nsocc
   -------------------------------------------------------
     A        153     153       0       0       0       0
   -------------------------------------------------------
    Total     153     153      32      32      32       0
   -------------------------------------------------------

  ==> Integral Setup <==

  ==> DFJK: Density-Fitted J/K Matrices <==

    J tasked:                  Yes
    K tasked:                  Yes
    wK tasked:                  No
    OpenMP threads:              1
    Integrals threads:           1
    Memory (MB):              2250
    Algorithm:                Core
    Integral Cache:           NONE
    Schwarz Cutoff:          1E-12
    Fitting Condition:       1E-12

   => Auxiliary Basis Set <=

  Basis Set: 
    Number of shells: 297
    Number of basis function: 954
    Number of Cartesian functions: 954
    Spherical Harmonics?: false
    Max angular momentum: 3

  Minimum eigenvalue in the overlap matrix is 4.8675838128E-04.
  Using Symmetric Orthogonalization.
  SCF Guess: Reading in previously saved MOs, projecting if necessary.

  Using orbitals from previous SCF, no projection.
  Recomputing DOCC and SOCC from number of alpha and beta electrons from previous calculation.
              A 
    DOCC [    32 ]

  ==> Iterations <==

                           Total Energy        Delta E     RMS |[F,P]|

   @DF-RKS iter   0:  -381.46840355342187   -3.81468e+02   1.89578e-04 
   @DF-RKS iter   1:  -381.47040801349436   -2.00446e-03   2.81055e-05 
   @DF-RKS iter   2:  -381.47041213438007   -4.12089e-06   2.55855e-05 DIIS
   @DF-RKS iter   3:  -381.47041812952915   -5.99515e-06   1.28871e-05 DIIS
   @DF-RKS iter   4:  -381.47042004623000   -1.91670e-06   2.25574e-06 DIIS
   @DF-RKS iter   5:  -381.47042008769307   -4.14631e-08   1.31395e-06 DIIS
   @DF-RKS iter   6:  -381.47042010625734   -1.85643e-08   2.58855e-07 DIIS
   @DF-RKS iter   7:  -381.47042010689137   -6.34031e-10   1.07528e-07 DIIS
   @DF-RKS iter   8:  -381.47042010702279   -1.31422e-10   1.94848e-08 DIIS
   @DF-RKS iter   9:  -381.47042010702620   -3.41061e-12   7.24465e-09 DIIS

  ==> Post-Iterations <==

    Orbital Energies (a.u.)
    -----------------------

    Doubly Occupied:                                                      

       1A    -14.567929     2A    -14.567719     3A    -10.497058  
       4A    -10.373374     5A    -10.356403     6A    -10.356283  
       7A    -10.343167     8A    -10.340560     9A    -10.340504  
      10A     -1.183667    11A     -1.091313    12A     -1.014391  
      13A     -0.926590    14A     -0.902341    15A     -0.845351  
      16A     -0.785751    17A     -0.772996    18A     -0.741649  
      19A     -0.732876    20A     -0.688314    21A     -0.669225  
      22A     -0.625688    23A     -0.617426    24A     -0.586668  
      25A     -0.579271    26A     -0.572909    27A     -0.518548  
      28A     -0.505607    29A     -0.498204    30A     -0.472353  
      31A     -0.411913    32A     -0.405835  

    Virtual:                                                              

      33A     -0.217030    34A     -0.157596    35A     -0.128212  
      36A     -0.107785    37A     -0.067915    38A     -0.061440  
      39A     -0.038606    40A     -0.034518    41A      0.006930  
      42A      0.020178    43A      0.021043    44A      0.056327  
      45A      0.062026    46A      0.083821    47A      0.127028  
      48A      0.147459    49A      0.157573    50A      0.157720  
      51A      0.202136    52A      0.242690    53A      0.298036  
      54A      0.349863    55A      0.354972    56A      0.380996  
      57A      0.387492    58A      0.397513    59A      0.421792  
      60A      0.422189    61A      0.442381    62A      0.447636  
      63A      0.453427    64A      0.471342    65A      0.472126  
      66A      0.475150    67A      0.485492    68A      0.512336  
      69A      0.528305    70A      0.531694    71A      0.539492  
      72A      0.589933    73A      0.606137    74A      0.656481  
      75A      0.658525    76A      0.682222    77A      0.687943  
      78A      0.703966    79A      0.716371    80A      0.719490  
      81A      0.740423    82A      0.773329    83A      0.774923  
      84A      0.798433    85A      0.811334    86A      0.827374  
      87A      0.850084    88A      0.942500    89A      0.962488  
      90A      0.996724    91A      1.001137    92A      1.027717  
      93A      1.066946    94A      1.076182    95A      1.141802  
      96A      1.164184    97A      1.222258    98A      1.270575  
      99A      1.282780   100A      1.305396   101A      1.321269  
     102A      1.343432   103A      1.362308   104A      1.373927  
     105A      1.444410   106A      1.456918   107A      1.475574  
     108A      1.607333   109A      1.620861   110A      1.655221  
     111A      1.661837   112A      1.736481   113A      1.753195  
     114A      1.795906   115A      1.825515   116A      1.851906  
     117A      1.905379   118A      1.908973   119A      1.957961  
     120A      1.973388   121A      1.997263   122A      2.017241  
     123A      2.040479   124A      2.070050   125A      2.122797  
     126A      2.130187   127A      2.151458   128A      2.216116  
     129A      2.223336   130A      2.267591   131A      2.351540  
     132A      2.365870   133A      2.443482   134A      2.452801  
     135A      2.489488   136A      2.516276   137A      2.550308  
     138A      2.587839   139A      2.604337   140A      2.630181  
     141A      2.737865   142A      2.884881   143A      2.982928  
     144A      3.259124   145A      3.638808   146A      3.656987  
     147A      3.912074   148A      3.947998   149A      3.963513  
     150A      4.054327   151A      4.173790   152A      4.257686  
     153A      4.546202  

    Final Occupation by Irrep:
              A 
    DOCC [    32 ]

  Energy converged.

  @DF-RKS Final Energy:  -381.47042010702620

   => Energetics <=

    Nuclear Repulsion Energy =            416.8509723425156039
    One-Electron Energy =               -1328.9117416682429393
    Two-Electron Energy =                 575.0073317411645348
    DFT Exchange-Correlation Energy =     -44.4050536424633506
    Empirical Dispersion Energy =          -0.0119288800000000
    PCM Polarization Energy =               0.0000000000000000
    EFP Energy =                            0.0000000000000000
    Total Energy =                       -381.4704201070261433


  Saving occupied orbitals to File 180.

*** tstop() called on computer04 at Tue Dec 12 14:35:22 2017
Module time:
	user time   =      43.97 seconds =       0.73 minutes
	system time =       0.25 seconds =       0.00 minutes
	total time  =         44 seconds =       0.73 minutes
Total time:
	user time   =     121.05 seconds =       2.02 minutes
	system time =       0.81 seconds =       0.01 minutes
	total time  =        123 seconds =       2.05 minutes


Properties will be evaluated at   0.000000,   0.000000,   0.000000 Bohr

Properties computed using the SCF density matrix

  Nuclear Dipole Moment: (a.u.)
     X:     0.5819      Y:    -0.3311      Z:    -0.1620

  Electronic Dipole Moment: (a.u.)
     X:    -0.5334      Y:     0.2962      Z:    -2.0862

  Dipole Moment: (a.u.)
     X:     0.0485      Y:    -0.0349      Z:    -2.2482     Total:     2.2490

  Dipole Moment: (Debye)
     X:     0.1232      Y:    -0.0888      Z:    -5.7144     Total:     5.7164


*** tstart() called on computer04
*** at Tue Dec 12 14:35:22 2017


         ------------------------------------------------------------
                                   SCF GRAD                          
                          Rob Parrish, Justin Turney,                
                       Andy Simmonett, and Alex Sokolov              
         ------------------------------------------------------------

  ==> Geometry <==

    Molecular point group: c1
    Full point group: C1

    Geometry (in Angstrom), charge = 1, multiplicity = 1:

       Center              X                  Y                   Z               Mass       
    ------------   -----------------  -----------------  -----------------  -----------------
           C          0.005788094184    -0.004076986966    -0.178724414807    12.000000000000
           C          0.037249197559     1.215954828994     0.522472265515    12.000000000000
           C          0.027827326222     1.211391564916     1.913758953661    12.000000000000
           C         -0.002692558619    -0.001016489328     2.609579260785    12.000000000000
           C         -0.028831246545    -1.214933870697     1.916069075490    12.000000000000
           C         -0.029782555835    -1.222511221139     0.524882659106    12.000000000000
           C          0.010502160451    -0.005725380441    -1.645883094268    12.000000000000
           H          0.017722175220     2.160651525476    -0.013623107116     1.007825032070
           H          0.033996286235     2.151770998974     2.455264570817     1.007825032070
           H         -0.006227009947     0.000047462915     3.695227598328     1.007825032070
           H         -0.038611460456    -2.154165564445     2.459491389571     1.007825032070
           H         -0.006749447137    -2.168970490678    -0.008026666792     1.007825032070
           N         -0.703622589717    -0.904731732735    -2.316964359857    14.003074004780
           N          0.718011347147     0.905406071855    -2.307902747629    14.003074004780
           H          0.676393946072     1.012240572973    -3.314857725032     1.007825032070
           H          1.372647383013     1.493516427824    -1.809042111917     1.007825032070
           H         -0.613501438786    -1.035195125220    -3.319282967800     1.007825032070
           H         -1.348829609062    -1.514334592277    -1.829719578055     1.007825032070

  Nuclear repulsion =  416.850972342515604

  ==> Basis Set <==

  Basis Set: 6-31G*
    Number of shells: 72
    Number of basis function: 153
    Number of Cartesian functions: 153
    Spherical Harmonics?: false
    Max angular momentum: 2

  ==> DFJKGrad: Density-Fitted SCF Gradients <==

    Gradient:                    1
    J tasked:                  Yes
    K tasked:                  Yes
    wK tasked:                  No
    OpenMP threads:              1
    Integrals threads:           1
    Memory (MB):              2250
    Schwarz Cutoff:          0E+00
    Fitting Condition:       1E-12

   => Auxiliary Basis Set <=

  Basis Set: 
    Number of shells: 297
    Number of basis function: 954
    Number of Cartesian functions: 954
    Spherical Harmonics?: false
    Max angular momentum: 3

  ==> DFT Potential <==

   => B3LYP-D3 Composite Functional <= 

    B3LYP Hybrid-GGA Exchange-Correlation Functional (VWN1-RPA)

    P.J. Stephens et. al., J. Phys. Chem., 98, 11623-11627, 1994

    Points   =           5000
    Deriv    =              1
    GGA      =           TRUE
    Meta     =          FALSE

    X_LRC        =          FALSE
    X_Hybrid     =           TRUE
    X_Alpha      =   2.000000E-01
    X_Omega      =   0.000000E+00
    C_LRC        =          FALSE
    C_Hybrid     =          FALSE
    C_Alpha      =   0.000000E+00
    C_Omega      =   0.000000E+00

   => Exchange Functionals <=

    0.8000    B3_X
    0.2000      HF 

   => Correlation Functionals <=

    0.1900 VWN3RPA_C
    0.8100   LYP_C

   => -D3ZERO: Empirical Dispersion <=

    Grimme's -D3 (zero-damping) Dispersion Correction

    Grimme S.; Antony J.; Ehrlich S.; Krieg H. (2010), J. Chem. Phys., 132: 154104

    S6  =   1.000000E+00
    S8  =   1.703000E+00
    SR6 =   1.261000E+00
    A6  =   1.400000E+01

   => Molecular Quadrature <=

    Radial Scheme    =       TREUTLER
    Pruning Scheme   =           FLAT
    Nuclear Scheme   =       TREUTLER

    BS radius alpha  =              1
    Pruning alpha    =              1
    Radial Points    =             75
    Spherical Points =            302
    Total Points     =         396951
    Total Blocks     =            361
    Max Points       =           4989
    Max Functions    =            151


  -Total Gradient:
     Atom            X                  Y                   Z
    ------   -----------------  -----------------  -----------------
       1        0.000195701284     0.000205601647     0.000240906011
       2        0.000070552586    -0.000094552770     0.000001250347
       3       -0.000046906007    -0.000032785924     0.000104770047
       4        0.000003997114     0.000079010756    -0.000023351463
       5        0.000022152692    -0.000033522233    -0.000082625482
       6       -0.000053716675     0.000141033666     0.000125148830
       7        0.001310658277    -0.000970366695    -0.000087323171
       8        0.000035751373    -0.000023456454    -0.000038770113
       9       -0.000003363889     0.000003337163     0.000023868321
      10        0.000001605708    -0.000003684317    -0.000002043838
      11       -0.000004748085    -0.000004314308     0.000008146387
      12        0.000065893167    -0.000031229727     0.000103993117
      13       -0.001200714530     0.002388628432     0.001086026115
      14       -0.000787901213    -0.000297052456    -0.000357281106
      15        0.000164324961     0.000124626255    -0.000150465648
      16       -0.000215982515     0.000106254423     0.000173106355
      17        0.001034926630    -0.000515424435    -0.001093203910
      18       -0.000591985976    -0.001039207122    -0.000055185484


*** tstop() called on computer04 at Tue Dec 12 14:35:38 2017
Module time:
	user time   =      16.06 seconds =       0.27 minutes
	system time =       0.17 seconds =       0.00 minutes
	total time  =         16 seconds =       0.27 minutes
Total time:
	user time   =     137.12 seconds =       2.29 minutes
	system time =       0.98 seconds =       0.02 minutes
	total time  =        139 seconds =       2.32 minutes

			-----------------------------------------
			 OPTKING 2.0: for geometry optimizations 
			  - R.A. King,  Bethel University        
			-----------------------------------------
	At level 1: Red. Int., RFO, no backsteps, dynamic trust

	Previous internal coordinate definitions found.
	---Fragment 1 Geometry and Gradient---
	 C           0.0109379128       -0.0077043888       -0.3377401972
	 C           0.0703907821        2.2978216168        0.9873294939
	 C           0.0525860256        2.2891982974        3.6164803068
	 C          -0.0050881984       -0.0019208864        4.9313901249
	 C          -0.0544831600       -2.2958922852        3.6208458044
	 C          -0.0562808741       -2.3102114023        0.9918844776
	 C           0.0198462071       -0.0108194010       -3.1102682949
	 H           0.0334900576        4.0830396518       -0.0257439415
	 H           0.0642436705        4.0662578887        4.6397776226
	 H          -0.0117673434        0.0000896919        6.9829681595
	 H          -0.0729650859       -4.0707829617        4.6477651525
	 H          -0.0127546066       -4.0987602177       -0.0151682020
	 N          -1.3296539955       -1.7096951986       -4.3784280998
	 N           1.3568448064        1.7109695149       -4.3613041344
	 H           1.2781993160        1.9128574635       -6.2641732698
	 H           2.5939276309        2.8223370236       -3.4185941544
	 H          -1.1593497014       -1.9562352808       -6.2725357667
	 H          -2.5489185611       -2.8616776530       -3.4576689025
	             0.0001957013        0.0002056016        0.0002409060
	             0.0000705526       -0.0000945528        0.0000012503
	            -0.0000469060       -0.0000327859        0.0001047700
	             0.0000039971        0.0000790108       -0.0000233515
	             0.0000221527       -0.0000335222       -0.0000826255
	            -0.0000537167        0.0001410337        0.0001251488
	             0.0013106583       -0.0009703667       -0.0000873232
	             0.0000357514       -0.0000234565       -0.0000387701
	            -0.0000033639        0.0000033372        0.0000238683
	             0.0000016057       -0.0000036843       -0.0000020438
	            -0.0000047481       -0.0000043143        0.0000081464
	             0.0000658932       -0.0000312297        0.0001039931
	            -0.0012007145        0.0023886284        0.0010860261
	            -0.0007879012       -0.0002970525       -0.0003572811
	             0.0001643250        0.0001246263       -0.0001504656
	            -0.0002159825        0.0001062544        0.0001731064
	             0.0010349266       -0.0005154244       -0.0010932039
	            -0.0005919860       -0.0010392071       -0.0000551855

	---Fragment 1 Intrafragment Coordinates---
	 - Coordinate -           - BOHR/RAD -       - ANG/DEG -
	 R(1,2)           =         2.659849	       1.407531
	 R(1,6)           =         2.659691	       1.407448
	 R(1,7)           =         2.772544	       1.467167
	 R(2,3)           =         2.629225	       1.391326
	 R(2,8)           =         2.052969	       1.086385
	 R(3,4)           =         2.642261	       1.398224
	 R(3,9)           =         2.050662	       1.085164
	 R(4,5)           =         2.642399	       1.398297
	 R(4,10)          =         2.051590	       1.085655
	 R(5,6)           =         2.629001	       1.391207
	 R(5,11)          =         2.050644	       1.085154
	 R(6,12)          =         2.053036	       1.086420
	 R(7,13)          =         2.513078	       1.329863
	 R(7,14)          =         2.513407	       1.330038
	 R(13,17)         =         1.917662	       1.014783
	 R(13,18)         =         1.913496	       1.012579
	 R(14,15)         =         1.915164	       1.013461
	 R(14,16)         =         1.911600	       1.011575
	 B(1,2,3)         =         2.088823	     119.680730
	 B(1,2,8)         =         2.103084	     120.497835
	 B(1,6,5)         =         2.088835	     119.681418
	 B(1,6,12)        =         2.104150	     120.558892
	 B(1,7,13)        =         2.098621	     120.242137
	 B(1,7,14)        =         2.092874	     119.912822
	 B(2,1,6)         =         2.096592	     120.125888
	 B(2,1,7)         =         2.093326	     119.938756
	 B(2,3,4)         =         2.095115	     120.041254
	 B(2,3,9)         =         2.089913	     119.743202
	 B(3,2,8)         =         2.089994	     119.747839
	 B(3,4,5)         =         2.101756	     120.421722
	 B(3,4,10)        =         2.090778	     119.792752
	 B(4,3,9)         =         2.098106	     120.212593
	 B(4,5,6)         =         2.095205	     120.046414
	 B(4,5,11)        =         2.098092	     120.211797
	 B(5,4,10)        =         2.090652	     119.785525
	 B(5,6,12)        =         2.088909	     119.685698
	 B(6,1,7)         =         2.093267	     119.935354
	 B(6,5,11)        =         2.089841	     119.739078
	 B(7,13,17)       =         2.138440	     122.523595
	 B(7,13,18)       =         2.101715	     120.419426
	 B(7,14,15)       =         2.147089	     123.019157
	 B(7,14,16)       =         2.090995	     119.805215
	 B(13,7,14)       =         2.091597	     119.839654
	 B(15,14,16)      =         2.043477	     117.082603
	 B(17,13,18)      =         2.042574	     117.030890
	 D(1,2,3,4)       =         0.008291	       0.475060
	 D(1,2,3,9)       =        -3.122418	    -178.901361
	 D(1,6,5,4)       =         0.008283	       0.474567
	 D(1,6,5,11)      =        -3.122879	    -178.927806
	*D(1,7,13,17)     =        -2.967059	    -169.999982
	 D(1,7,13,18)     =         0.141133	       8.086304
	 D(1,7,14,15)     =        -3.021821	    -173.137570
	 D(1,7,14,16)     =         0.182806	      10.474033
	 D(2,1,6,5)       =        -0.004016	      -0.230117
	 D(2,1,6,12)      =        -3.090846	    -177.092443
	 D(2,1,7,13)      =        -2.496077	    -143.014693
	 D(2,1,7,14)      =         0.630756	      36.139668
	 D(2,3,4,5)       =        -0.004061	      -0.232686
	 D(2,3,4,10)      =         3.137646	     179.773893
	 D(3,2,1,6)       =        -0.004286	      -0.245577
	 D(3,2,1,7)       =         3.137638	     179.773414
	 D(3,4,5,6)       =        -0.004314	      -0.247180
	 D(3,4,5,11)      =         3.126798	     179.152342
	 D(4,3,2,8)       =         3.095716	     177.371477
	 D(4,5,6,12)      =         3.095595	     177.364543
	 D(5,4,3,9)       =         3.126596	     179.140781
	 D(5,6,1,7)       =         3.137245	     179.750893
	 D(6,1,2,8)       =        -3.091298	    -177.118309
	 D(6,1,7,13)      =         0.645846	      37.004261
	 D(6,1,7,14)      =        -2.510506	    -143.841378
	 D(6,5,4,10)      =         3.137164	     179.746241
	 D(7,1,2,8)       =         0.050626	       2.900682
	 D(7,1,6,12)      =         0.050415	       2.888567
	 D(8,2,3,9)       =        -0.034993	      -2.004944
	 D(9,3,4,10)      =        -0.014881	      -0.852640
	 D(10,4,5,11)     =        -0.014909	      -0.854236
	 D(11,5,6,12)     =        -0.035567	      -2.037830
	 D(13,7,14,15)    =         0.105073	       6.020221
	 D(13,7,14,16)    =        -2.973486	    -170.368176
	 D(14,7,13,17)    =         0.189282	      10.845037
	 D(14,7,13,18)    =        -2.985712	    -171.068677

	Current energy   :      -381.4704201070

	Energy change for the previous step:
		Projected    :        -0.0007185446
		Actual       :        -0.0004363375

	Performing BFGS update.
	Previous computed or guess Hessian on step 1.
	Steps to be used in Hessian update: 1
	Taking RFO optimization step.
	Going to follow RFO solution 1.
	Using RFO vector 1.
	Norm of target step-size    0.06002
	Projected energy change by RFO approximation:        -0.0000454753

	Back-transformation to cartesian coordinates...
	The INTCO_EXCEPTion handler:
	TORS::compute_val: unable to compute torsion value
	Dynamic level is 1.
	exc.g_really_quit() is 0.
	Raising dynamic level to 2. ~

    Structure for next step:
    Molecular point group: c1
    Full point group: C1

    Geometry (in Angstrom), charge = 1, multiplicity = 1:

    C            0.005788094184    -0.004076986966    -0.178724414807
    C            0.037249197559     1.215954828994     0.522472265515
    C            0.027827326222     1.211391564916     1.913758953661
    C           -0.002692558619    -0.001016489328     2.609579260785
    C           -0.028831246545    -1.214933870697     1.916069075490
    C           -0.029782555835    -1.222511221139     0.524882659106
    C            0.010502160451    -0.005725380441    -1.645883094268
    H            0.017722175220     2.160651525476    -0.013623107116
    H            0.033996286235     2.151770998974     2.455264570817
    H           -0.006227009947     0.000047462915     3.695227598328
    H           -0.038611460456    -2.154165564445     2.459491389571
    H           -0.006749447137    -2.168970490678    -0.008026666792
    N           -0.703622589717    -0.904731732735    -2.316964359857
    N            0.718011347147     0.905406071855    -2.307902747629
    H            0.676393946072     1.012240572973    -3.314857725032
    H            1.372647383013     1.493516427824    -1.809042111917
    H           -0.613501438786    -1.035195125220    -3.319282967800
    H           -1.348829609062    -1.514334592277    -1.829719578055

gradient() will perform analytic gradient computation.

*** tstart() called on computer04
*** at Tue Dec 12 14:35:38 2017


         ---------------------------------------------------------
                                   SCF
            by Justin Turney, Rob Parrish, and Andy Simmonett
                              RKS Reference
                        1 Threads,   3145 MiB Core
         ---------------------------------------------------------

  ==> Geometry <==

    Molecular point group: c1
    Full point group: C1

    Geometry (in Angstrom), charge = 1, multiplicity = 1:

       Center              X                  Y                   Z               Mass       
    ------------   -----------------  -----------------  -----------------  -----------------
           C          0.005788094184    -0.004076986966    -0.178724414807    12.000000000000
           C          0.037249197559     1.215954828994     0.522472265515    12.000000000000
           C          0.027827326222     1.211391564916     1.913758953661    12.000000000000
           C         -0.002692558619    -0.001016489328     2.609579260785    12.000000000000
           C         -0.028831246545    -1.214933870697     1.916069075490    12.000000000000
           C         -0.029782555835    -1.222511221139     0.524882659106    12.000000000000
           C          0.010502160451    -0.005725380441    -1.645883094268    12.000000000000
           H          0.017722175220     2.160651525476    -0.013623107116     1.007825032070
           H          0.033996286235     2.151770998974     2.455264570817     1.007825032070
           H         -0.006227009947     0.000047462915     3.695227598328     1.007825032070
           H         -0.038611460456    -2.154165564445     2.459491389571     1.007825032070
           H         -0.006749447137    -2.168970490678    -0.008026666792     1.007825032070
           N         -0.703622589717    -0.904731732735    -2.316964359857    14.003074004780
           N          0.718011347147     0.905406071855    -2.307902747629    14.003074004780
           H          0.676393946072     1.012240572973    -3.314857725032     1.007825032070
           H          1.372647383013     1.493516427824    -1.809042111917     1.007825032070
           H         -0.613501438786    -1.035195125220    -3.319282967800     1.007825032070
           H         -1.348829609062    -1.514334592277    -1.829719578055     1.007825032070

  Running in c1 symmetry.

  Rotational constants: A =      0.12200  B =      0.03953  C =      0.03126 [cm^-1]
  Rotational constants: A =   3657.49116  B =   1185.14276  C =    937.22021 [MHz]
  Nuclear repulsion =  416.850972342515604

  Charge       = 1
  Multiplicity = 1
  Electrons    = 64
  Nalpha       = 32
  Nbeta        = 32

  ==> Algorithm <==

  SCF Algorithm Type is DF.
  DIIS enabled.
  MOM disabled.
  Fractional occupation disabled.
  Guess Type is READ.
  Energy threshold   = 1.00e-08
  Density threshold  = 1.00e-08
  Integral threshold = 0.00e+00

  ==> Primary Basis <==

  Basis Set: 6-31G*
    Number of shells: 72
    Number of basis function: 153
    Number of Cartesian functions: 153
    Spherical Harmonics?: false
    Max angular momentum: 2

  ==> DFT Potential <==

   => B3LYP-D3 Composite Functional <= 

    B3LYP Hybrid-GGA Exchange-Correlation Functional (VWN1-RPA)

    P.J. Stephens et. al., J. Phys. Chem., 98, 11623-11627, 1994

    Points   =           5000
    Deriv    =              1
    GGA      =           TRUE
    Meta     =          FALSE

    X_LRC        =          FALSE
    X_Hybrid     =           TRUE
    X_Alpha      =   2.000000E-01
    X_Omega      =   0.000000E+00
    C_LRC        =          FALSE
    C_Hybrid     =          FALSE
    C_Alpha      =   0.000000E+00
    C_Omega      =   0.000000E+00

   => Exchange Functionals <=

    0.8000    B3_X
    0.2000      HF 

   => Correlation Functionals <=

    0.1900 VWN3RPA_C
    0.8100   LYP_C

   => -D3ZERO: Empirical Dispersion <=

    Grimme's -D3 (zero-damping) Dispersion Correction

    Grimme S.; Antony J.; Ehrlich S.; Krieg H. (2010), J. Chem. Phys., 132: 154104

    S6  =   1.000000E+00
    S8  =   1.703000E+00
    SR6 =   1.261000E+00
    A6  =   1.400000E+01

   => Molecular Quadrature <=

    Radial Scheme    =       TREUTLER
    Pruning Scheme   =           FLAT
    Nuclear Scheme   =       TREUTLER

    BS radius alpha  =              1
    Pruning alpha    =              1
    Radial Points    =             75
    Spherical Points =            302
    Total Points     =         396951
    Total Blocks     =            361
    Max Points       =           4989
    Max Functions    =            151

  ==> Pre-Iterations <==

   -------------------------------------------------------
    Irrep   Nso     Nmo     Nalpha   Nbeta   Ndocc  Nsocc
   -------------------------------------------------------
     A        153     153       0       0       0       0
   -------------------------------------------------------
    Total     153     153      32      32      32       0
   -------------------------------------------------------

  ==> Integral Setup <==

  ==> DFJK: Density-Fitted J/K Matrices <==

    J tasked:                  Yes
    K tasked:                  Yes
    wK tasked:                  No
    OpenMP threads:              1
    Integrals threads:           1
    Memory (MB):              2250
    Algorithm:                Core
    Integral Cache:           NONE
    Schwarz Cutoff:          1E-12
    Fitting Condition:       1E-12

   => Auxiliary Basis Set <=

  Basis Set: 
    Number of shells: 297
    Number of basis function: 954
    Number of Cartesian functions: 954
    Spherical Harmonics?: false
    Max angular momentum: 3

  Minimum eigenvalue in the overlap matrix is 4.8675838128E-04.
  Using Symmetric Orthogonalization.
  SCF Guess: Reading in previously saved MOs, projecting if necessary.

  Using orbitals from previous SCF, no projection.
  Recomputing DOCC and SOCC from number of alpha and beta electrons from previous calculation.
              A 
    DOCC [    32 ]

  ==> Iterations <==

                           Total Energy        Delta E     RMS |[F,P]|

   @DF-RKS iter   0:  -381.47042010702734   -3.81470e+02   3.36351e-09 
   @DF-RKS iter   1:  -381.47042010702620    1.13687e-12   6.45081e-09 

  ==> Post-Iterations <==

    Orbital Energies (a.u.)
    -----------------------

    Doubly Occupied:                                                      

       1A    -14.567929     2A    -14.567719     3A    -10.497058  
       4A    -10.373373     5A    -10.356404     6A    -10.356283  
       7A    -10.343167     8A    -10.340560     9A    -10.340504  
      10A     -1.183667    11A     -1.091313    12A     -1.014391  
      13A     -0.926590    14A     -0.902341    15A     -0.845351  
      16A     -0.785751    17A     -0.772996    18A     -0.741649  
      19A     -0.732876    20A     -0.688314    21A     -0.669225  
      22A     -0.625688    23A     -0.617425    24A     -0.586668  
      25A     -0.579271    26A     -0.572909    27A     -0.518548  
      28A     -0.505607    29A     -0.498204    30A     -0.472353  
      31A     -0.411913    32A     -0.405834  

    Virtual:                                                              

      33A     -0.217030    34A     -0.157596    35A     -0.128212  
      36A     -0.107785    37A     -0.067915    38A     -0.061440  
      39A     -0.038606    40A     -0.034518    41A      0.006930  
      42A      0.020178    43A      0.021043    44A      0.056327  
      45A      0.062026    46A      0.083821    47A      0.127028  
      48A      0.147459    49A      0.157573    50A      0.157720  
      51A      0.202136    52A      0.242690    53A      0.298036  
      54A      0.349863    55A      0.354972    56A      0.380996  
      57A      0.387492    58A      0.397513    59A      0.421792  
      60A      0.422189    61A      0.442381    62A      0.447636  
      63A      0.453427    64A      0.471342    65A      0.472126  
      66A      0.475150    67A      0.485492    68A      0.512336  
      69A      0.528305    70A      0.531694    71A      0.539492  
      72A      0.589933    73A      0.606137    74A      0.656481  
      75A      0.658525    76A      0.682223    77A      0.687943  
      78A      0.703966    79A      0.716371    80A      0.719490  
      81A      0.740423    82A      0.773329    83A      0.774923  
      84A      0.798433    85A      0.811334    86A      0.827374  
      87A      0.850084    88A      0.942500    89A      0.962488  
      90A      0.996724    91A      1.001137    92A      1.027717  
      93A      1.066946    94A      1.076182    95A      1.141802  
      96A      1.164184    97A      1.222258    98A      1.270575  
      99A      1.282780   100A      1.305396   101A      1.321269  
     102A      1.343432   103A      1.362308   104A      1.373927  
     105A      1.444410   106A      1.456918   107A      1.475574  
     108A      1.607334   109A      1.620861   110A      1.655221  
     111A      1.661837   112A      1.736481   113A      1.753195  
     114A      1.795906   115A      1.825515   116A      1.851906  
     117A      1.905379   118A      1.908973   119A      1.957961  
     120A      1.973388   121A      1.997263   122A      2.017241  
     123A      2.040479   124A      2.070050   125A      2.122797  
     126A      2.130187   127A      2.151458   128A      2.216116  
     129A      2.223336   130A      2.267591   131A      2.351540  
     132A      2.365871   133A      2.443482   134A      2.452801  
     135A      2.489488   136A      2.516276   137A      2.550308  
     138A      2.587839   139A      2.604337   140A      2.630181  
     141A      2.737865   142A      2.884881   143A      2.982928  
     144A      3.259124   145A      3.638808   146A      3.656987  
     147A      3.912074   148A      3.947998   149A      3.963513  
     150A      4.054327   151A      4.173790   152A      4.257686  
     153A      4.546202  

    Final Occupation by Irrep:
              A 
    DOCC [    32 ]

  Energy converged.

  @DF-RKS Final Energy:  -381.47042010702620

   => Energetics <=

    Nuclear Repulsion Energy =            416.8509723425156039
    One-Electron Energy =               -1328.9117425947829361
    Two-Electron Energy =                 575.0073326756134975
    DFT Exchange-Correlation Energy =     -44.4050536503722810
    Empirical Dispersion Energy =          -0.0119288800000000
    PCM Polarization Energy =               0.0000000000000000
    EFP Energy =                            0.0000000000000000
    Total Energy =                       -381.4704201070260865


  Saving occupied orbitals to File 180.

*** tstop() called on computer04 at Tue Dec 12 14:35:50 2017
Module time:
	user time   =      11.40 seconds =       0.19 minutes
	system time =       0.08 seconds =       0.00 minutes
	total time  =         12 seconds =       0.20 minutes
Total time:
	user time   =     148.68 seconds =       2.48 minutes
	system time =       1.06 seconds =       0.02 minutes
	total time  =        151 seconds =       2.52 minutes


Properties will be evaluated at   0.000000,   0.000000,   0.000000 Bohr

Properties computed using the SCF density matrix

  Nuclear Dipole Moment: (a.u.)
     X:     0.5819      Y:    -0.3311      Z:    -0.1620

  Electronic Dipole Moment: (a.u.)
     X:    -0.5334      Y:     0.2962      Z:    -2.0862

  Dipole Moment: (a.u.)
     X:     0.0485      Y:    -0.0349      Z:    -2.2482     Total:     2.2490

  Dipole Moment: (Debye)
     X:     0.1232      Y:    -0.0887      Z:    -5.7144     Total:     5.7164


*** tstart() called on computer04
*** at Tue Dec 12 14:35:50 2017


[...]
	 H           1.2875366946        1.9056637436       -6.2646633948
	 H           2.6105841125        2.8133387689       -3.4213880863
	 H          -1.1611755568       -1.9769039394       -6.2631726985
	 H          -2.5630321519       -2.8328815701       -3.4412611582
	             0.0005077340       -0.0003948312        0.0000354273
	             0.0000028469       -0.0000082649       -0.0000131803
	            -0.0000081530       -0.0000118907        0.0000172783
	             0.0000115666        0.0000106859        0.0000035489
	             0.0000050058       -0.0000013225        0.0000067482
	             0.0000053334        0.0000172396       -0.0000195116
	            -0.0005206711        0.0003003038        0.0000020615
	            -0.0000073955        0.0000010594        0.0000050408
	            -0.0000027145        0.0000016948       -0.0000006091
	            -0.0000045203        0.0000022744       -0.0000017025
	            -0.0000036506        0.0000009580       -0.0000029033
	            -0.0000067510       -0.0000061017       -0.0000001089
	            -0.0006575980        0.0007674766       -0.0002566124
	             0.0000114517       -0.0000395967        0.0000160939
	             0.0000005745       -0.0000060091       -0.0000055496
	            -0.0000235056        0.0000072172       -0.0000000337
	             0.0006613893       -0.0006536292        0.0001692264
	             0.0000280938        0.0000143992        0.0000232665

	---Fragment 1 Intrafragment Coordinates---
	 - Coordinate -           - BOHR/RAD -       - ANG/DEG -
	 R(1,2)           =         2.659948	       1.407584
	 R(1,6)           =         2.659822	       1.407517
	 R(1,7)           =         2.771576	       1.466655
	 R(2,3)           =         2.629053	       1.391235
	 R(2,8)           =         2.052999	       1.086400
	 R(3,4)           =         2.642493	       1.398347
	 R(3,9)           =         2.050634	       1.085149
	 R(4,5)           =         2.642403	       1.398299
	 R(4,10)          =         2.051596	       1.085658
	 R(5,6)           =         2.629181	       1.391303
	 R(5,11)          =         2.050626	       1.085145
	 R(6,12)          =         2.052960	       1.086380
	 R(7,13)          =         2.513449	       1.330060
	 R(7,14)          =         2.513532	       1.330104
	 R(13,17)         =         1.914805	       1.013271
	 R(13,18)         =         1.911519	       1.011532
	 R(14,15)         =         1.914923	       1.013334
	 R(14,16)         =         1.911585	       1.011567
	 B(1,2,3)         =         2.088504	     119.662454
	 B(1,2,8)         =         2.103071	     120.497085
	 B(1,6,5)         =         2.088364	     119.654464
	 B(1,6,12)        =         2.103532	     120.523531
	 B(1,7,13)        =         2.094535	     120.008008
	 B(1,7,14)        =         2.093355	     119.940415
	 B(2,1,6)         =         2.097175	     120.159301
	 B(2,1,7)         =         2.093346	     119.939890
	 B(2,3,4)         =         2.095118	     120.041406
	 B(2,3,9)         =         2.089911	     119.743069
	 B(3,2,8)         =         2.090363	     119.769004
	 B(3,4,5)         =         2.101923	     120.431308
	 B(3,4,10)        =         2.090633	     119.784426
	 B(4,3,9)         =         2.098102	     120.212392
	 B(4,5,6)         =         2.095247	     120.048788
	 B(4,5,11)        =         2.098112	     120.212983
	 B(5,4,10)        =         2.090630	     119.784264
	 B(5,6,12)        =         2.090031	     119.749951
	 B(6,1,7)         =         2.092663	     119.900773
	 B(6,5,11)        =         2.089777	     119.735374
	 B(7,13,17)       =         2.145537	     122.930231
	 B(7,13,18)       =         2.092950	     119.917207
	 B(7,14,15)       =         2.144141	     122.850205
	 B(7,14,16)       =         2.092957	     119.917620
	 B(13,7,14)       =         2.095290	     120.051291
	 B(15,14,16)      =         2.044145	     117.120896
	 B(17,13,18)      =         2.044693	     117.152295
	 D(1,2,3,4)       =         0.007409	       0.424516
	 D(1,2,3,9)       =        -3.122969	    -178.932969
	 D(1,6,5,4)       =         0.008124	       0.465482
	 D(1,6,5,11)      =        -3.122766	    -178.921326
	*D(1,7,13,17)     =        -2.967059	    -169.999982
	 D(1,7,13,18)     =         0.177913	      10.193656
	 D(1,7,14,15)     =        -3.026679	    -173.415913
	 D(1,7,14,16)     =         0.183817	      10.531910
	 D(2,1,6,5)       =        -0.004696	      -0.269045
	 D(2,1,6,12)      =        -3.092282	    -177.174724
	 D(2,1,7,13)      =        -2.505366	    -143.546882
	 D(2,1,7,14)      =         0.639620	      36.647539
	 D(2,3,4,5)       =        -0.004015	      -0.230037
	 D(2,3,4,10)      =         3.137883	     179.787439
	 D(3,2,1,6)       =        -0.003085	      -0.176779
	 D(3,2,1,7)       =         3.139705	     179.891846
	 D(3,4,5,6)       =        -0.003837	      -0.219861
	 D(3,4,5,11)      =         3.127002	     179.163992
	 D(4,3,2,8)       =         3.095626	     177.366314
	 D(4,5,6,12)      =         3.096133	     177.395343
	 D(5,4,3,9)       =         3.126311	     179.124405
	 D(5,6,1,7)       =         3.135700	     179.662357
	 D(6,1,2,8)       =        -3.090907	    -177.095915
	 D(6,1,7,13)      =         0.637422	      36.521564
	 D(6,1,7,14)      =        -2.500778	    -143.284014
	 D(6,5,4,10)      =         3.137450	     179.762664
	 D(7,1,2,8)       =         0.051884	       2.972711
	 D(7,1,6,12)      =         0.048113	       2.756678
	 D(8,2,3,9)       =        -0.034752	      -1.991171
	 D(9,3,4,10)      =        -0.014977	      -0.858119
	 D(10,4,5,11)     =        -0.014896	      -0.853484
	 D(11,5,6,12)     =        -0.034758	      -1.991464
	 D(13,7,14,15)    =         0.118309	       6.778594
	 D(13,7,14,16)    =        -2.954381	    -169.273583
	 D(14,7,13,17)    =         0.171136	       9.805379
	 D(14,7,13,18)    =        -2.967077	    -170.000983

	Current energy   :      -381.4704593561

	Energy change for the previous step:
		Projected    :        -0.0000001514
		Actual       :        -0.0000007422

	Performing BFGS update.
	Previous computed or guess Hessian on step 1.
	Steps to be used in Hessian update: 3 2
	Taking RFO optimization step.
	Going to follow RFO solution 1.
	Using RFO vector 1.
	Norm of target step-size    0.00375
	Projected energy change by RFO approximation:        -0.0000003575

	Back-transformation to cartesian coordinates...
	Successfully converged to displaced geometry.

	Back-transformation to cartesian coordinates to adjust frozen coordinates...
	Successfully converged to displaced geometry.

	--- Internal Coordinate Step in ANG or DEG, aJ/ANG or AJ/DEG ---
	 ---------------------------------------------------------------------------
	   Coordinate                Previous        Force       Change         New 
	   ----------                --------       ------       ------       ------
	    1 R(1,2)          =      1.407584    -0.000015     0.000009     1.407593
	    2 R(1,6)          =      1.407517     0.000083     0.000014     1.407531
	    3 R(1,7)          =      1.466655    -0.000343    -0.000051     1.466604
	    4 R(2,3)          =      1.391235    -0.000130    -0.000021     1.391214
	    5 R(2,8)          =      1.086400     0.000017     0.000002     1.086402
	    6 R(3,4)          =      1.398347     0.000114     0.000018     1.398365
	    7 R(3,9)          =      1.085149    -0.000014    -0.000002     1.085147
	    8 R(4,5)          =      1.398299    -0.000023    -0.000005     1.398295
	    9 R(4,10)         =      1.085658     0.000004     0.000001     1.085659
	   10 R(5,6)          =      1.391303    -0.000113    -0.000016     1.391286
	   11 R(5,11)         =      1.085145     0.000013     0.000003     1.085148
	   12 R(6,12)         =      1.086380    -0.000038    -0.000013     1.086367
	   13 R(7,13)         =      1.330060     0.000609     0.000080     1.330140
	   14 R(7,14)         =      1.330104     0.000326     0.000015     1.330119
	   15 R(13,17)        =      1.013271     0.000209     0.000064     1.013335
	   16 R(13,18)        =      1.011532     0.000121     0.000041     1.011573
	   17 R(14,15)        =      1.013334    -0.000030     0.000001     1.013335
	   18 R(14,16)        =      1.011567     0.000088     0.000012     1.011579
	   19 B(1,2,3)        =    119.662454    -0.000000    -0.000718   119.661736
	   20 B(1,2,8)        =    120.497085    -0.000000    -0.002800   120.494285
	   21 B(1,6,5)        =    119.654464    -0.000000    -0.001852   119.652612
	   22 B(1,6,12)       =    120.523531    -0.000000    -0.003505   120.520026
	   23 B(1,7,13)       =    120.008008     0.000001     0.004016   120.012024
	   24 B(1,7,14)       =    119.940415    -0.000001    -0.000054   119.940361
	   25 B(2,1,6)        =    120.159301     0.000001     0.002272   120.161573
	   26 B(2,1,7)        =    119.939890    -0.000001    -0.003072   119.936819
	   27 B(2,3,4)        =    120.041406    -0.000000    -0.001656   120.039751
	   28 B(2,3,9)        =    119.743069     0.000000     0.001743   119.744811
	   29 B(3,2,8)        =    119.769004     0.000001     0.004297   119.773302
	   30 B(3,4,5)        =    120.431308     0.000001     0.002379   120.433687
	   31 B(3,4,10)       =    119.784426    -0.000000    -0.000420   119.784006
	   32 B(4,3,9)        =    120.212392     0.000000    -0.000072   120.212320
	   33 B(4,5,6)        =    120.048788    -0.000000    -0.000344   120.048444
	   34 B(4,5,11)       =    120.212983     0.000000    -0.000263   120.212720
	   35 B(5,4,10)       =    119.784264    -0.000000    -0.001957   119.782307
	   36 B(5,6,12)       =    119.749951     0.000000     0.005139   119.755090
	   37 B(6,1,7)        =    119.900773     0.000000     0.000782   119.901555
	   38 B(6,5,11)       =    119.735374     0.000000     0.000491   119.735865
	   39 B(7,13,17)      =    122.930231    -0.000004    -0.025735   122.904496
	   40 B(7,13,18)      =    119.917207     0.000005     0.023381   119.940587
	   41 B(7,14,15)      =    122.850205     0.000000    -0.001007   122.849199
	   42 B(7,14,16)      =    119.917620     0.000000    -0.001865   119.915755
	   43 B(13,7,14)      =    120.051291     0.000000    -0.003990   120.047301
	   44 B(15,14,16)     =    117.120896    -0.000000    -0.000209   117.120687
	   45 B(17,13,18)     =    117.152295    -0.000000     0.002079   117.154374
	   46 D(1,2,3,4)      =      0.424516    -0.000000    -0.008185     0.416331
	   47 D(1,2,3,9)      =   -178.932969    -0.000000    -0.009754  -178.942723
	   48 D(1,6,5,4)      =      0.465482    -0.000000    -0.006817     0.458665
	   49 D(1,6,5,11)     =   -178.921326     0.000000     0.005540  -178.915786
	   50 *D(1,7,13,17)   =   -169.999982     0.000000    -0.000000  -169.999982
	   51 D(1,7,13,18)    =     10.193656     0.000000     0.082084    10.275740
	   52 D(1,7,14,15)    =   -173.415913     0.000000     0.016872  -173.399040
	   53 D(1,7,14,16)    =     10.531910     0.000000     0.071100    10.603010
	   54 D(2,1,6,5)      =     -0.269045     0.000000     0.009641    -0.259404
	   55 D(2,1,6,12)     =   -177.174724     0.000000     0.014159  -177.160565
	   56 D(2,1,7,13)     =   -143.546882    -0.000000    -0.078756  -143.625639
	   57 D(2,1,7,14)     =     36.647539    -0.000000    -0.069324    36.578215
	   58 D(2,3,4,5)      =     -0.230037     0.000000     0.011076    -0.218960
	   59 D(2,3,4,10)     =    179.787439    -0.000000    -0.006291   179.781148
	   60 D(3,2,1,6)      =     -0.176779    -0.000000    -0.002137    -0.178917
	   61 D(3,2,1,7)      =    179.891846     0.000000     0.013739   179.905585
	   62 D(3,4,5,6)      =     -0.219861    -0.000000    -0.003507    -0.223368
	   63 D(3,4,5,11)     =    179.163992    -0.000000    -0.015918   179.148074
	   64 D(4,3,2,8)      =    177.366314     0.000000     0.008424   177.374739
	   65 D(4,5,6,12)     =    177.395343    -0.000000    -0.011567   177.383776
	   66 D(5,4,3,9)      =    179.124405     0.000000     0.012665   179.137070
	   67 D(5,6,1,7)      =    179.662357    -0.000000    -0.006232   179.656124
	   68 D(6,1,2,8)      =   -177.095915    -0.000000    -0.019090  -177.115004
	   69 D(6,1,7,13)     =     36.521564    -0.000000    -0.062922    36.458642
	   70 D(6,1,7,14)     =   -143.284014    -0.000000    -0.053491  -143.337505
	   71 D(6,5,4,10)     =    179.762664     0.000000     0.013860   179.776524
	   72 D(7,1,2,8)      =      2.972711    -0.000000    -0.003213     2.969498
	   73 D(7,1,6,12)     =      2.756678     0.000000    -0.001715     2.754963
	   74 D(8,2,3,9)      =     -1.991171     0.000000     0.006855    -1.984316
	   75 D(9,3,4,10)     =     -0.858119    -0.000000    -0.004702    -0.862821
	   76 D(10,4,5,11)    =     -0.853484     0.000000     0.001449    -0.852035
	   77 D(11,5,6,12)    =     -1.991464    -0.000000     0.000789    -1.990676
	   78 D(13,7,14,15)   =      6.778594     0.000000     0.026292     6.804885
	   79 D(13,7,14,16)   =   -169.273583     0.000000     0.080520  -169.193064
	   80 D(14,7,13,17)   =      9.805379    -0.000000    -0.009434     9.795945
	   81 D(14,7,13,18)   =   -170.000983     0.000000     0.072650  -169.928333
	 ---------------------------------------------------------------------------
	Successfully symmetrized geometry.

  ==> Convergence Check <==

  Measures of convergence in internal coordinates in au.
  Criteria marked as inactive (o), active & met (*), and active & unmet ( ).
  ---------------------------------------------------------------------------------------------
   Step     Total Energy     Delta E     MAX Force     RMS Force      MAX Disp      RMS Disp   
  ---------------------------------------------------------------------------------------------
    Convergence Criteria    1.00e-06 *    3.00e-04 *             o    1.20e-03 *             o
  ---------------------------------------------------------------------------------------------
      4    -381.47045936   -7.42e-07 *    7.39e-05 *    1.58e-05 o    1.43e-03      4.17e-04 o  ~
  ---------------------------------------------------------------------------------------------


  **** Optimization is complete! (in 4 steps) ****

  ==> Optimization Summary <==

  Measures of convergence in internal coordinates in au.
  --------------------------------------------------------------------------------------------------------------- ~
   Step         Total Energy             Delta E       MAX Force       RMS Force        MAX Disp        RMS Disp  ~
  --------------------------------------------------------------------------------------------------------------- ~
      1    -381.470420107026   -381.470420107026      0.00123664      0.00032393      0.02641662      0.00611082  ~
      2    -381.470446561143     -0.000026454117      0.00052910      0.00013837      0.01937767      0.00310599  ~
      3    -381.470458613935     -0.000012052792      0.00024861      0.00005391      0.00297478      0.00069868  ~
      4    -381.470459356102     -0.000000742167      0.00007395      0.00001578      0.00143264      0.00041680  ~
  --------------------------------------------------------------------------------------------------------------- ~

	Writing optimization data to binary file.
	Final energy is   -381.4704593561023
	Final (previous) structure:
	Cartesian Geometry (in Angstrom)
	    C     0.0028466603  -0.0012901996  -0.1796632747
	    C     0.0321957952   1.2180036243   0.5230130251
	    C     0.0252734605   1.2112545587   1.9142142860
	    C    -0.0017197864  -0.0023968868   2.6082577059
	    C    -0.0267607338  -1.2154002186   1.9131052576
	    C    -0.0295643703  -1.2211179042   0.5218171147
	    C     0.0075554387  -0.0012111758  -1.6463105548
	    H     0.0098517961   2.1633100372  -0.0119277200
	    H     0.0303292631   2.1507899175   2.4571651119
	    H    -0.0035321680  -0.0028663416   3.6939141003
	    H    -0.0339886861  -2.1554024223   2.4552147399
	    H    -0.0061912134  -2.1662024300  -0.0134304424
	    N    -0.6984228924  -0.9095528438  -2.3138204835
	    N     0.7213865888   0.9054405780  -2.3078269618
	    H     0.6813350740   1.0084338203  -3.3151170880
	    H     1.3814616134   1.4887547566  -1.8105205970
	    H    -0.6144676398  -1.0461325083  -3.3143282455
	    H    -1.3562981997  -1.4990963615  -1.8210369737
	Saving final (previous) structure.
			--------------------------
			 OPTKING Finished Execution 
			--------------------------

    Final optimized geometry and variables:
    Molecular point group: c1
    Full point group: C1

    Geometry (in Angstrom), charge = 1, multiplicity = 1:

    C            0.002846660272    -0.001290199583    -0.179663274748
    C            0.032195795152     1.218003624254     0.523013025076
    C            0.025273460499     1.211254558689     1.914214285990
    C           -0.001719786448    -0.002396886800     2.608257705928
    C           -0.026760733769    -1.215400218554     1.913105257592
    C           -0.029564370345    -1.221117904178     0.521817114658
    C            0.007555438675    -0.001211175761    -1.646310554763
    H            0.009851796073     2.163310037182    -0.011927719972
    H            0.030329263109     2.150789917466     2.457165111948
    H           -0.003532168039    -0.002866341637     3.693914100310
    H           -0.033988686140    -2.155402422268     2.455214739916
    H           -0.006191213414    -2.166202430003    -0.013430442387
    N           -0.698422892383    -0.909552843835    -2.313820483478
    N            0.721386588849     0.905440577963    -2.307826961812
    H            0.681335073985     1.008433820340    -3.315117088033
    H            1.381461613423     1.488754756554    -1.810520597000
    H           -0.614467639805    -1.046132508323    -3.314328245517
    H           -1.356298199694    -1.499096361506    -1.821036973708

	Cleaning optimization helper files.


Properties will be evaluated at   0.000000,   0.000000,   0.000000 Bohr

Properties computed using the  density matrix

  Nuclear Dipole Moment: (a.u.)
     X:     0.5824      Y:    -0.3026      Z:    -0.1984

  Electronic Dipole Moment: (a.u.)
     X:    -0.5382      Y:     0.2748      Z:    -2.0500

  Dipole Moment: (a.u.)
     X:     0.0443      Y:    -0.0278      Z:    -2.2484     Total:     2.2491

  Dipole Moment: (Debye)
     X:     0.1125      Y:    -0.0706      Z:    -5.7150     Total:     5.7165

  Quadrupole Moment: (Debye Ang)
    XX:   -49.6005     YY:   -37.7445     ZZ:   -13.3151
    XY:     6.3675     XZ:    -0.3837     YZ:     0.2487

  Traceless Quadrupole Moment: (Debye Ang)
    XX:   -16.0471     YY:    -4.1912     ZZ:    20.2383
    XY:     6.3675     XZ:    -0.3837     YZ:     0.2487

  Mulliken Charges: (a.u.)
   Center  Symbol    Alpha    Beta     Spin     Total
       1     C     2.95696  2.95696  0.00000  0.08609
       2     C     3.08197  3.08197  0.00000 -0.16393
       3     C     3.06248  3.06248  0.00000 -0.12495
       4     C     3.05142  3.05142  0.00000 -0.10285
       5     C     3.06249  3.06249  0.00000 -0.12498
       6     C     3.08186  3.08186  0.00000 -0.16372
       7     C     2.72221  2.72221  0.00000  0.55558
       8     H     0.41408  0.41408  0.00000  0.17184
       9     H     0.40539  0.40539  0.00000  0.18921
      10     H     0.40383  0.40383  0.00000  0.19234
      11     H     0.40542  0.40542  0.00000  0.18915
      12     H     0.41453  0.41453  0.00000  0.17094
      13     N     3.86358  3.86358  0.00000 -0.72715
      14     N     3.86311  3.86311  0.00000 -0.72623
      15     H     0.30562  0.30562  0.00000  0.38876
      16     H     0.29973  0.29973  0.00000  0.40054
      17     H     0.30560  0.30560  0.00000  0.38880
      18     H     0.29971  0.29971  0.00000  0.40057

   Total alpha = 32.00000, Total beta = 32.00000, Total charge =  1.00000


*** Psi4 exiting successfully. Buy a developer a beer!
