    -----------------------------------------------------------------------
          Psi4: An Open-Source Ab Initio Electronic Structure Package
                              Psi4 (no tag) Driver

                          Git: Rev {detached?}  

    J. M. Turney, A. C. Simmonett, R. M. Parrish, E. G. Hohenstein,
    F. A. Evangelista, J. T. Fermann, B. J. Mintz, L. A. Burns, J. J. Wilke,
    M. L. Abrams, N. J. Russ, M. L. Leininger, C. L. Janssen, E. T. Seidl,
    W. D. Allen, H. F. Schaefer, R. A. King, E. F. Valeev, C. D. Sherrill,
    and T. D. Crawford, WIREs Comput. Mol. Sci. 2, 556-565 (2012)
    (doi: 10.1002/wcms.93)

                         Additional Contributions by
    A. E. DePrince, M. Saitow, U. Bozkaya, A. Yu. Sokolov
    -----------------------------------------------------------------------


    Psi4 started on: Tue Jul  5 16:29:28 2016

    Process ID:  27405
    PSI4DATADIR: /export131/home/mjharvey/miniconda3/share
    Memory level set to 256.000 MB

  ==> Input File <==

--------------------------------------------------------------------------
set {
	reference rhf
	basis 6-31G*
}


set_num_threads( 1 )
memory 2 gb

molecule MOL {
0 1

H	 -3.042581	 -0.665861	 0.004336
O	 -2.245037	 -1.176175	 0.000806
C	 -1.162163	 -0.365336	 0.001020
C	 0.089460	 -0.797041	 -0.399481
C	 -1.349878	 0.943368	 0.428674
H	 0.237040	 -1.811859	 -0.728626
C	 1.152172	 0.094899	 -0.367880
H	 -2.335139	 1.244290	 0.734980
C	 -0.289773	 1.832409	 0.458578
H	 2.127350	 -0.238114	 -0.676376
C	 0.972528	 1.396125	 0.055808
C	 -0.497516	 3.262295	 0.900583
H	 1.806808	 2.074990	 0.077010
H	 0.303245	 3.589564	 1.555156
H	 -1.434976	 3.380295	 1.430776
H	 -0.513984	 3.931308	 0.044722

	symmetry c1
}
ee = energy('scf')
oeprop('DIPOLE', 'QUADRUPOLE', 'MULLIKEN_CHARGES')
f=open( 'psi4out.xyz', 'w' )
f.write( "16  " )
f.write( str(ee) + "\n" )
f.write( MOL.save_string_xyz() )
f.close()
--------------------------------------------------------------------------

  Memory set to   2.000 GiB by Python script.

*** tstart() called on cx1-3-1-3.cx1.hpc.ic.ac.uk
*** at Tue Jul  5 16:29:29 2016


         ---------------------------------------------------------
                                   SCF
            by Justin Turney, Rob Parrish, and Andy Simmonett
                              RHF Reference
                        1 Threads,   2000 MiB Core
         ---------------------------------------------------------

  ==> Geometry <==

    Molecular point group: c1
    Full point group: C1

    Geometry (in Angstrom), charge = 0, multiplicity = 1:

       Center              X                  Y                   Z               Mass       
    ------------   -----------------  -----------------  -----------------  -----------------
           H         -2.563153252303    -1.306098250897    -0.138195525688     1.007825032070
           O         -1.765609252303    -1.816412250897    -0.141725525688    15.994914619560
           C         -0.682735252303    -1.005573250897    -0.141511525688    12.000000000000
           C          0.568887747697    -1.437278250897    -0.542012525688    12.000000000000
           C         -0.870450252303     0.303130749103     0.286142474312    12.000000000000
           H          0.716467747697    -2.452096250897    -0.871157525688     1.007825032070
           C          1.631599747697    -0.545338250897    -0.510411525688    12.000000000000
           H         -1.855711252303     0.604052749103     0.592448474312     1.007825032070
           C          0.189654747697     1.192171749103     0.316046474312    12.000000000000
           H          2.606777747697    -0.878351250897    -0.818907525688     1.007825032070
           C          1.451955747697     0.755887749103    -0.086723525688    12.000000000000
           C         -0.018088252303     2.622057749103     0.758051474312    12.000000000000
           H          2.286235747697     1.434752749103    -0.065521525688     1.007825032070
           H          0.782672747697     2.949326749103     1.412624474312     1.007825032070
           H         -0.955548252303     2.740057749103     1.288244474312     1.007825032070
           H         -0.034556252303     3.291070749103    -0.097809525688     1.007825032070

  Running in c1 symmetry.

  Rotational constants: A =      0.12096  B =      0.06162  C =      0.04115 [cm^-1]
  Rotational constants: A =   3626.33944  B =   1847.37579  C =   1233.64666 [MHz]
  Nuclear repulsion =  345.779136110522813

  Charge       = 0
  Multiplicity = 1
  Electrons    = 58
  Nalpha       = 29
  Nbeta        = 29

  ==> Algorithm <==

  SCF Algorithm Type is DF.
  DIIS enabled.
  MOM disabled.
  Fractional occupation disabled.
  Guess Type is CORE.
  Energy threshold   = 1.00e-06
  Density threshold  = 1.00e-06
  Integral threshold = 0.00e+00

  ==> Primary Basis <==

  Basis Set: 6-31G*
    Number of shells: 64
    Number of basis function: 136
    Number of Cartesian functions: 136
    Spherical Harmonics?: false
    Max angular momentum: 2

  ==> Pre-Iterations <==

   -------------------------------------------------------
    Irrep   Nso     Nmo     Nalpha   Nbeta   Ndocc  Nsocc
   -------------------------------------------------------
     A        136     136       0       0       0       0
   -------------------------------------------------------
    Total     136     136      29      29      29       0
   -------------------------------------------------------

 OEINTS: Overlap, kinetic, potential, dipole, and quadrupole integrals
         stored in file 35.

  ==> Integral Setup <==

  ==> DFJK: Density-Fitted J/K Matrices <==

    J tasked:                  Yes
    K tasked:                  Yes
    wK tasked:                  No
    OpenMP threads:              1
    Integrals threads:           1
    Memory (MB):              1430
    Algorithm:                Core
    Integral Cache:           NONE
    Schwarz Cutoff:          1E-12
    Fitting Condition:       1E-12

   => Auxiliary Basis Set <=

  Basis Set: 
    Number of shells: 264
    Number of basis function: 848
    Number of Cartesian functions: 848
    Spherical Harmonics?: false
    Max angular momentum: 3

  Minimum eigenvalue in the overlap matrix is 4.1575191921E-04.
  Using Symmetric Orthogonalization.
  SCF Guess: Core (One-Electron) Hamiltonian.

  ==> Iterations <==

                           Total Energy        Delta E     RMS |[F,P]|

   @DF-RHF iter   1:  -269.29924996976706   -2.69299e+02   6.61078e-02 
   @DF-RHF iter   2:  -220.36385040971004    4.89354e+01   5.57073e-02 DIIS
   @DF-RHF iter   3:  -272.16652462371758   -5.18027e+01   6.13552e-02 DIIS
   @DF-RHF iter   4:  -328.19008703151201   -5.60236e+01   2.94380e-02 DIIS
   @DF-RHF iter   5:  -335.82380546858576   -7.63372e+00   2.46730e-02 DIIS
   @DF-RHF iter   6:  -344.06570876111653   -8.24190e+00   6.89187e-03 DIIS
   @DF-RHF iter   7:  -344.53577234451473   -4.70064e-01   2.33215e-03 DIIS
   @DF-RHF iter   8:  -344.58706515524045   -5.12928e-02   5.62144e-04 DIIS
   @DF-RHF iter   9:  -344.59196046600550   -4.89531e-03   1.59799e-04 DIIS
   @DF-RHF iter  10:  -344.59233360119777   -3.73135e-04   8.09098e-05 DIIS
   @DF-RHF iter  11:  -344.59248331786284   -1.49717e-04   2.88092e-05 DIIS
   @DF-RHF iter  12:  -344.59251409480919   -3.07769e-05   1.17283e-05 DIIS
   @DF-RHF iter  13:  -344.59252212557635   -8.03077e-06   5.50471e-06 DIIS
   @DF-RHF iter  14:  -344.59252332877918   -1.20320e-06   1.72186e-06 DIIS
   @DF-RHF iter  15:  -344.59252341139620   -8.26170e-08   4.65100e-07 DIIS

  ==> Post-Iterations <==

    Orbital Energies (a.u.)
    -----------------------

    Doubly Occupied:                                                      

       1A    -20.586052     2A    -11.295833     3A    -11.243863  
       4A    -11.234186     5A    -11.223251     6A    -11.221042  
       7A    -11.219661     8A    -11.216888     9A     -1.406393  
      10A     -1.150221    11A     -1.044534    12A     -1.003691  
      13A     -0.938444    14A     -0.839052    15A     -0.801162  
      16A     -0.727586    17A     -0.682095    18A     -0.650356  
      19A     -0.602868    20A     -0.592968    21A     -0.576319  
      22A     -0.567360    23A     -0.564685    24A     -0.536039  
      25A     -0.503241    26A     -0.480638    27A     -0.467027  
      28A     -0.330957    29A     -0.306249  

    Virtual:                                                              

      30A      0.146644    31A      0.161584    32A      0.224869  
      33A      0.243367    34A      0.267159    35A      0.292185  
      36A      0.315302    37A      0.327056    38A      0.341446  
      39A      0.346954    40A      0.395920    41A      0.413993  
      42A      0.466024    43A      0.479562    44A      0.510551  
      45A      0.535383    46A      0.593986    47A      0.633530  
      48A      0.721556    49A      0.736341    50A      0.751672  
      51A      0.770868    52A      0.774274    53A      0.812597  
      54A      0.835326    55A      0.839047    56A      0.844463  
      57A      0.874320    58A      0.884746    59A      0.889997  
      60A      0.913416    61A      0.949438    62A      0.970404  
      63A      1.009051    64A      1.021790    65A      1.033223  
      66A      1.111741    67A      1.120284    68A      1.127168  
      69A      1.157383    70A      1.169505    71A      1.185551  
      72A      1.196091    73A      1.202001    74A      1.228149  
      75A      1.244373    76A      1.250649    77A      1.286808  
      78A      1.330151    79A      1.375644    80A      1.409469  
      81A      1.440886    82A      1.460039    83A      1.502398  
      84A      1.537580    85A      1.615545    86A      1.629619  
      87A      1.653130    88A      1.689556    89A      1.734759  
      90A      1.750495    91A      1.773397    92A      1.779521  
      93A      1.963484    94A      2.066592    95A      2.091568  
      96A      2.098786    97A      2.144151    98A      2.183967  
      99A      2.197115   100A      2.209734   101A      2.238184  
     102A      2.273134   103A      2.294690   104A      2.323837  
     105A      2.409788   106A      2.449449   107A      2.488992  
     108A      2.504287   109A      2.524123   110A      2.559588  
     111A      2.621392   112A      2.650728   113A      2.696923  
     114A      2.705432   115A      2.726196   116A      2.796261  
     117A      2.867955   118A      2.919146   119A      2.957467  
     120A      3.040289   121A      3.047187   122A      3.125357  
     123A      3.138473   124A      3.206694   125A      3.277208  
     126A      3.329424   127A      3.528096   128A      3.841210  
     129A      4.363609   130A      4.536061   131A      4.551023  
     132A      4.623882   133A      4.672636   134A      4.794449  
     135A      4.878263   136A      5.192933  

    Final Occupation by Irrep:
              A 
    DOCC [    29 ]

  Energy converged.

  @DF-RHF Final Energy:  -344.59252341139620

   => Energetics <=

    Nuclear Repulsion Energy =            345.7791361105228134
    One-Electron Energy =               -1152.7180634485782775
    Two-Electron Energy =                 462.3464039266593204
    DFT Exchange-Correlation Energy =       0.0000000000000000
    Empirical Dispersion Energy =           0.0000000000000000
    PCM Polarization Energy =               0.0000000000000000
    EFP Energy =                            0.0000000000000000
    Total Energy =                       -344.5925234113961437

    Alert: EFP and PCM quantities not currently incorporated into SCF psivars.

Properties will be evaluated at   0.000000,   0.000000,   0.000000 Bohr
  ==> Properties <==


Properties computed using the SCF density matrix

  Nuclear Dipole Moment: (a.u.)
     X:     0.9132      Y:     5.9749      Z:     1.2196

  Electronic Dipole Moment: (a.u.)
     X:    -1.1342      Y:    -5.3121      Z:    -1.2136

  Dipole Moment: (a.u.)
     X:    -0.2210      Y:     0.6628      Z:     0.0060     Total:     0.6987

  Dipole Moment: (Debye)
     X:    -0.5617      Y:     1.6846      Z:     0.0153     Total:     1.7758


  Saving occupied orbitals to File 180.

*** tstop() called on cx1-3-1-3.cx1.hpc.ic.ac.uk at Tue Jul  5 16:29:40 2016
Module time:
	user time   =      10.66 seconds =       0.18 minutes
	system time =       0.06 seconds =       0.00 minutes
	total time  =         11 seconds =       0.18 minutes
Total time:
	user time   =      10.66 seconds =       0.18 minutes
	system time =       0.06 seconds =       0.00 minutes
	total time  =         11 seconds =       0.18 minutes


Properties will be evaluated at   0.000000,   0.000000,   0.000000 Bohr

Properties computed using the  density matrix

  Nuclear Dipole Moment: (a.u.)
     X:     0.9132      Y:     5.9749      Z:     1.2196

  Electronic Dipole Moment: (a.u.)
     X:    -1.1342      Y:    -5.3121      Z:    -1.2136

  Dipole Moment: (a.u.)
     X:    -0.2210      Y:     0.6628      Z:     0.0060     Total:     0.6987

  Dipole Moment: (Debye)
     X:    -0.5617      Y:     1.6846      Z:     0.0153     Total:     1.7758

  Quadrupole Moment: (Debye Ang)
    XX:   -39.4193     YY:   -48.5769     ZZ:   -50.1933
    XY:    -2.0203     XZ:    -1.3697     YZ:     1.8807

  Traceless Quadrupole Moment: (Debye Ang)
    XX:     6.6439     YY:    -2.5137     ZZ:    -4.1302
    XY:    -2.0203     XZ:    -1.3697     YZ:     1.8807

  Mulliken Charges: (a.u.)
   Center  Symbol    Alpha    Beta     Spin     Total
       1     H     0.27029  0.27029  0.00000  0.45943
       2     O     4.38261  4.38261  0.00000 -0.76521
       3     C     2.78057  2.78057  0.00000  0.43886
       4     C     3.13164  3.13164  0.00000 -0.26329
       5     C     3.16451  3.16451  0.00000 -0.32902
       6     H     0.39369  0.39369  0.00000  0.21263
       7     C     3.08738  3.08738  0.00000 -0.17476
       8     H     0.40712  0.40712  0.00000  0.18577
       9     C     2.96870  2.96870  0.00000  0.06259
      10     H     0.39772  0.39772  0.00000  0.20455
      11     C     3.12419  3.12419  0.00000 -0.24838
      12     C     3.25498  3.25498  0.00000 -0.50995
      13     H     0.40322  0.40322  0.00000  0.19356
      14     H     0.41071  0.41071  0.00000  0.17857
      15     H     0.41368  0.41368  0.00000  0.17264
      16     H     0.40900  0.40900  0.00000  0.18200

   Total alpha = 29.00000, Total beta = 29.00000, Total charge = -0.00000


*** PSI4 exiting successfully. Buy a developer a beer!
