    -----------------------------------------------------------------------
          Psi4: An Open-Source Ab Initio Electronic Structure Package
                              Psi4 (no tag) Driver

                          Git: Rev {detached?}  

    J. M. Turney, A. C. Simmonett, R. M. Parrish, E. G. Hohenstein,
    F. A. Evangelista, J. T. Fermann, B. J. Mintz, L. A. Burns, J. J. Wilke,
    M. L. Abrams, N. J. Russ, M. L. Leininger, C. L. Janssen, E. T. Seidl,
    W. D. Allen, H. F. Schaefer, R. A. King, E. F. Valeev, C. D. Sherrill,
    and T. D. Crawford, WIREs Comput. Mol. Sci. 2, 556-565 (2012)
    (doi: 10.1002/wcms.93)

                         Additional Contributions by
    A. E. DePrince, M. Saitow, U. Bozkaya, A. Yu. Sokolov
    -----------------------------------------------------------------------


    Psi4 started on: Tue Jul  5 16:31:16 2016

    Process ID:   2231
    PSI4DATADIR: /export131/home/mjharvey/miniconda3/share
    Memory level set to 256.000 MB

  ==> Input File <==

--------------------------------------------------------------------------
set {
	reference rhf
	basis 6-31G*
}


set_num_threads( 1 )
memory 2 gb

molecule MOL {
0 1

H	 2.866480	 -0.465706	 0.876907
C	 2.405773	 -0.024801	 0.000000
N	 0.988830	 -0.304158	 0.000000
H	 2.866480	 -0.465706	 -0.876907
H	 2.629928	 1.045948	 0.000000
C	 0.316200	 0.246925	 1.161829
C	 0.704186	 -1.720999	 -0.132320
H	 0.701527	 -0.183230	 2.091877
H	 0.489301	 1.317921	 1.197153
C	 -1.176409	 -0.023577	 1.067298
H	 1.161387	 -2.091004	 -1.044629
H	 1.117784	 -2.294555	 0.703424
C	 -0.798712	 -1.939313	 -0.192531
H	 -1.682396	 0.301638	 1.966870
H	 -1.592429	 0.518123	 0.219679
O	 -1.429264	 -1.393886	 0.932132
H	 -1.032270	 -2.995904	 -0.201665
H	 -1.196962	 -1.487746	 -1.099424

	symmetry c1
}
ee = energy('scf')
oeprop('DIPOLE', 'QUADRUPOLE', 'MULLIKEN_CHARGES')
f=open( 'psi4out.xyz', 'w' )
f.write( "18  " )
f.write( str(ee) + "\n" )
f.write( MOL.save_string_xyz() )
f.close()
--------------------------------------------------------------------------

  Memory set to   2.000 GiB by Python script.

*** tstart() called on cx1-3-15-4.cx1.hpc.ic.ac.uk
*** at Tue Jul  5 16:31:16 2016


         ---------------------------------------------------------
                                   SCF
            by Justin Turney, Rob Parrish, and Andy Simmonett
                              RHF Reference
                        1 Threads,   2000 MiB Core
         ---------------------------------------------------------

  ==> Geometry <==

    Molecular point group: c1
    Full point group: C1

    Geometry (in Angstrom), charge = 0, multiplicity = 1:

       Center              X                  Y                   Z               Mass       
    ------------   -----------------  -----------------  -----------------  -----------------
           H          2.720299556361     0.275744675221     0.465131269044     1.007825032070
           C          2.259592556361     0.716649675221    -0.411775730956    12.000000000000
           N          0.842649556361     0.437292675221    -0.411775730956    14.003074004780
           H          2.720299556361     0.275744675221    -1.288682730956     1.007825032070
           H          2.483747556361     1.787398675221    -0.411775730956     1.007825032070
           C          0.170019556361     0.988375675221     0.750053269044    12.000000000000
           C          0.558005556361    -0.979548324779    -0.544095730956    12.000000000000
           H          0.555346556361     0.558220675221     1.680101269044     1.007825032070
           H          0.343120556361     2.059371675221     0.785377269044     1.007825032070
           C         -1.322589443639     0.717873675221     0.655522269044    12.000000000000
           H          1.015206556361    -1.349553324779    -1.456404730956     1.007825032070
           H          0.971603556361    -1.553104324779     0.291648269044     1.007825032070
           C         -0.944892443639    -1.197862324779    -0.604306730956    12.000000000000
           H         -1.828576443639     1.043088675221     1.555094269044     1.007825032070
           H         -1.738609443639     1.259573675221    -0.192096730956     1.007825032070
           O         -1.575444443639    -0.652435324779     0.520356269044    15.994914619560
           H         -1.178450443639    -2.254453324779    -0.613440730956     1.007825032070
           H         -1.343142443639    -0.746295324779    -1.511199730956     1.007825032070

  Running in c1 symmetry.

  Rotational constants: A =      0.16248  B =      0.07909  C =      0.05780 [cm^-1]
  Rotational constants: A =   4871.00881  B =   2370.95809  C =   1732.89407 [MHz]
  Nuclear repulsion =  341.550588098415744

  Charge       = 0
  Multiplicity = 1
  Electrons    = 56
  Nalpha       = 28
  Nbeta        = 28

  ==> Algorithm <==

  SCF Algorithm Type is DF.
  DIIS enabled.
  MOM disabled.
  Fractional occupation disabled.
  Guess Type is CORE.
  Energy threshold   = 1.00e-06
  Density threshold  = 1.00e-06
  Integral threshold = 0.00e+00

  ==> Primary Basis <==

  Basis Set: 6-31G*
    Number of shells: 64
    Number of basis function: 127
    Number of Cartesian functions: 127
    Spherical Harmonics?: false
    Max angular momentum: 2

  ==> Pre-Iterations <==

   -------------------------------------------------------
    Irrep   Nso     Nmo     Nalpha   Nbeta   Ndocc  Nsocc
   -------------------------------------------------------
     A        127     127       0       0       0       0
   -------------------------------------------------------
    Total     127     127      28      28      28       0
   -------------------------------------------------------

 OEINTS: Overlap, kinetic, potential, dipole, and quadrupole integrals
         stored in file 35.

  ==> Integral Setup <==

  ==> DFJK: Density-Fitted J/K Matrices <==

    J tasked:                  Yes
    K tasked:                  Yes
    wK tasked:                  No
    OpenMP threads:              1
    Integrals threads:           1
    Memory (MB):              1430
    Algorithm:                Core
    Integral Cache:           NONE
    Schwarz Cutoff:          1E-12
    Fitting Condition:       1E-12

   => Auxiliary Basis Set <=

  Basis Set: 
    Number of shells: 267
    Number of basis function: 842
    Number of Cartesian functions: 842
    Spherical Harmonics?: false
    Max angular momentum: 3

  Minimum eigenvalue in the overlap matrix is 3.2319252615E-03.
  Using Symmetric Orthogonalization.
  SCF Guess: Core (One-Electron) Hamiltonian.

  ==> Iterations <==

                           Total Energy        Delta E     RMS |[F,P]|

   @DF-RHF iter   1:  -254.48918910523236   -2.54489e+02   7.04396e-02 
   @DF-RHF iter   2:  -176.01432423008197    7.84749e+01   7.37892e-02 DIIS
   @DF-RHF iter   3:  -269.57328237133657   -9.35590e+01   5.33744e-02 DIIS
   @DF-RHF iter   4:  -283.77253715423780   -1.41993e+01   5.77425e-02 DIIS
   @DF-RHF iter   5:  -324.32451566865808   -4.05520e+01   9.94354e-03 DIIS
   @DF-RHF iter   6:  -324.89139023164381   -5.66875e-01   4.38132e-03 DIIS
   @DF-RHF iter   7:  -325.01415947722529   -1.22769e-01   1.21575e-03 DIIS
   @DF-RHF iter   8:  -325.02649095751889   -1.23315e-02   3.09430e-04 DIIS
   @DF-RHF iter   9:  -325.02774440454363   -1.25345e-03   7.22916e-05 DIIS
   @DF-RHF iter  10:  -325.02779489564790   -5.04911e-05   3.18815e-05 DIIS
   @DF-RHF iter  11:  -325.02780821434266   -1.33187e-05   5.57599e-06 DIIS
   @DF-RHF iter  12:  -325.02780870524356   -4.90901e-07   1.70124e-06 DIIS
   @DF-RHF iter  13:  -325.02780874209935   -3.68558e-08   5.02083e-07 DIIS

  ==> Post-Iterations <==

    Orbital Energies (a.u.)
    -----------------------

    Doubly Occupied:                                                      

       1A    -20.554116     2A    -15.548776     3A    -11.266481  
       4A    -11.266182     5A    -11.244593     6A    -11.243990  
       7A    -11.241479     8A     -1.383529     9A     -1.232479  
      10A     -1.038563    11A     -0.981239    12A     -0.882929  
      13A     -0.868816    14A     -0.774858    15A     -0.683587  
      16A     -0.646043    17A     -0.643493    18A     -0.633651  
      19A     -0.629799    20A     -0.570848    21A     -0.557056  
      22A     -0.541963    23A     -0.527420    24A     -0.502083  
      25A     -0.484377    26A     -0.452429    27A     -0.408372  
      28A     -0.352053  

    Virtual:                                                              

      29A      0.232833    30A      0.257952    31A      0.273462  
      32A      0.284866    33A      0.308345    34A      0.310952  
      35A      0.323056    36A      0.324226    37A      0.333978  
      38A      0.344790    39A      0.348621    40A      0.359598  
      41A      0.387338    42A      0.430466    43A      0.436668  
      44A      0.451991    45A      0.465545    46A      0.480813  
      47A      0.717893    48A      0.733027    49A      0.746870  
      50A      0.782349    51A      0.796874    52A      0.805677  
      53A      0.832355    54A      0.841304    55A      0.888717  
      56A      0.904916    57A      0.933646    58A      0.976281  
      59A      0.983964    60A      1.056977    61A      1.065184  
      62A      1.107906    63A      1.113094    64A      1.125057  
      65A      1.136355    66A      1.151093    67A      1.168127  
      68A      1.180810    69A      1.194130    70A      1.200869  
      71A      1.206660    72A      1.233619    73A      1.251072  
      74A      1.262836    75A      1.301793    76A      1.318385  
      77A      1.410229    78A      1.471334    79A      1.527894  
      80A      1.638460    81A      1.646716    82A      1.651044  
      83A      1.669451    84A      1.711647    85A      1.722419  
      86A      1.874572    87A      1.902410    88A      1.985652  
      89A      2.003800    90A      2.063921    91A      2.153342  
      92A      2.194589    93A      2.200211    94A      2.229977  
      95A      2.304446    96A      2.312575    97A      2.350373  
      98A      2.396169    99A      2.408662   100A      2.414307  
     101A      2.449249   102A      2.480647   103A      2.494288  
     104A      2.530373   105A      2.591783   106A      2.619456  
     107A      2.654503   108A      2.679729   109A      2.776409  
     110A      2.779713   111A      2.808183   112A      2.903902  
     113A      2.913946   114A      2.945600   115A      3.085924  
     116A      3.135241   117A      3.160618   118A      3.219755  
     119A      3.253946   120A      3.327491   121A      4.395117  
     122A      4.504032   123A      4.645675   124A      4.702921  
     125A      4.767259   126A      4.940847   127A      4.953559  

    Final Occupation by Irrep:
              A 
    DOCC [    28 ]

  Energy converged.

  @DF-RHF Final Energy:  -325.02780874209935

   => Energetics <=

    Nuclear Repulsion Energy =            341.5505880984157443
    One-Electron Energy =               -1118.8343735888142874
    Two-Electron Energy =                 452.2559767482994744
    DFT Exchange-Correlation Energy =       0.0000000000000000
    Empirical Dispersion Energy =           0.0000000000000000
    PCM Polarization Energy =               0.0000000000000000
    EFP Energy =                            0.0000000000000000
    Total Energy =                       -325.0278087420990119

    Alert: EFP and PCM quantities not currently incorporated into SCF psivars.

Properties will be evaluated at   0.000000,   0.000000,   0.000000 Bohr
  ==> Properties <==


Properties computed using the SCF density matrix

  Nuclear Dipole Moment: (a.u.)
     X:     4.4156      Y:     1.2666      Z:    -0.6490

  Electronic Dipole Moment: (a.u.)
     X:    -3.8957      Y:    -1.0861      Z:     0.5209

  Dipole Moment: (a.u.)
     X:     0.5199      Y:     0.1805      Z:    -0.1281     Total:     0.5651

  Dipole Moment: (Debye)
     X:     1.3216      Y:     0.4587      Z:    -0.3256     Total:     1.4363


  Saving occupied orbitals to File 180.

*** tstop() called on cx1-3-15-4.cx1.hpc.ic.ac.uk at Tue Jul  5 16:31:27 2016
Module time:
	user time   =       9.79 seconds =       0.16 minutes
	system time =       0.05 seconds =       0.00 minutes
	total time  =         11 seconds =       0.18 minutes
Total time:
	user time   =       9.79 seconds =       0.16 minutes
	system time =       0.05 seconds =       0.00 minutes
	total time  =         11 seconds =       0.18 minutes


Properties will be evaluated at   0.000000,   0.000000,   0.000000 Bohr

Properties computed using the  density matrix

  Nuclear Dipole Moment: (a.u.)
     X:     4.4156      Y:     1.2666      Z:    -0.6490

  Electronic Dipole Moment: (a.u.)
     X:    -3.8957      Y:    -1.0861      Z:     0.5209

  Dipole Moment: (a.u.)
     X:     0.5199      Y:     0.1805      Z:    -0.1281     Total:     0.5651

  Dipole Moment: (Debye)
     X:     1.3216      Y:     0.4587      Z:    -0.3256     Total:     1.4363

  Quadrupole Moment: (Debye Ang)
    XX:   -45.5262     YY:   -42.1495     ZZ:   -44.6363
    XY:    -1.8001     XZ:     0.9372     YZ:     3.5854

  Traceless Quadrupole Moment: (Debye Ang)
    XX:    -1.4222     YY:     1.9544     ZZ:    -0.5323
    XY:    -1.8001     XZ:     0.9372     YZ:     3.5854

  Mulliken Charges: (a.u.)
   Center  Symbol    Alpha    Beta     Spin     Total
       1     H     0.43204  0.43204  0.00000  0.13592
       2     C     3.14051  3.14051  0.00000 -0.28102
       3     N     3.78755  3.78755  0.00000 -0.57510
       4     H     0.41619  0.41619  0.00000  0.16763
       5     H     0.41554  0.41554  0.00000  0.16892
       6     C     3.06824  3.06824  0.00000 -0.13648
       7     C     3.06844  3.06844  0.00000 -0.13687
       8     H     0.42864  0.42864  0.00000  0.14272
       9     H     0.41661  0.41661  0.00000  0.16678
      10     C     2.99750  2.99750  0.00000  0.00500
      11     H     0.41662  0.41662  0.00000  0.16676
      12     H     0.42853  0.42853  0.00000  0.14295
      13     C     2.99742  2.99742  0.00000  0.00516
      14     H     0.41334  0.41334  0.00000  0.17333
      15     H     0.42385  0.42385  0.00000  0.15230
      16     O     4.31200  4.31200  0.00000 -0.62400
      17     H     0.41323  0.41323  0.00000  0.17354
      18     H     0.42378  0.42378  0.00000  0.15245

   Total alpha = 28.00000, Total beta = 28.00000, Total charge =  0.00000


*** PSI4 exiting successfully. Buy a developer a beer!
