
    -----------------------------------------------------------------------
          Psi4: An Open-Source Ab Initio Electronic Structure Package
                               Psi4 1.1 release

                         Git: Rev {HEAD} add49b9 


    R. M. Parrish, L. A. Burns, D. G. A. Smith, A. C. Simmonett,
    A. E. DePrince III, E. G. Hohenstein, U. Bozkaya, A. Yu. Sokolov,
    R. Di Remigio, R. M. Richard, J. F. Gonthier, A. M. James,
    H. R. McAlexander, A. Kumar, M. Saitow, X. Wang, B. P. Pritchard,
    P. Verma, H. F. Schaefer III, K. Patkowski, R. A. King, E. F. Valeev,
    F. A. Evangelista, J. M. Turney, T. D. Crawford, and C. D. Sherrill,
    J. Chem. Theory Comput. in press (2017).
    (doi: 10.1021/acs.jctc.7b00174)

    -----------------------------------------------------------------------


    Psi4 started on: Tuesday, 30 January 2018 01:49PM

    Process ID:  24368
    PSIDATADIR: /shared/raimis/opt/miniconda/envs/htmd/share/psi4
    Memory:     500.0 MiB
    Threads:    1
    
  ==> Input File <==

--------------------------------------------------------------------------
set_num_threads(1)
set_memory(4203741184)

set { reference rks }
set { basis cc-pVDZ }

molecule MOL {
    0 1
    noreorient
    nocom
    symmetry c1
    O    1.141000   0.017000   0.083000
    C    2.558000   0.086000  -0.005000
    C    3.192000  -0.789000   1.067000
    O    4.610000  -0.719000   0.979000
    H    0.926447  -0.143250   1.018269
    H    2.874000   1.128000   0.115000
    H    2.871000  -0.243000  -1.001000
    H    2.876000  -1.830000   0.947000
    H    2.879000  -0.459000   2.064000
    H    4.961000  -1.293000   1.682000
}

set optking { frozen_dihedral = (" 3 2 1 5 ") }

energy, wfn = energy('B3LYP-D3', return_wfn=True)

import os
os.chdir(os.environ['HTMD_PSI4_WORKDIR'])

oeprop(wfn, 'DIPOLE', 'QUADRUPOLE', 'MULLIKEN_CHARGES')

with open('psi4out.xyz', 'w') as f:
    f.write('10 ' )
    f.write('%.12f\n' % energy)
    f.write(MOL.save_string_xyz())
--------------------------------------------------------------------------
  Threads set to 1 by Python driver.

  Memory set to   3.915 GiB by Python driver.

*** tstart() called on computer06
*** at Tue Jan 30 13:49:13 2018

   => Loading Basis Set <=

    Name: CC-PVDZ
    Role: ORBITAL
    Keyword: BASIS
    atoms 1, 4 entry O          line   190 file /shared/raimis/opt/miniconda/envs/htmd/share/psi4/basis/cc-pvdz.gbs 
    atoms 2-3  entry C          line   130 file /shared/raimis/opt/miniconda/envs/htmd/share/psi4/basis/cc-pvdz.gbs 
    atoms 5-10 entry H          line    20 file /shared/raimis/opt/miniconda/envs/htmd/share/psi4/basis/cc-pvdz.gbs 


         ---------------------------------------------------------
                                   SCF
            by Justin Turney, Rob Parrish, and Andy Simmonett
                              RKS Reference
                        1 Threads,   4009 MiB Core
         ---------------------------------------------------------

  ==> Geometry <==

    Molecular point group: c1
    Full point group: C1

    Geometry (in Angstrom), charge = 0, multiplicity = 1:

       Center              X                  Y                   Z               Mass       
    ------------   -----------------  -----------------  -----------------  -----------------
           O          1.141000000000     0.017000000000     0.083000000000    15.994914619560
           C          2.558000000000     0.086000000000    -0.005000000000    12.000000000000
           C          3.192000000000    -0.789000000000     1.067000000000    12.000000000000
           O          4.610000000000    -0.719000000000     0.979000000000    15.994914619560
           H          0.926447000000    -0.143250000000     1.018269000000     1.007825032070
           H          2.874000000000     1.128000000000     0.115000000000     1.007825032070
           H          2.871000000000    -0.243000000000    -1.001000000000     1.007825032070
           H          2.876000000000    -1.830000000000     0.947000000000     1.007825032070
           H          2.879000000000    -0.459000000000     2.064000000000     1.007825032070
           H          4.961000000000    -1.293000000000     1.682000000000     1.007825032070

  Running in c1 symmetry.

  Rotational constants: A =      0.84154  B =      0.02533  C =      0.02484 [cm^-1]
  Rotational constants: A =  25228.62553  B =    759.23432  C =    744.57286 [MHz]
  Nuclear repulsion =  130.071818589032830

  Charge       = 0
  Multiplicity = 1
  Electrons    = 34
  Nalpha       = 17
  Nbeta        = 17

  ==> Algorithm <==

  SCF Algorithm Type is DF.
  DIIS enabled.
  MOM disabled.
  Fractional occupation disabled.
  Guess Type is SAD.
  Energy threshold   = 1.00e-06
  Density threshold  = 1.00e-06
  Integral threshold = 0.00e+00

  ==> Primary Basis <==

  Basis Set: CC-PVDZ
    Blend: CC-PVDZ
    Number of shells: 42
    Number of basis function: 86
    Number of Cartesian functions: 90
    Spherical Harmonics?: true
    Max angular momentum: 2

  ==> DFT Potential <==

   => B3LYP Composite Functional <= 

    B3LYP Hybrid-GGA Exchange-Correlation Functional (VWN1-RPA)

    P.J. Stephens et. al., J. Phys. Chem., 98, 11623-11627, 1994

    Points   =           5000
    Deriv    =              1
    GGA      =           TRUE
    Meta     =          FALSE

    X_LRC        =          FALSE
    X_Hybrid     =           TRUE
    X_Alpha      =   2.000000E-01
    X_Omega      =   0.000000E+00
    C_LRC        =          FALSE
    C_Hybrid     =          FALSE
    C_Alpha      =   0.000000E+00
    C_Omega      =   0.000000E+00

   => Exchange Functionals <=

    0.8000    B3_X
    0.2000      HF 

   => Correlation Functionals <=

    0.1900 VWN3RPA_C
    0.8100   LYP_C

   => Molecular Quadrature <=

    Radial Scheme    =       TREUTLER
    Pruning Scheme   =           FLAT
    Nuclear Scheme   =       TREUTLER

    BS radius alpha  =              1
    Pruning alpha    =              1
    Radial Points    =             75
    Spherical Points =            302
    Total Points     =         222531
    Total Blocks     =            208
    Max Points       =           4992
    Max Functions    =             86

   => -D3ZERO: Empirical Dispersion <=

    Grimme's -D3 (zero-damping) Dispersion Correction
    Grimme S.; Antony J.; Ehrlich S.; Krieg H. (2010), J. Chem. Phys., 132: 154104

        S6 =   1.000000E+00
        S8 =   1.703000E+00
       SR6 =   1.261000E+00
    ALPHA6 =   1.400000E+01

   => Loading Basis Set <=

    Name: (CC-PVDZ AUX)
    Role: JKFIT
    Keyword: DF_BASIS_SCF
    atoms 1, 4 entry O          line   220 file /shared/raimis/opt/miniconda/envs/htmd/share/psi4/basis/cc-pvdz-jkfit.gbs 
    atoms 2-3  entry C          line   120 file /shared/raimis/opt/miniconda/envs/htmd/share/psi4/basis/cc-pvdz-jkfit.gbs 
    atoms 5-10 entry H          line    50 file /shared/raimis/opt/miniconda/envs/htmd/share/psi4/basis/cc-pvdz-jkfit.gbs 

  ==> Pre-Iterations <==

   -------------------------------------------------------
    Irrep   Nso     Nmo     Nalpha   Nbeta   Ndocc  Nsocc
   -------------------------------------------------------
     A         86      86       0       0       0       0
   -------------------------------------------------------
    Total      86      86      17      17      17       0
   -------------------------------------------------------

  ==> Integral Setup <==

  ==> DFJK: Density-Fitted J/K Matrices <==

    J tasked:                  Yes
    K tasked:                  Yes
    wK tasked:                  No
    OpenMP threads:              1
    Integrals threads:           1
    Memory (MB):              3006
    Algorithm:                Core
    Integral Cache:           NONE
    Schwarz Cutoff:          1E-12
    Fitting Condition:       1E-12

   => Auxiliary Basis Set <=

  Basis Set: (CC-PVDZ AUX)
    Blend: CC-PVDZ-JKFIT
    Number of shells: 150
    Number of basis function: 418
    Number of Cartesian functions: 474
    Spherical Harmonics?: true
    Max angular momentum: 3

  Minimum eigenvalue in the overlap matrix is 5.0277999409E-03.
  Using Symmetric Orthogonalization.

  SCF Guess: Superposition of Atomic Densities via on-the-fly atomic UHF.

  ==> Iterations <==

                           Total Energy        Delta E     RMS |[F,P]|

   @DF-RKS iter   0:  -231.02037366217931   -2.31020e+02   4.11380e-02 
   @DF-RKS iter   1:  -230.16817812471453    8.52196e-01   5.50912e-03 
   @DF-RKS iter   2:  -230.10582788898066    6.23502e-02   7.49693e-03 DIIS
   @DF-RKS iter   3:  -230.25561982627303   -1.49792e-01   6.69119e-04 DIIS
   @DF-RKS iter   4:  -230.25686801259735   -1.24819e-03   2.27768e-04 DIIS
   @DF-RKS iter   5:  -230.25705237153744   -1.84359e-04   4.71646e-05 DIIS
   @DF-RKS iter   6:  -230.25706010277020   -7.73123e-06   6.05202e-06 DIIS
   @DF-RKS iter   7:  -230.25706017619288   -7.34227e-08   3.79457e-06 DIIS
   @DF-RKS iter   8:  -230.25706021365045   -3.74576e-08   5.78015e-07 DIIS

  ==> Post-Iterations <==

    Orbital Energies (a.u.)
    -----------------------

    Doubly Occupied:                                                      

       1A    -19.138268     2A    -19.133740     3A    -10.235226  
       4A    -10.226911     5A     -1.024709     6A     -1.012257  
       7A     -0.733073     8A     -0.624023     9A     -0.517995  
      10A     -0.491878    11A     -0.468592    12A     -0.425501  
      13A     -0.398989    14A     -0.352713    15A     -0.323850  
      16A     -0.272030    17A     -0.266678  

    Virtual:                                                              

      18A      0.040989    19A      0.052008    20A      0.100152  
      21A      0.111099    22A      0.125413    23A      0.164657  
      24A      0.199159    25A      0.230463    26A      0.243832  
      27A      0.432908    28A      0.439691    29A      0.496367  
      30A      0.525023    31A      0.553058    32A      0.575155  
      33A      0.599464    34A      0.621521    35A      0.635528  
      36A      0.652522    37A      0.659097    38A      0.673903  
      39A      0.874996    40A      0.885721    41A      0.908895  
      42A      0.973355    43A      1.023721    44A      1.050396  
      45A      1.055144    46A      1.155699    47A      1.164795  
      48A      1.206467    49A      1.237838    50A      1.309381  
      51A      1.337536    52A      1.382996    53A      1.511770  
      54A      1.515763    55A      1.589256    56A      1.621473  
      57A      1.644278    58A      1.652882    59A      1.660390  
      60A      1.678125    61A      1.729087    62A      1.775321  
      63A      1.805134    64A      1.859517    65A      1.903625  
      66A      1.980562    67A      2.033577    68A      2.053909  
      69A      2.121540    70A      2.131491    71A      2.247878  
      72A      2.285284    73A      2.405781    74A      2.440694  
      75A      2.473862    76A      2.513592    77A      2.923394  
      78A      2.933302    79A      3.004333    80A      3.007911  
      81A      3.078766    82A      3.086949    83A      3.183492  
      84A      3.256555    85A      3.667711    86A      3.691384  

    Final Occupation by Irrep:
              A 
    DOCC [    17 ]

  Energy converged.

  @DF-RKS Final Energy:  -230.25706021365045

   => Energetics <=

    Nuclear Repulsion Energy =            130.0718185890328300
    One-Electron Energy =                -571.7322829593578035
    Two-Electron Energy =                 235.9462079272013000
    DFT Exchange-Correlation Energy =     -24.5381605505267899
    Empirical Dispersion Energy =          -0.0046432200000000
    PCM Polarization Energy =               0.0000000000000000
    EFP Energy =                            0.0000000000000000
    Total Energy =                       -230.2570602136504476



Properties will be evaluated at   0.000000,   0.000000,   0.000000 Bohr

Properties computed using the SCF density matrix

  Nuclear Dipole Moment: (a.u.)
     X:   184.9956      Y:   -23.9509      Z:    37.2149

  Electronic Dipole Moment: (a.u.)
     X:  -184.8539      Y:    23.5110      Z:   -36.3083

  Dipole Moment: (a.u.)
     X:     0.1417      Y:    -0.4398      Z:     0.9066     Total:     1.0175

  Dipole Moment: (Debye)
     X:     0.3602      Y:    -1.1179      Z:     2.3043     Total:     2.5863


*** tstop() called on computer06 at Tue Jan 30 13:49:33 2018
Module time:
	user time   =      19.45 seconds =       0.32 minutes
	system time =       0.16 seconds =       0.00 minutes
	total time  =         20 seconds =       0.33 minutes
Total time:
	user time   =      19.45 seconds =       0.32 minutes
	system time =       0.16 seconds =       0.00 minutes
	total time  =         20 seconds =       0.33 minutes


Properties will be evaluated at   0.000000,   0.000000,   0.000000 Bohr

Properties computed using the  density matrix

  Nuclear Dipole Moment: (a.u.)
     X:   184.9956      Y:   -23.9509      Z:    37.2149

  Electronic Dipole Moment: (a.u.)
     X:  -184.8539      Y:    23.5110      Z:   -36.3083

  Dipole Moment: (a.u.)
     X:     0.1417      Y:    -0.4398      Z:     0.9066     Total:     1.0175

  Dipole Moment: (Debye)
     X:     0.3602      Y:    -1.1179      Z:     2.3043     Total:     2.5863

  Quadrupole Moment: (Debye Ang)
    XX:   -25.4187     YY:   -23.0522     ZZ:   -19.8814
    XY:    -4.4721     XZ:     5.7380     YZ:    -2.7278

  Traceless Quadrupole Moment: (Debye Ang)
    XX:    -2.6346     YY:    -0.2681     ZZ:     2.9027
    XY:    -4.4721     XZ:     5.7380     YZ:    -2.7278

  Mulliken Charges: (a.u.)
   Center  Symbol    Alpha    Beta     Spin     Total
       1     O     4.13734  4.13734  0.00000 -0.27469
       2     C     2.92109  2.92109  0.00000  0.15782
       3     C     2.95770  2.95770  0.00000  0.08460
       4     O     4.13757  4.13757  0.00000 -0.27513
       5     H     0.43262  0.43262  0.00000  0.13477
       6     H     0.49598  0.49598  0.00000  0.00804
       7     H     0.48781  0.48781  0.00000  0.02438
       8     H     0.49792  0.49792  0.00000  0.00416
       9     H     0.50402  0.50402  0.00000 -0.00803
      10     H     0.42796  0.42796  0.00000  0.14408

   Total alpha = 17.00000, Total beta = 17.00000, Total charge = -0.00000


*** Psi4 exiting successfully. Buy a developer a beer!
