    -----------------------------------------------------------------------
          Psi4: An Open-Source Ab Initio Electronic Structure Package
                              Psi4 (no tag) Driver

                          Git: Rev {detached?}  

    J. M. Turney, A. C. Simmonett, R. M. Parrish, E. G. Hohenstein,
    F. A. Evangelista, J. T. Fermann, B. J. Mintz, L. A. Burns, J. J. Wilke,
    M. L. Abrams, N. J. Russ, M. L. Leininger, C. L. Janssen, E. T. Seidl,
    W. D. Allen, H. F. Schaefer, R. A. King, E. F. Valeev, C. D. Sherrill,
    and T. D. Crawford, WIREs Comput. Mol. Sci. 2, 556-565 (2012)
    (doi: 10.1002/wcms.93)

                         Additional Contributions by
    A. E. DePrince, M. Saitow, U. Bozkaya, A. Yu. Sokolov
    -----------------------------------------------------------------------


    Psi4 started on: Tue Jul  5 16:44:24 2016

    Process ID:   7898
    PSI4DATADIR: /export131/home/mjharvey/miniconda3/share
    Memory level set to 256.000 MB

  ==> Input File <==

--------------------------------------------------------------------------
set {
	reference rhf
	basis 6-31G*
}


set_num_threads( 1 )
memory 2 gb

molecule MOL {
0 1

H	 2.845955	 -0.323208	 0.022310
C	 1.900140	 0.071967	 -0.330070
C	 0.778463	 -0.508087	 0.517968
H	 1.782469	 -0.206877	 -1.370777
H	 1.922247	 1.149867	 -0.254252
N	 -0.540928	 0.005139	 0.058438
H	 0.716718	 -1.581298	 0.454712
H	 0.859711	 -0.198647	 1.550086
O	 -1.489834	 -0.700444	 0.203365
O	 -0.556735	 1.096064	 -0.425435

	symmetry c1
}
ee = energy('scf')
oeprop('DIPOLE', 'QUADRUPOLE', 'MULLIKEN_CHARGES')
f=open( 'psi4out.xyz', 'w' )
f.write( "10  " )
f.write( str(ee) + "\n" )
f.write( MOL.save_string_xyz() )
f.close()
--------------------------------------------------------------------------

  Memory set to   2.000 GiB by Python script.

*** tstart() called on cx1-3-16-3.cx1.hpc.ic.ac.uk
*** at Tue Jul  5 16:44:25 2016


         ---------------------------------------------------------
                                   SCF
            by Justin Turney, Rob Parrish, and Andy Simmonett
                              RHF Reference
                        1 Threads,   2000 MiB Core
         ---------------------------------------------------------

  ==> Geometry <==

    Molecular point group: c1
    Full point group: C1

    Geometry (in Angstrom), charge = 0, multiplicity = 1:

       Center              X                  Y                   Z               Mass       
    ------------   -----------------  -----------------  -----------------  -----------------
           H          2.845627412097    -0.323170530753     0.023291950926     1.007825032070
           C          1.899812412097     0.072004469247    -0.329088049074    12.000000000000
           C          0.778135412097    -0.508049530753     0.518949950926    12.000000000000
           H          1.782141412097    -0.206839530753    -1.369795049074     1.007825032070
           H          1.921919412097     1.149904469247    -0.253270049074     1.007825032070
           N         -0.541255587903     0.005176469247     0.059419950926    14.003074004780
           H          0.716390412097    -1.581260530753     0.455693950926     1.007825032070
           H          0.859383412097    -0.198609530753     1.551067950926     1.007825032070
           O         -1.490161587903    -0.700406530753     0.204346950926    15.994914619560
           O         -0.557062587903     1.096101469247    -0.424453049074    15.994914619560

  Running in c1 symmetry.

  Rotational constants: A =      0.36284  B =      0.14338  C =      0.11022 [cm^-1]
  Rotational constants: A =  10877.74290  B =   4298.38630  C =   3304.21518 [MHz]
  Nuclear repulsion =  186.604938587896129

  Charge       = 0
  Multiplicity = 1
  Electrons    = 40
  Nalpha       = 20
  Nbeta        = 20

  ==> Algorithm <==

  SCF Algorithm Type is DF.
  DIIS enabled.
  MOM disabled.
  Fractional occupation disabled.
  Guess Type is CORE.
  Energy threshold   = 1.00e-06
  Density threshold  = 1.00e-06
  Integral threshold = 0.00e+00

  ==> Primary Basis <==

  Basis Set: 6-31G*
    Number of shells: 40
    Number of basis function: 85
    Number of Cartesian functions: 85
    Spherical Harmonics?: false
    Max angular momentum: 2

  ==> Pre-Iterations <==

   -------------------------------------------------------
    Irrep   Nso     Nmo     Nalpha   Nbeta   Ndocc  Nsocc
   -------------------------------------------------------
     A         85      85       0       0       0       0
   -------------------------------------------------------
    Total      85      85      20      20      20       0
   -------------------------------------------------------

 OEINTS: Overlap, kinetic, potential, dipole, and quadrupole integrals
         stored in file 35.

  ==> Integral Setup <==

  ==> DFJK: Density-Fitted J/K Matrices <==

    J tasked:                  Yes
    K tasked:                  Yes
    wK tasked:                  No
    OpenMP threads:              1
    Integrals threads:           1
    Memory (MB):              1430
    Algorithm:                Core
    Integral Cache:           NONE
    Schwarz Cutoff:          1E-12
    Fitting Condition:       1E-12

   => Auxiliary Basis Set <=

  Basis Set: 
    Number of shells: 165
    Number of basis function: 530
    Number of Cartesian functions: 530
    Spherical Harmonics?: false
    Max angular momentum: 3

  Minimum eigenvalue in the overlap matrix is 3.0581417159E-03.
  Using Symmetric Orthogonalization.
  SCF Guess: Core (One-Electron) Hamiltonian.

  ==> Iterations <==

                           Total Energy        Delta E     RMS |[F,P]|

   @DF-RHF iter   1:  -233.23211375977098   -2.33232e+02   8.57564e-02 
   @DF-RHF iter   2:  -168.94216958161729    6.42899e+01   1.00597e-01 DIIS
   @DF-RHF iter   3:  -269.31826914065630   -1.00376e+02   3.47270e-02 DIIS
   @DF-RHF iter   4:  -254.68187970949072    1.46364e+01   6.30379e-02 DIIS
   @DF-RHF iter   5:  -281.77565500968592   -2.70938e+01   1.54270e-02 DIIS
   @DF-RHF iter   6:  -282.39599578116827   -6.20341e-01   8.89155e-03 DIIS
   @DF-RHF iter   7:  -282.61473025082427   -2.18734e-01   4.62323e-03 DIIS
   @DF-RHF iter   8:  -282.68875509310470   -7.40248e-02   1.41548e-03 DIIS
   @DF-RHF iter   9:  -282.69841071154025   -9.65562e-03   5.26769e-04 DIIS
   @DF-RHF iter  10:  -282.69954230303398   -1.13159e-03   2.04064e-04 DIIS
   @DF-RHF iter  11:  -282.69980539143478   -2.63088e-04   5.96031e-05 DIIS
   @DF-RHF iter  12:  -282.69984311533102   -3.77239e-05   3.24724e-05 DIIS
   @DF-RHF iter  13:  -282.69984986827671   -6.75295e-06   1.35177e-05 DIIS
   @DF-RHF iter  14:  -282.69985137712752   -1.50885e-06   3.18413e-06 DIIS
   @DF-RHF iter  15:  -282.69985151265138   -1.35524e-07   8.98194e-07 DIIS

  ==> Post-Iterations <==

    Orbital Energies (a.u.)
    -----------------------

    Doubly Occupied:                                                      

       1A    -20.603522     2A    -20.602432     3A    -15.849877  
       4A    -11.304631     5A    -11.245931     6A     -1.633239  
       7A     -1.418958     8A     -1.126405     9A     -0.965373  
      10A     -0.833839    11A     -0.762722    12A     -0.746227  
      13A     -0.727431    14A     -0.644859    15A     -0.589907  
      16A     -0.560980    17A     -0.541122    18A     -0.486544  
      19A     -0.479078    20A     -0.450889  

    Virtual:                                                              

      21A      0.118838    22A      0.223888    23A      0.269513  
      24A      0.281180    25A      0.295248    26A      0.322326  
      27A      0.329048    28A      0.375454    29A      0.527511  
      30A      0.602786    31A      0.687815    32A      0.707361  
      33A      0.746309    34A      0.774113    35A      0.845623  
      36A      0.857288    37A      0.928669    38A      1.004268  
      39A      1.016500    40A      1.066770    41A      1.088334  
      42A      1.109346    43A      1.126217    44A      1.151233  
      45A      1.177896    46A      1.201346    47A      1.231263  
      48A      1.240447    49A      1.295427    50A      1.298986  
      51A      1.351891    52A      1.375268    53A      1.585873  
      54A      1.630480    55A      1.722735    56A      1.746478  
      57A      1.790229    58A      1.959894    59A      2.059028  
      60A      2.079499    61A      2.112695    62A      2.133396  
      63A      2.160961    64A      2.196518    65A      2.282182  
      66A      2.296586    67A      2.383259    68A      2.417518  
      69A      2.499944    70A      2.569359    71A      2.627438  
      72A      2.683316    73A      2.788882    74A      2.846801  
      75A      2.876277    76A      3.073862    77A      3.219166  
      78A      3.282356    79A      3.287345    80A      3.495123  
      81A      4.082576    82A      4.200905    83A      4.270337  
      84A      4.607618    85A      4.823720  

    Final Occupation by Irrep:
              A 
    DOCC [    20 ]

  Energy converged.

  @DF-RHF Final Energy:  -282.69985151265138

   => Energetics <=

    Nuclear Repulsion Energy =            186.6049385878961289
    One-Electron Energy =                -755.4616196485119417
    Two-Electron Energy =                 286.1568295479643780
    DFT Exchange-Correlation Energy =       0.0000000000000000
    Empirical Dispersion Energy =           0.0000000000000000
    PCM Polarization Energy =               0.0000000000000000
    EFP Energy =                            0.0000000000000000
    Total Energy =                       -282.6998515126513780

    Alert: EFP and PCM quantities not currently incorporated into SCF psivars.

Properties will be evaluated at   0.000000,   0.000000,   0.000000 Bohr
  ==> Properties <==


Properties computed using the SCF density matrix

  Nuclear Dipole Moment: (a.u.)
     X:     7.6091      Y:    -1.0856      Z:     0.3803

  Electronic Dipole Moment: (a.u.)
     X:    -6.1332      Y:     0.6081      Z:     0.0571

  Dipole Moment: (a.u.)
     X:     1.4759      Y:    -0.4775      Z:     0.4374     Total:     1.6117

  Dipole Moment: (Debye)
     X:     3.7513      Y:    -1.2136      Z:     1.1119     Total:     4.0965


  Saving occupied orbitals to File 180.

*** tstop() called on cx1-3-16-3.cx1.hpc.ic.ac.uk at Tue Jul  5 16:44:28 2016
Module time:
	user time   =       3.17 seconds =       0.05 minutes
	system time =       0.03 seconds =       0.00 minutes
	total time  =          3 seconds =       0.05 minutes
Total time:
	user time   =       3.17 seconds =       0.05 minutes
	system time =       0.03 seconds =       0.00 minutes
	total time  =          3 seconds =       0.05 minutes


Properties will be evaluated at   0.000000,   0.000000,   0.000000 Bohr

Properties computed using the  density matrix

  Nuclear Dipole Moment: (a.u.)
     X:     7.6091      Y:    -1.0856      Z:     0.3803

  Electronic Dipole Moment: (a.u.)
     X:    -6.1332      Y:     0.6081      Z:     0.0571

  Dipole Moment: (a.u.)
     X:     1.4759      Y:    -0.4775      Z:     0.4374     Total:     1.6117

  Dipole Moment: (Debye)
     X:     3.7513      Y:    -1.2136      Z:     1.1119     Total:     4.0965

  Quadrupole Moment: (Debye Ang)
    XX:   -31.7077     YY:   -31.5408     ZZ:   -28.0954
    XY:    -1.2564     XZ:     0.4160     YZ:     1.2911

  Traceless Quadrupole Moment: (Debye Ang)
    XX:    -1.2598     YY:    -1.0928     ZZ:     2.3526
    XY:    -1.2564     XZ:     0.4160     YZ:     1.2911

  Mulliken Charges: (a.u.)
   Center  Symbol    Alpha    Beta     Spin     Total
       1     H     0.40981  0.40981  0.00000  0.18039
       2     C     3.25261  3.25261  0.00000 -0.50523
       3     C     3.09665  3.09665  0.00000 -0.19331
       4     H     0.40407  0.40407  0.00000  0.19186
       5     H     0.39319  0.39319  0.00000  0.21363
       6     N     3.21797  3.21797  0.00000  0.56406
       7     H     0.38500  0.38500  0.00000  0.22999
       8     H     0.38438  0.38438  0.00000  0.23123
       9     O     4.22833  4.22833  0.00000 -0.45666
      10     O     4.22798  4.22798  0.00000 -0.45596

   Total alpha = 20.00000, Total beta = 20.00000, Total charge = -0.00000


*** PSI4 exiting successfully. Buy a developer a beer!
