    -----------------------------------------------------------------------
          Psi4: An Open-Source Ab Initio Electronic Structure Package
                              Psi4 (no tag) Driver

                          Git: Rev {detached?}  

    J. M. Turney, A. C. Simmonett, R. M. Parrish, E. G. Hohenstein,
    F. A. Evangelista, J. T. Fermann, B. J. Mintz, L. A. Burns, J. J. Wilke,
    M. L. Abrams, N. J. Russ, M. L. Leininger, C. L. Janssen, E. T. Seidl,
    W. D. Allen, H. F. Schaefer, R. A. King, E. F. Valeev, C. D. Sherrill,
    and T. D. Crawford, WIREs Comput. Mol. Sci. 2, 556-565 (2012)
    (doi: 10.1002/wcms.93)

                         Additional Contributions by
    A. E. DePrince, M. Saitow, U. Bozkaya, A. Yu. Sokolov
    -----------------------------------------------------------------------


    Psi4 started on: Tue Jul  5 16:32:36 2016

    Process ID:  16280
    PSI4DATADIR: /export131/home/mjharvey/miniconda3/share
    Memory level set to 256.000 MB

  ==> Input File <==

--------------------------------------------------------------------------
set {
	reference rhf
	basis 6-31G*
}


set_num_threads( 1 )
memory 2 gb

molecule MOL {
0 1

H	 2.267488	 0.419975	 -1.142002
O	 1.631499	 0.886023	 -1.665460
C	 0.933123	 1.800208	 -0.858179
C	 0.031547	 1.023609	 0.088541
H	 0.323809	 2.461624	 -1.471493
H	 1.627426	 2.424882	 -0.300660
C	 -1.134819	 0.293262	 -0.585751
H	 -0.364656	 1.721166	 0.821156
H	 0.648061	 0.310390	 0.633012
C	 -1.917817	 -0.639439	 0.339494
H	 -0.758119	 -0.268455	 -1.433105
H	 -1.813832	 1.041889	 -0.986690
H	 -2.777680	 -1.057197	 -0.174994
H	 -1.310268	 -1.471279	 0.680599
H	 -2.283753	 -0.111424	 1.216626

	symmetry c1
}
set optking {
	frozen_dihedral = ("
		8 4 7 11,
		2 3 4 8
	")
}

ee = energy('scf')
oeprop('DIPOLE', 'QUADRUPOLE', 'MULLIKEN_CHARGES')
f=open( 'psi4out.xyz', 'w' )
f.write( "15  " )
f.write( str(ee) + "\n" )
f.write( MOL.save_string_xyz() )
f.close()
--------------------------------------------------------------------------

  Memory set to   2.000 GiB by Python script.

*** tstart() called on cx1-1-3-3.cx1.hpc.ic.ac.uk
*** at Tue Jul  5 16:32:37 2016


         ---------------------------------------------------------
                                   SCF
            by Justin Turney, Rob Parrish, and Andy Simmonett
                              RHF Reference
                        1 Threads,   2000 MiB Core
         ---------------------------------------------------------

  ==> Geometry <==

    Molecular point group: c1
    Full point group: C1

    Geometry (in Angstrom), charge = 0, multiplicity = 1:

       Center              X                  Y                   Z               Mass       
    ------------   -----------------  -----------------  -----------------  -----------------
           H          2.313877051468    -0.247175222275    -0.588440336459     1.007825032070
           O          1.677888051468     0.218872777725    -1.111898336459    15.994914619560
           C          0.979512051468     1.133057777725    -0.304617336459    12.000000000000
           C          0.077936051468     0.356458777725     0.642102663541    12.000000000000
           H          0.370198051468     1.794473777725    -0.917931336459     1.007825032070
           H          1.673815051468     1.757731777725     0.252901663541     1.007825032070
           C         -1.088429948532    -0.373888222275    -0.032189336459    12.000000000000
           H         -0.318266948532     1.054015777725     1.374717663541     1.007825032070
           H          0.694450051468    -0.356760222275     1.186573663541     1.007825032070
           C         -1.871427948532    -1.306589222275     0.893055663541    12.000000000000
           H         -0.711729948532    -0.935605222275    -0.879543336459     1.007825032070
           H         -1.767442948532     0.374738777725    -0.433128336459     1.007825032070
           H         -2.731290948532    -1.724347222275     0.378567663541     1.007825032070
           H         -1.263878948532    -2.138429222275     1.234160663541     1.007825032070
           H         -2.237363948532    -0.778574222275     1.770187663541     1.007825032070

  Running in c1 symmetry.

  Rotational constants: A =      0.40806  B =      0.07869  C =      0.07365 [cm^-1]
  Rotational constants: A =  12233.29413  B =   2358.97064  C =   2207.98182 [MHz]
  Nuclear repulsion =  188.581530246741437

  Charge       = 0
  Multiplicity = 1
  Electrons    = 42
  Nalpha       = 21
  Nbeta        = 21

  ==> Algorithm <==

  SCF Algorithm Type is DF.
  DIIS enabled.
  MOM disabled.
  Fractional occupation disabled.
  Guess Type is CORE.
  Energy threshold   = 1.00e-06
  Density threshold  = 1.00e-06
  Integral threshold = 0.00e+00

  ==> Primary Basis <==

  Basis Set: 6-31G*
    Number of shells: 50
    Number of basis function: 95
    Number of Cartesian functions: 95
    Spherical Harmonics?: false
    Max angular momentum: 2

  ==> Pre-Iterations <==

   -------------------------------------------------------
    Irrep   Nso     Nmo     Nalpha   Nbeta   Ndocc  Nsocc
   -------------------------------------------------------
     A         95      95       0       0       0       0
   -------------------------------------------------------
    Total      95      95      21      21      21       0
   -------------------------------------------------------

 OEINTS: Overlap, kinetic, potential, dipole, and quadrupole integrals
         stored in file 35.

  ==> Integral Setup <==

  ==> DFJK: Density-Fitted J/K Matrices <==

    J tasked:                  Yes
    K tasked:                  Yes
    wK tasked:                  No
    OpenMP threads:              1
    Integrals threads:           1
    Memory (MB):              1430
    Algorithm:                Core
    Integral Cache:           NONE
    Schwarz Cutoff:          1E-12
    Fitting Condition:       1E-12

   => Auxiliary Basis Set <=

  Basis Set: 
    Number of shells: 210
    Number of basis function: 655
    Number of Cartesian functions: 655
    Spherical Harmonics?: false
    Max angular momentum: 3

  Minimum eigenvalue in the overlap matrix is 4.3152272378E-03.
  Using Symmetric Orthogonalization.
  SCF Guess: Core (One-Electron) Hamiltonian.

  ==> Iterations <==

                           Total Energy        Delta E     RMS |[F,P]|

   @DF-RHF iter   1:  -180.42288579863956   -1.80423e+02   8.16113e-02 
   @DF-RHF iter   2:   -97.62191103627978    8.28010e+01   9.41701e-02 DIIS
   @DF-RHF iter   3:  -197.31176530164581   -9.96899e+01   5.12345e-02 DIIS
   @DF-RHF iter   4:  -176.15598848230732    2.11558e+01   7.53950e-02 DIIS
   @DF-RHF iter   5:  -231.62196359618676   -5.54660e+01   1.04073e-02 DIIS
   @DF-RHF iter   6:  -232.04924618291588   -4.27283e-01   5.05356e-03 DIIS
   @DF-RHF iter   7:  -232.13395996971619   -8.47138e-02   1.13658e-03 DIIS
   @DF-RHF iter   8:  -232.14160290518768   -7.64294e-03   3.48211e-04 DIIS
   @DF-RHF iter   9:  -232.14252490081921   -9.21996e-04   1.03791e-04 DIIS
   @DF-RHF iter  10:  -232.14260181339219   -7.69126e-05   3.53088e-05 DIIS
   @DF-RHF iter  11:  -232.14261216943882   -1.03560e-05   8.79871e-06 DIIS
   @DF-RHF iter  12:  -232.14261278479913   -6.15360e-07   2.08806e-06 DIIS
   @DF-RHF iter  13:  -232.14261281577089   -3.09718e-08   5.03370e-07 DIIS

  ==> Post-Iterations <==

    Orbital Energies (a.u.)
    -----------------------

    Doubly Occupied:                                                      

       1A    -20.552511     2A    -11.269740     3A    -11.214813  
       4A    -11.212945     5A    -11.208866     6A     -1.360672  
       7A     -1.065854     8A     -0.975712     9A     -0.863894  
      10A     -0.797105    11A     -0.683018    12A     -0.646814  
      13A     -0.612910    14A     -0.595721    15A     -0.567481  
      16A     -0.525111    17A     -0.499667    18A     -0.498224  
      19A     -0.467794    20A     -0.454679    21A     -0.426940  

    Virtual:                                                              

      22A      0.221935    23A      0.247517    24A      0.268429  
      25A      0.296193    26A      0.308020    27A      0.323092  
      28A      0.325506    29A      0.337502    30A      0.347842  
      31A      0.356772    32A      0.395744    33A      0.423946  
      34A      0.443850    35A      0.459460    36A      0.700184  
      37A      0.719699    38A      0.752701    39A      0.764101  
      40A      0.819589    41A      0.838847    42A      0.872717  
      43A      0.916893    44A      0.962665    45A      1.007975  
      46A      1.044901    47A      1.081120    48A      1.113830  
      49A      1.141696    50A      1.157658    51A      1.169586  
      52A      1.186368    53A      1.194561    54A      1.204753  
      55A      1.217387    56A      1.236214    57A      1.249479  
      58A      1.270249    59A      1.303130    60A      1.363953  
      61A      1.440694    62A      1.557602    63A      1.651168  
      64A      1.671624    65A      1.768124    66A      1.829555  
      67A      1.879124    68A      1.947557    69A      2.008756  
      70A      2.114268    71A      2.152687    72A      2.194315  
      73A      2.233129    74A      2.276607    75A      2.297012  
      76A      2.361206    77A      2.431582    78A      2.464562  
      79A      2.552648    80A      2.587562    81A      2.645219  
      82A      2.696387    83A      2.718305    84A      2.784740  
      85A      2.831210    86A      2.865178    87A      2.952612  
      88A      3.060822    89A      3.088943    90A      3.212147  
      91A      4.183431    92A      4.570622    93A      4.704988  
      94A      4.813698    95A      4.959921  

    Final Occupation by Irrep:
              A 
    DOCC [    21 ]

  Energy converged.

  @DF-RHF Final Energy:  -232.14261281577089

   => Energetics <=

    Nuclear Repulsion Energy =            188.5815302467414369
    One-Electron Energy =                -688.4474261251783673
    Two-Electron Energy =                 267.7232830626660416
    DFT Exchange-Correlation Energy =       0.0000000000000000
    Empirical Dispersion Energy =           0.0000000000000000
    PCM Polarization Energy =               0.0000000000000000
    EFP Energy =                            0.0000000000000000
    Total Energy =                       -232.1426128157709172

    Alert: EFP and PCM quantities not currently incorporated into SCF psivars.

Properties will be evaluated at   0.000000,   0.000000,   0.000000 Bohr
  ==> Properties <==


Properties computed using the SCF density matrix

  Nuclear Dipole Moment: (a.u.)
     X:    -3.7208      Y:    -1.1238      Z:     3.1615

  Electronic Dipole Moment: (a.u.)
     X:     3.8225      Y:     1.1951      Z:    -2.5106

  Dipole Moment: (a.u.)
     X:     0.1016      Y:     0.0713      Z:     0.6508     Total:     0.6626

  Dipole Moment: (Debye)
     X:     0.2583      Y:     0.1812      Z:     1.6543     Total:     1.6841


  Saving occupied orbitals to File 180.

*** tstop() called on cx1-1-3-3.cx1.hpc.ic.ac.uk at Tue Jul  5 16:32:42 2016
Module time:
	user time   =       4.95 seconds =       0.08 minutes
	system time =       0.04 seconds =       0.00 minutes
	total time  =          5 seconds =       0.08 minutes
Total time:
	user time   =       4.95 seconds =       0.08 minutes
	system time =       0.04 seconds =       0.00 minutes
	total time  =          5 seconds =       0.08 minutes


Properties will be evaluated at   0.000000,   0.000000,   0.000000 Bohr

Properties computed using the  density matrix

  Nuclear Dipole Moment: (a.u.)
     X:    -3.7208      Y:    -1.1238      Z:     3.1615

  Electronic Dipole Moment: (a.u.)
     X:     3.8225      Y:     1.1951      Z:    -2.5106

  Dipole Moment: (a.u.)
     X:     0.1016      Y:     0.0713      Z:     0.6508     Total:     0.6626

  Dipole Moment: (Debye)
     X:     0.2583      Y:     0.1812      Z:     1.6543     Total:     1.6841

  Quadrupole Moment: (Debye Ang)
    XX:   -31.1304     YY:   -31.9940     ZZ:   -37.1685
    XY:    -1.4144     XZ:     3.4073     YZ:     0.4496

  Traceless Quadrupole Moment: (Debye Ang)
    XX:     2.3006     YY:     1.4370     ZZ:    -3.7375
    XY:    -1.4144     XZ:     3.4073     YZ:     0.4496

  Mulliken Charges: (a.u.)
   Center  Symbol    Alpha    Beta     Spin     Total
       1     H     0.28161  0.28161  0.00000  0.43678
       2     O     4.36849  4.36849  0.00000 -0.73697
       3     C     3.00028  3.00028  0.00000 -0.00056
       4     C     3.16036  3.16036  0.00000 -0.32073
       5     H     0.41623  0.41623  0.00000  0.16754
       6     H     0.42698  0.42698  0.00000  0.14603
       7     C     3.15382  3.15382  0.00000 -0.30764
       8     H     0.42590  0.42590  0.00000  0.14820
       9     H     0.42998  0.42998  0.00000  0.14003
      10     C     3.23944  3.23944  0.00000 -0.47888
      11     H     0.40919  0.40919  0.00000  0.18162
      12     H     0.42443  0.42443  0.00000  0.15113
      13     H     0.41842  0.41842  0.00000  0.16315
      14     H     0.42181  0.42181  0.00000  0.15637
      15     H     0.42304  0.42304  0.00000  0.15391

   Total alpha = 21.00000, Total beta = 21.00000, Total charge =  0.00000


*** PSI4 exiting successfully. Buy a developer a beer!
