    -----------------------------------------------------------------------
          Psi4: An Open-Source Ab Initio Electronic Structure Package
                              Psi4 (no tag) Driver

                          Git: Rev {detached?}  

    J. M. Turney, A. C. Simmonett, R. M. Parrish, E. G. Hohenstein,
    F. A. Evangelista, J. T. Fermann, B. J. Mintz, L. A. Burns, J. J. Wilke,
    M. L. Abrams, N. J. Russ, M. L. Leininger, C. L. Janssen, E. T. Seidl,
    W. D. Allen, H. F. Schaefer, R. A. King, E. F. Valeev, C. D. Sherrill,
    and T. D. Crawford, WIREs Comput. Mol. Sci. 2, 556-565 (2012)
    (doi: 10.1002/wcms.93)

                         Additional Contributions by
    A. E. DePrince, M. Saitow, U. Bozkaya, A. Yu. Sokolov
    -----------------------------------------------------------------------


    Psi4 started on: Tue Jul  5 16:26:01 2016

    Process ID:  16423
    PSI4DATADIR: /export131/home/mjharvey/miniconda3/share
    Memory level set to 256.000 MB

  ==> Input File <==

--------------------------------------------------------------------------
set {
	reference rhf
	basis 6-31G*
}


set_num_threads( 1 )
memory 2 gb

molecule MOL {
0 1

H	 2.060325	 -0.324806	 -1.028437
O	 2.064459	 -0.086912	 -0.111827
C	 0.745630	 0.005118	 0.354752
H	 0.739005	 0.037656	 1.444976
C	 -0.064159	 -1.194875	 -0.122754
C	 -0.046302	 1.193543	 -0.190431
H	 0.197384	 -1.376065	 -1.160690
H	 0.162855	 -2.097978	 0.431858
C	 -1.535782	 -0.752177	 0.006642
H	 0.154512	 1.271315	 -1.255561
H	 0.226209	 2.140461	 0.267302
C	 -1.509193	 0.801505	 0.065617
H	 -2.127797	 -1.112194	 -0.826847
H	 -1.986849	 -1.158408	 0.905561
H	 -2.183670	 1.254107	 -0.651985
H	 -1.821727	 1.144320	 1.047089

	symmetry c1
}
ee = energy('scf')
oeprop('DIPOLE', 'QUADRUPOLE', 'MULLIKEN_CHARGES')
f=open( 'psi4out.xyz', 'w' )
f.write( "16  " )
f.write( str(ee) + "\n" )
f.write( MOL.save_string_xyz() )
f.close()
--------------------------------------------------------------------------

  Memory set to   2.000 GiB by Python script.

*** tstart() called on cx1-3-2-2.cx1.hpc.ic.ac.uk
*** at Tue Jul  5 16:26:02 2016


         ---------------------------------------------------------
                                   SCF
            by Justin Turney, Rob Parrish, and Andy Simmonett
                              RHF Reference
                        1 Threads,   2000 MiB Core
         ---------------------------------------------------------

  ==> Geometry <==

    Molecular point group: c1
    Full point group: C1

    Geometry (in Angstrom), charge = 0, multiplicity = 1:

       Center              X                  Y                   Z               Mass       
    ------------   -----------------  -----------------  -----------------  -----------------
           H          2.066278263992    -0.313465555105    -1.013845291445     1.007825032070
           O          2.070412263992    -0.075571555105    -0.097235291445    15.994914619560
           C          0.751583263992     0.016458444895     0.369343708555    12.000000000000
           H          0.744958263992     0.048996444895     1.459567708555     1.007825032070
           C         -0.058205736008    -1.183534555105    -0.108162291445    12.000000000000
           C         -0.040348736008     1.204883444895    -0.175839291445    12.000000000000
           H          0.203337263992    -1.364724555105    -1.146098291445     1.007825032070
           H          0.168808263992    -2.086637555105     0.446449708555     1.007825032070
           C         -1.529828736008    -0.740836555105     0.021233708555    12.000000000000
           H          0.160465263992     1.282655444895    -1.240969291445     1.007825032070
           H          0.232162263992     2.151801444895     0.281893708555     1.007825032070
           C         -1.503239736008     0.812845444895     0.080208708555    12.000000000000
           H         -2.121843736008    -1.100853555105    -0.812255291445     1.007825032070
           H         -1.980895736008    -1.147067555105     0.920152708555     1.007825032070
           H         -2.177716736008     1.265447444895    -0.637393291445     1.007825032070
           H         -1.815773736008     1.155660444895     1.061680708555     1.007825032070

  Running in c1 symmetry.

  Rotational constants: A =      0.21461  B =      0.10268  C =      0.07686 [cm^-1]
  Rotational constants: A =   6433.71749  B =   3078.18855  C =   2304.11986 [MHz]
  Nuclear repulsion =  255.720741028235722

  Charge       = 0
  Multiplicity = 1
  Electrons    = 48
  Nalpha       = 24
  Nbeta        = 24

  ==> Algorithm <==

  SCF Algorithm Type is DF.
  DIIS enabled.
  MOM disabled.
  Fractional occupation disabled.
  Guess Type is CORE.
  Energy threshold   = 1.00e-06
  Density threshold  = 1.00e-06
  Integral threshold = 0.00e+00

  ==> Primary Basis <==

  Basis Set: 6-31G*
    Number of shells: 56
    Number of basis function: 110
    Number of Cartesian functions: 110
    Spherical Harmonics?: false
    Max angular momentum: 2

  ==> Pre-Iterations <==

   -------------------------------------------------------
    Irrep   Nso     Nmo     Nalpha   Nbeta   Ndocc  Nsocc
   -------------------------------------------------------
     A        110     110       0       0       0       0
   -------------------------------------------------------
    Total     110     110      24      24      24       0
   -------------------------------------------------------

 OEINTS: Overlap, kinetic, potential, dipole, and quadrupole integrals
         stored in file 35.

  ==> Integral Setup <==

  ==> DFJK: Density-Fitted J/K Matrices <==

    J tasked:                  Yes
    K tasked:                  Yes
    wK tasked:                  No
    OpenMP threads:              1
    Integrals threads:           1
    Memory (MB):              1430
    Algorithm:                Core
    Integral Cache:           NONE
    Schwarz Cutoff:          1E-12
    Fitting Condition:       1E-12

   => Auxiliary Basis Set <=

  Basis Set: 
    Number of shells: 234
    Number of basis function: 736
    Number of Cartesian functions: 736
    Spherical Harmonics?: false
    Max angular momentum: 3

  Minimum eigenvalue in the overlap matrix is 2.9115243816E-03.
  Using Symmetric Orthogonalization.
  SCF Guess: Core (One-Electron) Hamiltonian.

  ==> Iterations <==

                           Total Energy        Delta E     RMS |[F,P]|

   @DF-RHF iter   1:  -217.16631622730355   -2.17166e+02   7.20468e-02 
   @DF-RHF iter   2:  -187.01529223833629    3.01510e+01   6.35281e-02 DIIS
   @DF-RHF iter   3:  -216.14679105389089   -2.91315e+01   6.71811e-02 DIIS
   @DF-RHF iter   4:  -269.06531043632060   -5.29185e+01   1.19629e-02 DIIS
   @DF-RHF iter   5:  -269.91374994820330   -8.48440e-01   4.21760e-03 DIIS
   @DF-RHF iter   6:  -270.00746486145454   -9.37149e-02   6.48315e-04 DIIS
   @DF-RHF iter   7:  -270.01121854403027   -3.75368e-03   2.61219e-04 DIIS
   @DF-RHF iter   8:  -270.01170568005455   -4.87136e-04   8.23539e-05 DIIS
   @DF-RHF iter   9:  -270.01176274372995   -5.70637e-05   2.30477e-05 DIIS
   @DF-RHF iter  10:  -270.01176773619341   -4.99246e-06   6.81703e-06 DIIS
   @DF-RHF iter  11:  -270.01176818197166   -4.45778e-07   1.92160e-06 DIIS
   @DF-RHF iter  12:  -270.01176822642708   -4.44554e-08   3.82945e-07 DIIS

  ==> Post-Iterations <==

    Orbital Energies (a.u.)
    -----------------------

    Doubly Occupied:                                                      

       1A    -20.549982     2A    -11.270073     3A    -11.218856  
       4A    -11.218305     5A    -11.214769     6A    -11.212695  
       7A     -1.361318     8A     -1.115525     9A     -0.969411  
      10A     -0.948998    11A     -0.802370    12A     -0.784216  
      13A     -0.680088    14A     -0.664698    15A     -0.606292  
      16A     -0.586921    17A     -0.582080    18A     -0.548210  
      19A     -0.503441    20A     -0.484362    21A     -0.472966  
      22A     -0.461095    23A     -0.453875    24A     -0.410529  

    Virtual:                                                              

      25A      0.218073    26A      0.230571    27A      0.246463  
      28A      0.288493    29A      0.307810    30A      0.321663  
      31A      0.329979    32A      0.338534    33A      0.353016  
      34A      0.360592    35A      0.377513    36A      0.407642  
      37A      0.433730    38A      0.485963    39A      0.493487  
      40A      0.502468    41A      0.719477    42A      0.741001  
      43A      0.761340    44A      0.795058    45A      0.808334  
      46A      0.826705    47A      0.906528    48A      0.920443  
      49A      0.933519    50A      0.940133    51A      0.946515  
      52A      0.978834    53A      1.020802    54A      1.057267  
      55A      1.117612    56A      1.136193    57A      1.144286  
      58A      1.147321    59A      1.157692    60A      1.170906  
      61A      1.190197    62A      1.216735    63A      1.223402  
      64A      1.232468    65A      1.253354    66A      1.307649  
      67A      1.318025    68A      1.449282    69A      1.479824  
      70A      1.535861    71A      1.567216    72A      1.638804  
      73A      1.758082    74A      1.880170    75A      1.946039  
      76A      1.992331    77A      2.006604    78A      2.077273  
      79A      2.094719    80A      2.104389    81A      2.139454  
      82A      2.232541    83A      2.259043    84A      2.271918  
      85A      2.308251    86A      2.339004    87A      2.362273  
      88A      2.422667    89A      2.453964    90A      2.475688  
      91A      2.519706    92A      2.572249    93A      2.702602  
      94A      2.724836    95A      2.730729    96A      2.759430  
      97A      2.852904    98A      2.926390    99A      2.961420  
     100A      2.986788   101A      3.007006   102A      3.060495  
     103A      3.238158   104A      3.288081   105A      4.253580  
     106A      4.612838   107A      4.714015   108A      4.728741  
     109A      5.019736   110A      5.051742  

    Final Occupation by Irrep:
              A 
    DOCC [    24 ]

  Energy converged.

  @DF-RHF Final Energy:  -270.01176822642708

   => Energetics <=

    Nuclear Repulsion Energy =            255.7207410282357216
    One-Electron Energy =                -873.2229450583545258
    Two-Electron Energy =                 347.4904358036915255
    DFT Exchange-Correlation Energy =       0.0000000000000000
    Empirical Dispersion Energy =           0.0000000000000000
    PCM Polarization Energy =               0.0000000000000000
    EFP Energy =                            0.0000000000000000
    Total Energy =                       -270.0117682264273071

    Alert: EFP and PCM quantities not currently incorporated into SCF psivars.

Properties will be evaluated at   0.000000,   0.000000,   0.000000 Bohr
  ==> Properties <==


Properties computed using the SCF density matrix

  Nuclear Dipole Moment: (a.u.)
     X:    -4.2276      Y:    -0.1018      Z:    -0.6387

  Electronic Dipole Moment: (a.u.)
     X:     3.6069      Y:    -0.0130      Z:     0.2813

  Dipole Moment: (a.u.)
     X:    -0.6207      Y:    -0.1148      Z:    -0.3574     Total:     0.7254

  Dipole Moment: (Debye)
     X:    -1.5778      Y:    -0.2917      Z:    -0.9084     Total:     1.8438


  Saving occupied orbitals to File 180.

*** tstop() called on cx1-3-2-2.cx1.hpc.ic.ac.uk at Tue Jul  5 16:26:09 2016
Module time:
	user time   =       6.86 seconds =       0.11 minutes
	system time =       0.04 seconds =       0.00 minutes
	total time  =          7 seconds =       0.12 minutes
Total time:
	user time   =       6.86 seconds =       0.11 minutes
	system time =       0.04 seconds =       0.00 minutes
	total time  =          7 seconds =       0.12 minutes


Properties will be evaluated at   0.000000,   0.000000,   0.000000 Bohr

Properties computed using the  density matrix

  Nuclear Dipole Moment: (a.u.)
     X:    -4.2276      Y:    -0.1018      Z:    -0.6387

  Electronic Dipole Moment: (a.u.)
     X:     3.6069      Y:    -0.0130      Z:     0.2813

  Dipole Moment: (a.u.)
     X:    -0.6207      Y:    -0.1148      Z:    -0.3574     Total:     0.7254

  Dipole Moment: (Debye)
     X:    -1.5778      Y:    -0.2917      Z:    -0.9084     Total:     1.8438

  Quadrupole Moment: (Debye Ang)
    XX:   -43.8504     YY:   -38.5225     ZZ:   -35.1853
    XY:    -0.7421     XZ:    -2.7638     YZ:     0.6512

  Traceless Quadrupole Moment: (Debye Ang)
    XX:    -4.6643     YY:     0.6636     ZZ:     4.0008
    XY:    -0.7421     XZ:    -2.7638     YZ:     0.6512

  Mulliken Charges: (a.u.)
   Center  Symbol    Alpha    Beta     Spin     Total
       1     H     0.28285  0.28285  0.00000  0.43429
       2     O     4.37681  4.37681  0.00000 -0.75362
       3     C     2.90805  2.90805  0.00000  0.18391
       4     H     0.41485  0.41485  0.00000  0.17029
       5     C     3.17206  3.17206  0.00000 -0.34413
       6     C     3.16705  3.16705  0.00000 -0.33411
       7     H     0.42946  0.42946  0.00000  0.14108
       8     H     0.40978  0.40978  0.00000  0.18045
       9     C     3.16919  3.16919  0.00000 -0.33839
      10     H     0.42634  0.42634  0.00000  0.14732
      11     H     0.41182  0.41182  0.00000  0.17637
      12     C     3.17047  3.17047  0.00000 -0.34093
      13     H     0.41526  0.41526  0.00000  0.16949
      14     H     0.41545  0.41545  0.00000  0.16911
      15     H     0.41406  0.41406  0.00000  0.17189
      16     H     0.41651  0.41651  0.00000  0.16699

   Total alpha = 24.00000, Total beta = 24.00000, Total charge =  0.00000


*** PSI4 exiting successfully. Buy a developer a beer!
