
    -----------------------------------------------------------------------
          Psi4: An Open-Source Ab Initio Electronic Structure Package
                               Psi4 1.1 release

                         Git: Rev {HEAD} add49b9 


    R. M. Parrish, L. A. Burns, D. G. A. Smith, A. C. Simmonett,
    A. E. DePrince III, E. G. Hohenstein, U. Bozkaya, A. Yu. Sokolov,
    R. Di Remigio, R. M. Richard, J. F. Gonthier, A. M. James,
    H. R. McAlexander, A. Kumar, M. Saitow, X. Wang, B. P. Pritchard,
    P. Verma, H. F. Schaefer III, K. Patkowski, R. A. King, E. F. Valeev,
    F. A. Evangelista, J. M. Turney, T. D. Crawford, and C. D. Sherrill,
    J. Chem. Theory Comput. in press (2017).
    (doi: 10.1021/acs.jctc.7b00174)

    -----------------------------------------------------------------------


    Psi4 started on: Friday, 11 August 2017 02:01PM

    Process ID:   6927
    PSIDATADIR: /home/raimis/opt/miniconda3/envs/htmd/share/psi4
    Memory:     500.0 MiB
    Threads:    1
    
  ==> Input File <==

--------------------------------------------------------------------------
set {
	reference rks
	basis cc-pvdz
}


set_num_threads( 8 )
memory 2 gb

molecule MOL {
0 1

O	 1.014300	 -0.002300	 0.060500
O	 2.462400	 -0.107500	 -0.002400
H	 0.832155	 -0.961336	 0.051967
H	 2.655500	 0.713700	 0.488700

	symmetry c1
}
set optking { dynamic_level = 1 }
set optking {
	frozen_dihedral = ("
		3 1 2 4
	")
}

ee,wfn = optimize('b3lyp-d3', return_wfn=True)
oeprop( wfn, 'DIPOLE', 'QUADRUPOLE', 'MULLIKEN_CHARGES')
f=open( 'psi4out.xyz', 'w' )
f.write( "4  " )
f.write( str(ee) + "\n" )
f.write( MOL.save_string_xyz() )
f.close()
--------------------------------------------------------------------------
  Threads set to 8 by Python driver.

  Memory set to   1.863 GiB by Python driver.
gradient() will perform analytic gradient computation.

*** tstart() called on computer03
*** at Fri Aug 11 14:01:50 2017

   => Loading Basis Set <=

    Name: CC-PVDZ
    Role: ORBITAL
    Keyword: BASIS
    atoms 1-2 entry O          line   190 file /home/raimis/opt/miniconda3/envs/htmd/share/psi4/basis/cc-pvdz.gbs 
    atoms 3-4 entry H          line    20 file /home/raimis/opt/miniconda3/envs/htmd/share/psi4/basis/cc-pvdz.gbs 


         ---------------------------------------------------------
                                   SCF
            by Justin Turney, Rob Parrish, and Andy Simmonett
                              RKS Reference
                        8 Threads,   1907 MiB Core
         ---------------------------------------------------------

  ==> Geometry <==

    Molecular point group: c1
    Full point group: C1

    Geometry (in Angstrom), charge = 0, multiplicity = 1:

       Center              X                  Y                   Z               Mass       
    ------------   -----------------  -----------------  -----------------  -----------------
           O         -0.724374674830     0.056685064347     0.017148095948    15.994914619560
           O          0.723725325170    -0.048514935653    -0.045751904052    15.994914619560
           H         -0.906519674830    -0.902350935653     0.008615095948     1.007825032070
           H          0.916825325170     0.772685064347     0.445348095948     1.007825032070

  Running in c1 symmetry.

  Rotational constants: A =      9.69978  B =      0.90745  C =      0.83969 [cm^-1]
  Rotational constants: A = 290791.97846  B =  27204.55450  C =  25173.25198 [MHz]
  Nuclear repulsion =   36.786872082815648

  Charge       = 0
  Multiplicity = 1
  Electrons    = 18
  Nalpha       = 9
  Nbeta        = 9

  ==> Algorithm <==

  SCF Algorithm Type is DF.
  DIIS enabled.
  MOM disabled.
  Fractional occupation disabled.
  Guess Type is SAD.
  Energy threshold   = 1.00e-08
  Density threshold  = 1.00e-08
  Integral threshold = 0.00e+00

  ==> Primary Basis <==

  Basis Set: CC-PVDZ
    Blend: CC-PVDZ
    Number of shells: 18
    Number of basis function: 38
    Number of Cartesian functions: 40
    Spherical Harmonics?: true
    Max angular momentum: 2

  ==> DFT Potential <==

   => B3LYP Composite Functional <= 

    B3LYP Hybrid-GGA Exchange-Correlation Functional (VWN1-RPA)

    P.J. Stephens et. al., J. Phys. Chem., 98, 11623-11627, 1994

    Points   =           5000
    Deriv    =              1
    GGA      =           TRUE
    Meta     =          FALSE

    X_LRC        =          FALSE
    X_Hybrid     =           TRUE
    X_Alpha      =   2.000000E-01
    X_Omega      =   0.000000E+00
    C_LRC        =          FALSE
    C_Hybrid     =          FALSE
    C_Alpha      =   0.000000E+00
    C_Omega      =   0.000000E+00

   => Exchange Functionals <=

    0.8000    B3_X
    0.2000      HF 

   => Correlation Functionals <=

    0.1900 VWN3RPA_C
    0.8100   LYP_C

   => Molecular Quadrature <=

    Radial Scheme    =       TREUTLER
    Pruning Scheme   =           FLAT
    Nuclear Scheme   =       TREUTLER

    BS radius alpha  =              1
    Pruning alpha    =              1
    Radial Points    =             75
    Spherical Points =            302
    Total Points     =          88340
    Total Blocks     =             88
    Max Points       =           4704
    Max Functions    =             38

   => -D3ZERO: Empirical Dispersion <=

    Grimme's -D3 (zero-damping) Dispersion Correction
    Grimme S.; Antony J.; Ehrlich S.; Krieg H. (2010), J. Chem. Phys., 132: 154104

        S6 =   1.000000E+00
        S8 =   1.703000E+00
       SR6 =   1.261000E+00
    ALPHA6 =   1.400000E+01

   => Loading Basis Set <=

    Name: (CC-PVDZ AUX)
    Role: JKFIT
    Keyword: DF_BASIS_SCF
    atoms 1-2 entry O          line   220 file /home/raimis/opt/miniconda3/envs/htmd/share/psi4/basis/cc-pvdz-jkfit.gbs 
    atoms 3-4 entry H          line    50 file /home/raimis/opt/miniconda3/envs/htmd/share/psi4/basis/cc-pvdz-jkfit.gbs 

  ==> Pre-Iterations <==

   -------------------------------------------------------
    Irrep   Nso     Nmo     Nalpha   Nbeta   Ndocc  Nsocc
   -------------------------------------------------------
     A         38      38       0       0       0       0
   -------------------------------------------------------
    Total      38      38       9       9       9       0
   -------------------------------------------------------

  ==> Integral Setup <==

  ==> DFJK: Density-Fitted J/K Matrices <==

    J tasked:                  Yes
    K tasked:                  Yes
    wK tasked:                  No
    OpenMP threads:              8
    Integrals threads:           8
    Memory (MB):              1430
    Algorithm:                Core
    Integral Cache:           NONE
    Schwarz Cutoff:          1E-12
    Fitting Condition:       1E-12

   => Auxiliary Basis Set <=

  Basis Set: (CC-PVDZ AUX)
    Blend: CC-PVDZ-JKFIT
    Number of shells: 66
    Number of basis function: 186
    Number of Cartesian functions: 212
    Spherical Harmonics?: true
    Max angular momentum: 3

  Minimum eigenvalue in the overlap matrix is 2.4279497630E-02.
  Using Symmetric Orthogonalization.

  SCF Guess: Superposition of Atomic Densities via on-the-fly atomic UHF.

  ==> Iterations <==

                           Total Energy        Delta E     RMS |[F,P]|

   @DF-RKS iter   0:  -151.76013192038147   -1.51760e+02   9.41978e-02 
   @DF-RKS iter   1:  -151.53184534448218    2.28287e-01   1.07719e-02 
   @DF-RKS iter   2:  -151.54428081341541   -1.24355e-02   6.01225e-03 DIIS
   @DF-RKS iter   3:  -151.54951779865988   -5.23699e-03   1.46350e-03 DIIS
   @DF-RKS iter   4:  -151.55003463519495   -5.16837e-04   2.16620e-04 DIIS
   @DF-RKS iter   5:  -151.55004759077360   -1.29556e-05   2.98172e-05 DIIS
   @DF-RKS iter   6:  -151.55004763450421   -4.37306e-08   2.43791e-05 DIIS
   @DF-RKS iter   7:  -151.55004770743767   -7.29335e-08   2.07758e-06 DIIS
   @DF-RKS iter   8:  -151.55004770827389   -8.36224e-10   1.30963e-07 DIIS
   @DF-RKS iter   9:  -151.55004770827694   -3.04112e-12   1.35019e-08 DIIS
   @DF-RKS iter  10:  -151.55004770827708   -1.42109e-13   2.96700e-09 DIIS

  ==> Post-Iterations <==

    Orbital Energies (a.u.)
    -----------------------

    Doubly Occupied:                                                      

       1A    -19.185959     2A    -19.185918     3A     -1.109969  
       4A     -0.886391     5A     -0.500623     6A     -0.498253  
       7A     -0.399234     8A     -0.343171     9A     -0.247982  

    Virtual:                                                              

      10A      0.026325    11A      0.051653    12A      0.104960  
      13A      0.573164    14A      0.579288    15A      0.844814  
      16A      0.858176    17A      0.870947    18A      0.964965  
      19A      1.008984    20A      1.068822    21A      1.229467  
      22A      1.306484    23A      1.351001    24A      1.463610  
      25A      1.657171    26A      1.772615    27A      2.050907  
      28A      2.097969    29A      2.327279    30A      2.392240  
      31A      2.633748    32A      2.875748    33A      2.918716  
      34A      3.006591    35A      3.160951    36A      3.511996  
      37A      3.513663    38A      3.837402  

    Final Occupation by Irrep:
              A 
    DOCC [     9 ]

  Energy converged.

  @DF-RKS Final Energy:  -151.55004770827708

   => Energetics <=

    Nuclear Repulsion Energy =             36.7868720828156484
    One-Electron Energy =                -281.5738476251527800
    Two-Electron Energy =                 107.7003246849164526
    DFT Exchange-Correlation Energy =     -14.4630728908564059
    Empirical Dispersion Energy =          -0.0003239600000000
    PCM Polarization Energy =               0.0000000000000000
    EFP Energy =                            0.0000000000000000
    Total Energy =                       -151.5500477082771056



Properties will be evaluated at   0.000000,   0.000000,   0.000000 Bohr

Properties computed using the SCF density matrix

  Nuclear Dipole Moment: (a.u.)
     X:     0.0097      Y:    -0.1215      Z:     0.4254

  Electronic Dipole Moment: (a.u.)
     X:    -0.0022      Y:     0.0271      Z:    -0.0948

  Dipole Moment: (a.u.)
     X:     0.0075      Y:    -0.0944      Z:     0.3306     Total:     0.3439

  Dipole Moment: (Debye)
     X:     0.0191      Y:    -0.2399      Z:     0.8403     Total:     0.8741


*** tstop() called on computer03 at Fri Aug 11 14:01:56 2017
Module time:
	user time   =      18.98 seconds =       0.32 minutes
	system time =       0.66 seconds =       0.01 minutes
	total time  =          6 seconds =       0.10 minutes
Total time:
	user time   =      18.98 seconds =       0.32 minutes
	system time =       0.66 seconds =       0.01 minutes
	total time  =          6 seconds =       0.10 minutes

*** tstart() called on computer03
*** at Fri Aug 11 14:01:56 2017


         ------------------------------------------------------------
                                   SCF GRAD                          
                          Rob Parrish, Justin Turney,                
                       Andy Simmonett, and Alex Sokolov              
         ------------------------------------------------------------

  ==> Geometry <==

    Molecular point group: c1
    Full point group: C1

    Geometry (in Angstrom), charge = 0, multiplicity = 1:

       Center              X                  Y                   Z               Mass       
    ------------   -----------------  -----------------  -----------------  -----------------
           O         -0.724374674830     0.056685064347     0.017148095948    15.994914619560
           O          0.723725325170    -0.048514935653    -0.045751904052    15.994914619560
           H         -0.906519674830    -0.902350935653     0.008615095948     1.007825032070
           H          0.916825325170     0.772685064347     0.445348095948     1.007825032070

  Nuclear repulsion =   36.786872082815648

  ==> Basis Set <==

  Basis Set: CC-PVDZ
    Blend: CC-PVDZ
    Number of shells: 18
    Number of basis function: 38
    Number of Cartesian functions: 40
    Spherical Harmonics?: true
    Max angular momentum: 2

  ==> DFJKGrad: Density-Fitted SCF Gradients <==

    Gradient:                    1
    J tasked:                  Yes
    K tasked:                  Yes
    wK tasked:                  No
    OpenMP threads:              8
    Integrals threads:           8
    Memory (MB):              1430
    Schwarz Cutoff:          0E+00
    Fitting Condition:       1E-12

   => Auxiliary Basis Set <=

  Basis Set: (CC-PVDZ AUX)
    Blend: CC-PVDZ-JKFIT
    Number of shells: 66
    Number of basis function: 186
    Number of Cartesian functions: 212
    Spherical Harmonics?: true
    Max angular momentum: 3

  ==> DFT Potential <==

   => B3LYP Composite Functional <= 

    B3LYP Hybrid-GGA Exchange-Correlation Functional (VWN1-RPA)

    P.J. Stephens et. al., J. Phys. Chem., 98, 11623-11627, 1994

    Points   =           5000
    Deriv    =              1
    GGA      =           TRUE
    Meta     =          FALSE

    X_LRC        =          FALSE
    X_Hybrid     =           TRUE
    X_Alpha      =   2.000000E-01
    X_Omega      =   0.000000E+00
    C_LRC        =          FALSE
    C_Hybrid     =          FALSE
    C_Alpha      =   0.000000E+00
    C_Omega      =   0.000000E+00

   => Exchange Functionals <=

    0.8000    B3_X
    0.2000      HF 

   => Correlation Functionals <=

    0.1900 VWN3RPA_C
    0.8100   LYP_C

   => Molecular Quadrature <=

    Radial Scheme    =       TREUTLER
    Pruning Scheme   =           FLAT
    Nuclear Scheme   =       TREUTLER

    BS radius alpha  =              1
    Pruning alpha    =              1
    Radial Points    =             75
    Spherical Points =            302
    Total Points     =          88340
    Total Blocks     =             88
    Max Points       =           4704
    Max Functions    =             38


  -Total Gradient:
     Atom            X                  Y                   Z
    ------   -----------------  -----------------  -----------------
       1        0.005387093154     0.011247556389     0.002481660114
       2       -0.005398989754    -0.010862583132    -0.003563410873
       3        0.004799484714    -0.004883649539    -0.000897473975
       4       -0.004787614078     0.004499091400     0.001977767763


*** tstop() called on computer03 at Fri Aug 11 14:01:57 2017
Module time:
	user time   =       5.08 seconds =       0.08 minutes
	system time =       0.23 seconds =       0.00 minutes
	total time  =          1 seconds =       0.02 minutes
Total time:
	user time   =      24.11 seconds =       0.40 minutes
	system time =       0.89 seconds =       0.01 minutes
	total time  =          7 seconds =       0.12 minutes

			-----------------------------------------
			 OPTKING 2.0: for geometry optimizations 
			  - R.A. King,  Bethel University        
			-----------------------------------------
	At level 1: Red. Int., RFO, no backsteps, dynamic trust

	Internal coordinates to be generated automatically.
	Detected frag 1 with atoms:  1 2 3 4
	---Fragment 1 Bond Connectivity---
	 1 : 2 3
	 2 : 1 4
	 3 : 1
	 4 : 2

	Assuming in current code that numbering for constraints corresponds to unified fragment.
	Frozen dihedral atom list: 
	     3     1     2     4
	---Fragment 1 Geometry and Gradient---
	 O          -1.3688697530        0.1071192474        0.0324052050
	 O           1.3676426600       -0.0916799417       -0.0864585687
	 H          -1.7130739195       -1.7051961441        0.0162801719
	 H           1.7325487763        1.4601631586        0.8415859351
	             0.0053870932        0.0112475564        0.0024816601
	            -0.0053989898       -0.0108625831       -0.0035634109
	             0.0047994847       -0.0048836495       -0.0008974740
	            -0.0047876141        0.0044990914        0.0019777678

	Previous optimization step data not found.  Starting new optimization.

	---Fragment 1 Intrafragment Coordinates---
	 - Coordinate -           - BOHR/RAD -       - ANG/DEG -
	 R(1,2)           =         2.746297	       1.453278
	 R(1,3)           =         1.844783	       0.976217
	 R(2,4)           =         1.844625	       0.976133
	 B(1,2,4)         =         1.685490	      96.571484
	 B(2,1,3)         =         1.685473	      96.570478
	*D(3,1,2,4)       =        -2.617994	    -150.000018

	Current energy   :      -151.5500477083

	Generating empirical Hessian (Schlegel '84) for each fragment.
	Taking RFO optimization step.
	Going to follow RFO solution 1.
	Using RFO vector 1.
	Norm of target step-size    0.09532
	Projected energy change by RFO approximation:        -0.0005283912

	Back-transformation to cartesian coordinates...
	Successfully converged to displaced geometry.

	Back-transformation to cartesian coordinates to adjust frozen coordinates...
	Successfully converged to displaced geometry.

	--- Internal Coordinate Step in ANG or DEG, aJ/ANG or AJ/DEG ---
	 ---------------------------------------------------------------------------
	   Coordinate                Previous        Force       Change         New 
	   ----------                --------       ------       ------       ------
	    1 R(1,2)          =      1.453278     0.079254     0.013402     1.466680
	    2 R(1,3)          =      0.976217    -0.032206    -0.003956     0.972261
	    3 R(2,4)          =      0.976133    -0.031571    -0.003877     0.972257
	    4 B(1,2,4)        =     96.571484     0.000794     3.696508   100.267992
	    5 B(2,1,3)        =     96.570478     0.000794     3.697921   100.268400
	    6 *D(3,1,2,4)     =   -150.000018    -0.000000     0.000000  -150.000018
	 ---------------------------------------------------------------------------
	Successfully symmetrized geometry.

  ==> Convergence Check <==

  Measures of convergence in internal coordinates in au.
  Criteria marked as inactive (o), active & met (*), and active & unmet ( ).
  --------------------------------------------------------------------------------------------- ~
   Step     Total Energy     Delta E     MAX Force     RMS Force      MAX Disp      RMS Disp    ~
  --------------------------------------------------------------------------------------------- ~
    Convergence Criteria    1.00e-06 *    3.00e-04 *             o    1.20e-03 *             o  ~
  --------------------------------------------------------------------------------------------- ~
      1    -151.55004771   -1.52e+02      1.04e-02      7.53e-03 o    6.45e-02      3.89e-02 o  ~
  ---------------------------------------------------------------------------------------------

	Writing optimization data to binary file.
	Structure for next step:
	Cartesian Geometry (in Angstrom)
	    O    -0.7326407193   0.0323768689   0.0121643055
	    O     0.7320670990  -0.0251729290  -0.0375255012
	    H    -0.9437669594  -0.9166458877   0.0036148633
	    H     0.9539968804   0.7879462051   0.4471057163
			--------------------------
			 OPTKING Finished Execution 
			--------------------------

    Structure for next step:
    Molecular point group: c1
    Full point group: C1

    Geometry (in Angstrom), charge = 0, multiplicity = 1:

    O           -0.732674095209     0.032802693173     0.010735202764
    O            0.732033723151    -0.024747104746    -0.038954603888
    H           -0.943800335260    -0.916220063480     0.002185760572
    H            0.953963504521     0.788372029349     0.445676613592

gradient() will perform analytic gradient computation.

*** tstart() called on computer03
*** at Fri Aug 11 14:01:58 2017

   => Loading Basis Set <=

    Name: CC-PVDZ
    Role: ORBITAL
    Keyword: BASIS
    atoms 1-2 entry O          line   190 file /home/raimis/opt/miniconda3/envs/htmd/share/psi4/basis/cc-pvdz.gbs 
    atoms 3-4 entry H          line    20 file /home/raimis/opt/miniconda3/envs/htmd/share/psi4/basis/cc-pvdz.gbs 


         ---------------------------------------------------------
                                   SCF
            by Justin Turney, Rob Parrish, and Andy Simmonett
                              RKS Reference
                        8 Threads,   1907 MiB Core
         ---------------------------------------------------------

  ==> Geometry <==

    Molecular point group: c1
    Full point group: C1

    Geometry (in Angstrom), charge = 0, multiplicity = 1:

       Center              X                  Y                   Z               Mass       
    ------------   -----------------  -----------------  -----------------  -----------------
           O         -0.732674095209     0.032802693173     0.010735202764    15.994914619560
           O          0.732033723151    -0.024747104746    -0.038954603888    15.994914619560
           H         -0.943800335260    -0.916220063480     0.002185760572     1.007825032070
           H          0.953963504521     0.788372029349     0.445676613592     1.007825032070

  Running in c1 symmetry.

  Rotational constants: A =     10.07816  B =      0.88068  C =      0.81905 [cm^-1]
  Rotational constants: A = 302135.74934  B =  26402.00120  C =  24554.56886 [MHz]
  Nuclear repulsion =   36.463386725919733

  Charge       = 0
  Multiplicity = 1
  Electrons    = 18
  Nalpha       = 9
  Nbeta        = 9

  ==> Algorithm <==

  SCF Algorithm Type is DF.
  DIIS enabled.
  MOM disabled.
  Fractional occupation disabled.
  Guess Type is READ.
  Energy threshold   = 1.00e-08
  Density threshold  = 1.00e-08
  Integral threshold = 0.00e+00

  ==> Primary Basis <==

  Basis Set: CC-PVDZ
    Blend: CC-PVDZ
    Number of shells: 18
    Number of basis function: 38
    Number of Cartesian functions: 40
    Spherical Harmonics?: true
    Max angular momentum: 2

  ==> DFT Potential <==

   => B3LYP Composite Functional <= 

    B3LYP Hybrid-GGA Exchange-Correlation Functional (VWN1-RPA)

    P.J. Stephens et. al., J. Phys. Chem., 98, 11623-11627, 1994

    Points   =           5000
    Deriv    =              1
    GGA      =           TRUE
    Meta     =          FALSE

    X_LRC        =          FALSE
    X_Hybrid     =           TRUE
    X_Alpha      =   2.000000E-01
    X_Omega      =   0.000000E+00
    C_LRC        =          FALSE
    C_Hybrid     =          FALSE
    C_Alpha      =   0.000000E+00
    C_Omega      =   0.000000E+00

   => Exchange Functionals <=

    0.8000    B3_X
    0.2000      HF 

   => Correlation Functionals <=

    0.1900 VWN3RPA_C
    0.8100   LYP_C

   => Molecular Quadrature <=

    Radial Scheme    =       TREUTLER
    Pruning Scheme   =           FLAT
    Nuclear Scheme   =       TREUTLER

    BS radius alpha  =              1
    Pruning alpha    =              1
    Radial Points    =             75
    Spherical Points =            302
    Total Points     =          88340
    Total Blocks     =             89
    Max Points       =           4715
    Max Functions    =             38

   => -D3ZERO: Empirical Dispersion <=

    Grimme's -D3 (zero-damping) Dispersion Correction
    Grimme S.; Antony J.; Ehrlich S.; Krieg H. (2010), J. Chem. Phys., 132: 154104

        S6 =   1.000000E+00
        S8 =   1.703000E+00
       SR6 =   1.261000E+00
    ALPHA6 =   1.400000E+01

   => Loading Basis Set <=

    Name: (CC-PVDZ AUX)
    Role: JKFIT
    Keyword: DF_BASIS_SCF
    atoms 1-2 entry O          line   220 file /home/raimis/opt/miniconda3/envs/htmd/share/psi4/basis/cc-pvdz-jkfit.gbs 
    atoms 3-4 entry H          line    50 file /home/raimis/opt/miniconda3/envs/htmd/share/psi4/basis/cc-pvdz-jkfit.gbs 

  Reading orbitals from file 180, no projection.

  ==> Pre-Iterations <==

   -------------------------------------------------------
    Irrep   Nso     Nmo     Nalpha   Nbeta   Ndocc  Nsocc
   -------------------------------------------------------
     A         38      38       0       0       0       0
   -------------------------------------------------------
    Total      38      38       9       9       9       0
   -------------------------------------------------------

  ==> Integral Setup <==

  ==> DFJK: Density-Fitted J/K Matrices <==

    J tasked:                  Yes
    K tasked:                  Yes
    wK tasked:                  No
    OpenMP threads:              8
    Integrals threads:           8
    Memory (MB):              1430
    Algorithm:                Core
    Integral Cache:           NONE
    Schwarz Cutoff:          1E-12
    Fitting Condition:       1E-12

   => Auxiliary Basis Set <=

  Basis Set: (CC-PVDZ AUX)
    Blend: CC-PVDZ-JKFIT
    Number of shells: 66
    Number of basis function: 186
    Number of Cartesian functions: 212
    Spherical Harmonics?: true
    Max angular momentum: 3

  Minimum eigenvalue in the overlap matrix is 2.5379853831E-02.
  Using Symmetric Orthogonalization.

  SCF Guess: Orbitals guess was supplied from a previous computation.

  ==> Iterations <==

                           Total Energy        Delta E     RMS |[F,P]|

   @DF-RKS iter   0:  -151.55141573638056   -1.51551e+02   1.71059e-03 
   @DF-RKS iter   1:  -151.55021659209007    1.19914e-03   4.11544e-04 
   @DF-RKS iter   2:  -151.55024150284891   -2.49108e-05   2.27219e-04 DIIS
   @DF-RKS iter   3:  -151.55024796442274   -6.46157e-06   3.87262e-05 DIIS
   @DF-RKS iter   4:  -151.55024836941720   -4.04994e-07   1.45392e-05 DIIS
   @DF-RKS iter   5:  -151.55024841081138   -4.13942e-08   3.71534e-06 DIIS
   @DF-RKS iter   6:  -151.55024841149165   -6.80274e-10   3.51697e-06 DIIS
   @DF-RKS iter   7:  -151.55024841327770   -1.78605e-09   2.80705e-07 DIIS
   @DF-RKS iter   8:  -151.55024841330001   -2.23110e-11   2.20678e-08 DIIS
   @DF-RKS iter   9:  -151.55024841330007   -5.68434e-14   4.16093e-09 DIIS

  ==> Post-Iterations <==

    Orbital Energies (a.u.)
    -----------------------

    Doubly Occupied:                                                      

       1A    -19.185991     2A    -19.185954     3A     -1.101057  
       4A     -0.892065     5A     -0.507310     6A     -0.491395  
       7A     -0.393842     8A     -0.339432     9A     -0.249764  

    Virtual:                                                              

      10A      0.015737    11A      0.054869    12A      0.105541  
      13A      0.573571    14A      0.581045    15A      0.843886  
      16A      0.870577    17A      0.872267    18A      0.969661  
      19A      1.007582    20A      1.068945    21A      1.253169  
      22A      1.297972    23A      1.354050    24A      1.464115  
      25A      1.627763    26A      1.782350    27A      2.058510  
      28A      2.102366    29A      2.339864    30A      2.378604  
      31A      2.626427    32A      2.882855    33A      2.922308  
      34A      2.987265    35A      3.161998    36A      3.519586  
      37A      3.527520    38A      3.815961  

    Final Occupation by Irrep:
              A 
    DOCC [     9 ]

  Energy converged.

  @DF-RKS Final Energy:  -151.55024841330007

   => Energetics <=

    Nuclear Repulsion Energy =             36.4633867259197331
    One-Electron Energy =                -280.9514684668600353
    Two-Electron Energy =                 107.3967374619790149
    DFT Exchange-Correlation Energy =     -14.4585462743387598
    Empirical Dispersion Energy =          -0.0003578600000000
    PCM Polarization Energy =               0.0000000000000000
    EFP Energy =                            0.0000000000000000
    Total Energy =                       -151.5502484133000678



Properties will be evaluated at   0.000000,   0.000000,   0.000000 Bohr

Properties computed using the SCF density matrix

  Nuclear Dipole Moment: (a.u.)
     X:     0.0095      Y:    -0.1198      Z:     0.4197

  Electronic Dipole Moment: (a.u.)
     X:    -0.0020      Y:     0.0254      Z:    -0.0889

  Dipole Moment: (a.u.)
     X:     0.0075      Y:    -0.0944      Z:     0.3309     Total:     0.3442

  Dipole Moment: (Debye)
     X:     0.0191      Y:    -0.2401      Z:     0.8410     Total:     0.8748


*** tstop() called on computer03 at Fri Aug 11 14:02:02 2017
Module time:
	user time   =      14.70 seconds =       0.24 minutes
	system time =       0.48 seconds =       0.01 minutes
	total time  =          4 seconds =       0.07 minutes
Total time:
	user time   =      39.79 seconds =       0.66 minutes
	system time =       1.41 seconds =       0.02 minutes
	total time  =         12 seconds =       0.20 minutes

*** tstart() called on computer03
*** at Fri Aug 11 14:02:02 2017


         ------------------------------------------------------------
                                   SCF GRAD                          
                          Rob Parrish, Justin Turney,                
                       Andy Simmonett, and Alex Sokolov              
         ------------------------------------------------------------

  ==> Geometry <==

    Molecular point group: c1
    Full point group: C1

    Geometry (in Angstrom), charge = 0, multiplicity = 1:

       Center              X                  Y                   Z               Mass       
    ------------   -----------------  -----------------  -----------------  -----------------
           O         -0.732674095209     0.032802693173     0.010735202764    15.994914619560
           O          0.732033723151    -0.024747104746    -0.038954603888    15.994914619560
           H         -0.943800335260    -0.916220063480     0.002185760572     1.007825032070
           H          0.953963504521     0.788372029349     0.445676613592     1.007825032070

  Nuclear repulsion =   36.463386725919733

  ==> Basis Set <==

  Basis Set: CC-PVDZ
    Blend: CC-PVDZ
    Number of shells: 18
    Number of basis function: 38
    Number of Cartesian functions: 40
    Spherical Harmonics?: true
    Max angular momentum: 2

  ==> DFJKGrad: Density-Fitted SCF Gradients <==

    Gradient:                    1
    J tasked:                  Yes
    K tasked:                  Yes
    wK tasked:                  No
    OpenMP threads:              8
    Integrals threads:           8
    Memory (MB):              1430
    Schwarz Cutoff:          0E+00
    Fitting Condition:       1E-12

   => Auxiliary Basis Set <=

  Basis Set: (CC-PVDZ AUX)
    Blend: CC-PVDZ-JKFIT
    Number of shells: 66
    Number of basis function: 186
    Number of Cartesian functions: 212
    Spherical Harmonics?: true
    Max angular momentum: 3

  ==> DFT Potential <==

   => B3LYP Composite Functional <= 

    B3LYP Hybrid-GGA Exchange-Correlation Functional (VWN1-RPA)

    P.J. Stephens et. al., J. Phys. Chem., 98, 11623-11627, 1994

    Points   =           5000
    Deriv    =              1
    GGA      =           TRUE
    Meta     =          FALSE

    X_LRC        =          FALSE
    X_Hybrid     =           TRUE
    X_Alpha      =   2.000000E-01
    X_Omega      =   0.000000E+00
    C_LRC        =          FALSE
    C_Hybrid     =          FALSE
    C_Alpha      =   0.000000E+00
    C_Omega      =   0.000000E+00

   => Exchange Functionals <=

    0.8000    B3_X
    0.2000      HF 

   => Correlation Functionals <=

    0.1900 VWN3RPA_C
    0.8100   LYP_C

   => Molecular Quadrature <=

    Radial Scheme    =       TREUTLER
    Pruning Scheme   =           FLAT
    Nuclear Scheme   =       TREUTLER

    BS radius alpha  =              1
    Pruning alpha    =              1
    Radial Points    =             75
    Spherical Points =            302
    Total Points     =          88340
    Total Blocks     =             89
    Max Points       =           4715
    Max Functions    =             38


  -Total Gradient:
     Atom            X                  Y                   Z
    ------   -----------------  -----------------  -----------------
       1       -0.002944304005    -0.005959729426    -0.000421961978
       2        0.002996766946     0.005323389975     0.002664784997
       3       -0.004263989322     0.000947476479    -0.000838942350
       4        0.004211780552    -0.000314336197    -0.001392675989


*** tstop() called on computer03 at Fri Aug 11 14:02:03 2017
Module time:
	user time   =       5.10 seconds =       0.09 minutes
	system time =       0.23 seconds =       0.00 minutes
	total time  =          1 seconds =       0.02 minutes
Total time:
	user time   =      44.95 seconds =       0.75 minutes
	system time =       1.65 seconds =       0.03 minutes
	total time  =         13 seconds =       0.22 minutes

			-----------------------------------------
			 OPTKING 2.0: for geometry optimizations 
			  - R.A. King,  Bethel University        
			-----------------------------------------
	At level 1: Red. Int., RFO, no backsteps, dynamic trust

	Previous internal coordinate definitions found.
	---Fragment 1 Geometry and Gradient---
	 O          -1.3845533846        0.0619881065        0.0202865932
	 O           1.3833432568       -0.0467652506       -0.0736135330
	 H          -1.7835241578       -1.7314049974        0.0041304889
	 H           1.8027297643        1.4898072263        0.8422067435
	            -0.0029443040       -0.0059597294       -0.0004219620
	             0.0029967669        0.0053233900        0.0026647850
	            -0.0042639893        0.0009474765       -0.0008389424
	             0.0042117806       -0.0003143362       -0.0013926760

	---Fragment 1 Intrafragment Coordinates---
	 - Coordinate -           - BOHR/RAD -       - ANG/DEG -
	 R(1,2)           =         2.771623	       1.466680
	 R(1,3)           =         1.837307	       0.972261
	 R(2,4)           =         1.837299	       0.972257
	 B(1,2,4)         =         1.750007	     100.267992
	 B(2,1,3)         =         1.750014	     100.268400
	*D(3,1,2,4)       =        -2.617994	    -150.000018

	Current energy   :      -151.5502484133

	Energy change for the previous step:
		Projected    :        -0.0005283912
		Actual       :        -0.0002007050

	Performing BFGS update.
	Previous computed or guess Hessian on step 1.
	Steps to be used in Hessian update: 1
	Taking RFO optimization step.
	Going to follow RFO solution 1.
	Using RFO vector 1.
	Norm of target step-size    0.04094
	Projected energy change by RFO approximation:        -0.0001886137

	Back-transformation to cartesian coordinates...
	Successfully converged to displaced geometry.

	Back-transformation to cartesian coordinates to adjust frozen coordinates...
	Successfully converged to displaced geometry.

	--- Internal Coordinate Step in ANG or DEG, aJ/ANG or AJ/DEG ---
	 ---------------------------------------------------------------------------
	   Coordinate                Previous        Force       Change         New 
	   ----------                --------       ------       ------       ------
	    1 R(1,2)          =      1.466680    -0.057358    -0.005513     1.461167
	    2 R(1,3)          =      0.972261    -0.000046    -0.000035     0.972226
	    3 R(2,4)          =      0.972257    -0.000012    -0.000032     0.972225
	    4 B(1,2,4)        =    100.267992    -0.000606    -1.604270    98.663721
	    5 B(2,1,3)        =    100.268400    -0.000607    -1.604513    98.663887
	    6 *D(3,1,2,4)     =   -150.000018     0.000000     0.000000  -150.000018
	 ---------------------------------------------------------------------------
	Successfully symmetrized geometry.

  ==> Convergence Check <==

  Measures of convergence in internal coordinates in au.
  Criteria marked as inactive (o), active & met (*), and active & unmet ( ).
  ---------------------------------------------------------------------------------------------
   Step     Total Energy     Delta E     MAX Force     RMS Force      MAX Disp      RMS Disp   
  ---------------------------------------------------------------------------------------------
    Convergence Criteria    1.00e-06 *    3.00e-04 *             o    1.20e-03 *             o
  ---------------------------------------------------------------------------------------------
      2    -151.55024841   -2.01e-04      7.97e-03      5.41e-03 o    2.80e-02      1.67e-02 o  ~
  ---------------------------------------------------------------------------------------------

	Writing optimization data to binary file.
	Structure for next step:
	Cartesian Geometry (in Angstrom)
	    O    -0.7293702574   0.0428725392   0.0129362110
	    O     0.7287024764  -0.0345023192  -0.0422617280
	    H    -0.9269699243  -0.9090236691   0.0044559291
	    H     0.9371605025   0.7808610033   0.4445125609
			--------------------------
			 OPTKING Finished Execution 
			--------------------------

    Structure for next step:
    Molecular point group: c1
    Full point group: C1

    Geometry (in Angstrom), charge = 0, multiplicity = 1:

    O           -0.729358177572     0.042733872978     0.013423704719
    O            0.728714556230    -0.034640985424    -0.041774234272
    H           -0.926957844542    -0.909162335348     0.004943422852
    H            0.937172582302     0.780722337003     0.445000054619

gradient() will perform analytic gradient computation.

*** tstart() called on computer03
*** at Fri Aug 11 14:02:03 2017

   => Loading Basis Set <=

    Name: CC-PVDZ
    Role: ORBITAL
    Keyword: BASIS
    atoms 1-2 entry O          line   190 file /home/raimis/opt/miniconda3/envs/htmd/share/psi4/basis/cc-pvdz.gbs 
    atoms 3-4 entry H          line    20 file /home/raimis/opt/miniconda3/envs/htmd/share/psi4/basis/cc-pvdz.gbs 


         ---------------------------------------------------------
                                   SCF
            by Justin Turney, Rob Parrish, and Andy Simmonett
                              RKS Reference
                        8 Threads,   1907 MiB Core
         ---------------------------------------------------------

  ==> Geometry <==

    Molecular point group: c1
    Full point group: C1

    Geometry (in Angstrom), charge = 0, multiplicity = 1:

       Center              X                  Y                   Z               Mass       
    ------------   -----------------  -----------------  -----------------  -----------------
           O         -0.729358177572     0.042733872978     0.013423704719    15.994914619560
           O          0.728714556230    -0.034640985424    -0.041774234272    15.994914619560
           H         -0.926957844542    -0.909162335348     0.004943422852     1.007825032070
           H          0.937172582302     0.780722337003     0.445000054619     1.007825032070

  Running in c1 symmetry.

  Rotational constants: A =      9.93615  B =      0.89192  C =      0.82788 [cm^-1]
  Rotational constants: A = 297878.15106  B =  26739.02802  C =  24819.29011 [MHz]
  Nuclear repulsion =   36.614577218623182

  Charge       = 0
  Multiplicity = 1
  Electrons    = 18
  Nalpha       = 9
  Nbeta        = 9

  ==> Algorithm <==

  SCF Algorithm Type is DF.
  DIIS enabled.
  MOM disabled.
  Fractional occupation disabled.
  Guess Type is READ.
  Energy threshold   = 1.00e-08
  Density threshold  = 1.00e-08
  Integral threshold = 0.00e+00

  ==> Primary Basis <==

  Basis Set: CC-PVDZ
    Blend: CC-PVDZ
    Number of shells: 18
    Number of basis function: 38
    Number of Cartesian functions: 40
    Spherical Harmonics?: true
    Max angular momentum: 2

  ==> DFT Potential <==

   => B3LYP Composite Functional <= 

    B3LYP Hybrid-GGA Exchange-Correlation Functional (VWN1-RPA)

    P.J. Stephens et. al., J. Phys. Chem., 98, 11623-11627, 1994

    Points   =           5000
    Deriv    =              1
    GGA      =           TRUE
    Meta     =          FALSE

    X_LRC        =          FALSE
    X_Hybrid     =           TRUE
    X_Alpha      =   2.000000E-01
    X_Omega      =   0.000000E+00
    C_LRC        =          FALSE
    C_Hybrid     =          FALSE
    C_Alpha      =   0.000000E+00
    C_Omega      =   0.000000E+00

   => Exchange Functionals <=

    0.8000    B3_X
    0.2000      HF 

   => Correlation Functionals <=

    0.1900 VWN3RPA_C
    0.8100   LYP_C

   => Molecular Quadrature <=

    Radial Scheme    =       TREUTLER
    Pruning Scheme   =           FLAT
    Nuclear Scheme   =       TREUTLER

    BS radius alpha  =              1
    Pruning alpha    =              1
    Radial Points    =             75
    Spherical Points =            302
    Total Points     =          88336
    Total Blocks     =             90
    Max Points       =           4721
    Max Functions    =             38

   => -D3ZERO: Empirical Dispersion <=

    Grimme's -D3 (zero-damping) Dispersion Correction
    Grimme S.; Antony J.; Ehrlich S.; Krieg H. (2010), J. Chem. Phys., 132: 154104

        S6 =   1.000000E+00
        S8 =   1.703000E+00
       SR6 =   1.261000E+00
    ALPHA6 =   1.400000E+01

   => Loading Basis Set <=

    Name: (CC-PVDZ AUX)
    Role: JKFIT
    Keyword: DF_BASIS_SCF
    atoms 1-2 entry O          line   220 file /home/raimis/opt/miniconda3/envs/htmd/share/psi4/basis/cc-pvdz-jkfit.gbs 
    atoms 3-4 entry H          line    50 file /home/raimis/opt/miniconda3/envs/htmd/share/psi4/basis/cc-pvdz-jkfit.gbs 

  Reading orbitals from file 180, no projection.

  ==> Pre-Iterations <==

   -------------------------------------------------------
    Irrep   Nso     Nmo     Nalpha   Nbeta   Ndocc  Nsocc
   -------------------------------------------------------
     A         38      38       0       0       0       0
   -------------------------------------------------------
    Total      38      38       9       9       9       0
   -------------------------------------------------------

  ==> Integral Setup <==

  ==> DFJK: Density-Fitted J/K Matrices <==

    J tasked:                  Yes
    K tasked:                  Yes
    wK tasked:                  No
    OpenMP threads:              8
    Integrals threads:           8
    Memory (MB):              1430
    Algorithm:                Core
    Integral Cache:           NONE
    Schwarz Cutoff:          1E-12
    Fitting Condition:       1E-12

   => Auxiliary Basis Set <=

  Basis Set: (CC-PVDZ AUX)
    Blend: CC-PVDZ-JKFIT
    Number of shells: 66
    Number of basis function: 186
    Number of Cartesian functions: 212
    Spherical Harmonics?: true
    Max angular momentum: 3

  Minimum eigenvalue in the overlap matrix is 2.4845641742E-02.
  Using Symmetric Orthogonalization.

  SCF Guess: Orbitals guess was supplied from a previous computation.

  ==> Iterations <==

                           Total Energy        Delta E     RMS |[F,P]|

   @DF-RKS iter   0:  -151.55228288784608   -1.51552e+02   8.87096e-04 
   @DF-RKS iter   1:  -151.55051221121903    1.77068e-03   1.58645e-04 
   @DF-RKS iter   2:  -151.55051592644168   -3.71522e-06   7.19915e-05 DIIS
   @DF-RKS iter   3:  -151.55051666815012   -7.41708e-07   6.26242e-06 DIIS
   @DF-RKS iter   4:  -151.55051667995497   -1.18048e-08   6.46740e-06 DIIS
   @DF-RKS iter   5:  -151.55051668636403   -6.40907e-09   6.76405e-07 DIIS
   @DF-RKS iter   6:  -151.55051668651279   -1.48759e-10   2.92053e-07 DIIS
   @DF-RKS iter   7:  -151.55051668651979   -6.99174e-12   2.41594e-07 DIIS
   @DF-RKS iter   8:  -151.55051668653192   -1.21361e-11   8.31628e-09 DIIS

  ==> Post-Iterations <==

    Orbital Energies (a.u.)
    -----------------------

    Doubly Occupied:                                                      

       1A    -19.185953     2A    -19.185915     3A     -1.105087  
       4A     -0.890328     5A     -0.503754     6A     -0.495505  
       7A     -0.396210     8A     -0.341329     9A     -0.249173  

    Virtual:                                                              

      10A      0.020243    11A      0.053928    12A      0.105655  
      13A      0.577359    14A      0.579223    15A      0.844287  
      16A      0.864824    17A      0.871304    18A      0.967702  
      19A      1.007930    20A      1.069056    21A      1.243332  
      22A      1.301766    23A      1.353061    24A      1.463861  
      25A      1.641326    26A      1.776829    27A      2.058588  
      28A      2.104943    29A      2.334293    30A      2.383289  
      31A      2.629820    32A      2.881798    33A      2.922597  
      34A      2.995162    35A      3.164436    36A      3.517749  
      37A      3.521302    38A      3.826779  

    Final Occupation by Irrep:
              A 
    DOCC [     9 ]

  Energy converged.

  @DF-RKS Final Energy:  -151.55051668653192

   => Energetics <=

    Nuclear Repulsion Energy =             36.6145772186231824
    One-Electron Energy =                -281.2395434720522189
    Two-Electron Energy =                 107.5363596398695449
    DFT Exchange-Correlation Energy =     -14.4615674929724420
    Empirical Dispersion Energy =          -0.0003425800000000
    PCM Polarization Energy =               0.0000000000000000
    EFP Energy =                            0.0000000000000000
    Total Energy =                       -151.5505166865319211



Properties will be evaluated at   0.000000,   0.000000,   0.000000 Bohr

Properties computed using the SCF density matrix

  Nuclear Dipole Moment: (a.u.)
     X:     0.0096      Y:    -0.1204      Z:     0.4217

  Electronic Dipole Moment: (a.u.)
     X:    -0.0021      Y:     0.0260      Z:    -0.0911

  Dipole Moment: (a.u.)
     X:     0.0075      Y:    -0.0944      Z:     0.3306     Total:     0.3439

  Dipole Moment: (Debye)
     X:     0.0191      Y:    -0.2399      Z:     0.8403     Total:     0.8741


*** tstop() called on computer03 at Fri Aug 11 14:02:07 2017
Module time:
	user time   =      14.33 seconds =       0.24 minutes
	system time =       0.51 seconds =       0.01 minutes
	total time  =          4 seconds =       0.07 minutes
Total time:
	user time   =      59.51 seconds =       0.99 minutes
	system time =       2.17 seconds =       0.04 minutes
	total time  =         17 seconds =       0.28 minutes

*** tstart() called on computer03
*** at Fri Aug 11 14:02:07 2017


         ------------------------------------------------------------
                                   SCF GRAD                          
                          Rob Parrish, Justin Turney,                
                       Andy Simmonett, and Alex Sokolov              
         ------------------------------------------------------------

  ==> Geometry <==

    Molecular point group: c1
    Full point group: C1

    Geometry (in Angstrom), charge = 0, multiplicity = 1:

       Center              X                  Y                   Z               Mass       
    ------------   -----------------  -----------------  -----------------  -----------------
           O         -0.729358177572     0.042733872978     0.013423704719    15.994914619560
           O          0.728714556230    -0.034640985424    -0.041774234272    15.994914619560
           H         -0.926957844542    -0.909162335348     0.004943422852     1.007825032070
           H          0.937172582302     0.780722337003     0.445000054619     1.007825032070

  Nuclear repulsion =   36.614577218623182

  ==> Basis Set <==

  Basis Set: CC-PVDZ
    Blend: CC-PVDZ
    Number of shells: 18
    Number of basis function: 38
    Number of Cartesian functions: 40
    Spherical Harmonics?: true
    Max angular momentum: 2

  ==> DFJKGrad: Density-Fitted SCF Gradients <==

    Gradient:                    1
    J tasked:                  Yes
    K tasked:                  Yes
    wK tasked:                  No
    OpenMP threads:              8
    Integrals threads:           8
    Memory (MB):              1430
    Schwarz Cutoff:          0E+00
    Fitting Condition:       1E-12

   => Auxiliary Basis Set <=

  Basis Set: (CC-PVDZ AUX)
    Blend: CC-PVDZ-JKFIT
    Number of shells: 66
    Number of basis function: 186
    Number of Cartesian functions: 212
    Spherical Harmonics?: true
    Max angular momentum: 3

  ==> DFT Potential <==

   => B3LYP Composite Functional <= 

    B3LYP Hybrid-GGA Exchange-Correlation Functional (VWN1-RPA)

    P.J. Stephens et. al., J. Phys. Chem., 98, 11623-11627, 1994

    Points   =           5000
    Deriv    =              1
    GGA      =           TRUE
    Meta     =          FALSE

    X_LRC        =          FALSE
    X_Hybrid     =           TRUE
    X_Alpha      =   2.000000E-01
    X_Omega      =   0.000000E+00
    C_LRC        =          FALSE
    C_Hybrid     =          FALSE
    C_Alpha      =   0.000000E+00
    C_Omega      =   0.000000E+00

   => Exchange Functionals <=

    0.8000    B3_X
    0.2000      HF 

   => Correlation Functionals <=

    0.1900 VWN3RPA_C
    0.8100   LYP_C

   => Molecular Quadrature <=

    Radial Scheme    =       TREUTLER
    Pruning Scheme   =           FLAT
    Nuclear Scheme   =       TREUTLER

    BS radius alpha  =              1
    Pruning alpha    =              1
    Radial Points    =             75
    Spherical Points =            302
    Total Points     =          88336
    Total Blocks     =             90
    Max Points       =           4721
    Max Functions    =             38


  -Total Gradient:
     Atom            X                  Y                   Z
    ------   -----------------  -----------------  -----------------
       1       -0.000221444385    -0.000019211908     0.000803009177
       2        0.000255716669    -0.000403693098     0.000682642735
       3       -0.000149891120    -0.000056336252    -0.000811520910
       4        0.000115810444     0.000476830231    -0.000665685671


*** tstop() called on computer03 at Fri Aug 11 14:02:09 2017
Module time:
	user time   =       4.86 seconds =       0.08 minutes
	system time =       0.20 seconds =       0.00 minutes
	total time  =          2 seconds =       0.03 minutes
Total time:
	user time   =      64.41 seconds =       1.07 minutes
	system time =       2.37 seconds =       0.04 minutes
	total time  =         19 seconds =       0.32 minutes

			-----------------------------------------
			 OPTKING 2.0: for geometry optimizations 
			  - R.A. King,  Bethel University        
			-----------------------------------------
	At level 1: Red. Int., RFO, no backsteps, dynamic trust

	Previous internal coordinate definitions found.
	---Fragment 1 Geometry and Gradient---
	 O          -1.3782872084        0.0807553165        0.0253671256
	 O           1.3770709403       -0.0654619754       -0.0789418622
	 H          -1.7516964629       -1.7180678241        0.0093417153
	 H           1.7709995198        1.4753514028        0.8409282323
	            -0.0002214444       -0.0000192119        0.0008030092
	             0.0002557167       -0.0004036931        0.0006826427
	            -0.0001498911       -0.0000563363       -0.0008115209
	             0.0001158104        0.0004768302       -0.0006656857

	---Fragment 1 Intrafragment Coordinates---
	 - Coordinate -           - BOHR/RAD -       - ANG/DEG -
	 R(1,2)           =         2.761206	       1.461167
	 R(1,3)           =         1.837241	       0.972226
	 R(2,4)           =         1.837239	       0.972225
	 B(1,2,4)         =         1.722007	      98.663721
	 B(2,1,3)         =         1.722010	      98.663887
	*D(3,1,2,4)       =        -2.617994	    -150.000018

	Current energy   :      -151.5505166865

	Energy change for the previous step:
		Projected    :        -0.0001886137
		Actual       :        -0.0002682732
	Energy ratio indicates good step: Trust radius increased to 1.000e+00.


	Performing BFGS update.
	Previous computed or guess Hessian on step 1.
	Steps to be used in Hessian update: 2 1
	Taking RFO optimization step.
	Going to follow RFO solution 1.
	Using RFO vector 1.
	Norm of target step-size    0.00113
	Projected energy change by RFO approximation:        -0.0000007872

	Back-transformation to cartesian coordinates...
	Successfully converged to displaced geometry.

	Back-transformation to cartesian coordinates to adjust frozen coordinates...
	Successfully converged to displaced geometry.

	--- Internal Coordinate Step in ANG or DEG, aJ/ANG or AJ/DEG ---
	 ---------------------------------------------------------------------------
	   Coordinate                Previous        Force       Change         New 
	   ----------                --------       ------       ------       ------
	    1 R(1,2)          =      1.461167    -0.003037    -0.000388     1.460779
	    2 R(1,3)          =      0.972226    -0.000745    -0.000094     0.972132
	    3 R(2,4)          =      0.972225    -0.000734    -0.000093     0.972132
	    4 B(1,2,4)        =     98.663721    -0.000015    -0.033230    98.630492
	    5 B(2,1,3)        =     98.663887    -0.000015    -0.033407    98.630480
	    6 *D(3,1,2,4)     =   -150.000018     0.000000     0.000000  -150.000018
	 ---------------------------------------------------------------------------
	Successfully symmetrized geometry.

  ==> Convergence Check <==

  Measures of convergence in internal coordinates in au.
  Criteria marked as inactive (o), active & met (*), and active & unmet ( ).
  ---------------------------------------------------------------------------------------------
   Step     Total Energy     Delta E     MAX Force     RMS Force      MAX Disp      RMS Disp   
  ---------------------------------------------------------------------------------------------
    Convergence Criteria    1.00e-06 *    3.00e-04 *             o    1.20e-03 *             o
  ---------------------------------------------------------------------------------------------
      3    -151.55051669   -2.68e-04      3.69e-04      1.95e-04 o    7.33e-04 *    4.61e-04 o  ~
  ---------------------------------------------------------------------------------------------

	Writing optimization data to binary file.
	Structure for next step:
	Cartesian Geometry (in Angstrom)
	    O    -0.7291508229   0.0429519017   0.0134820291
	    O     0.7285056899  -0.0348599182  -0.0418308131
	    H    -0.9264760003  -0.9089052335   0.0050048200
	    H     0.9366922497   0.7804661392   0.4449369119
			--------------------------
			 OPTKING Finished Execution 
			--------------------------

    Structure for next step:
    Molecular point group: c1
    Full point group: C1

    Geometry (in Angstrom), charge = 0, multiplicity = 1:

    O           -0.729150156653     0.042952300102     0.013481259760
    O            0.728506356104    -0.034859519724    -0.041831582380
    H           -0.926475334034    -0.908904835025     0.005004050726
    H            0.936692915942     0.780466537652     0.444936142585

gradient() will perform analytic gradient computation.

*** tstart() called on computer03
*** at Fri Aug 11 14:02:09 2017

   => Loading Basis Set <=

    Name: CC-PVDZ
    Role: ORBITAL
    Keyword: BASIS
    atoms 1-2 entry O          line   190 file /home/raimis/opt/miniconda3/envs/htmd/share/psi4/basis/cc-pvdz.gbs 
    atoms 3-4 entry H          line    20 file /home/raimis/opt/miniconda3/envs/htmd/share/psi4/basis/cc-pvdz.gbs 


         ---------------------------------------------------------
                                   SCF
            by Justin Turney, Rob Parrish, and Andy Simmonett
                              RKS Reference
                        8 Threads,   1907 MiB Core
         ---------------------------------------------------------

  ==> Geometry <==

    Molecular point group: c1
    Full point group: C1

    Geometry (in Angstrom), charge = 0, multiplicity = 1:

       Center              X                  Y                   Z               Mass       
    ------------   -----------------  -----------------  -----------------  -----------------
           O         -0.729150156653     0.042952300102     0.013481259760    15.994914619560
           O          0.728506356104    -0.034859519724    -0.041831582380    15.994914619560
           H         -0.926475334034    -0.908904835025     0.005004050726     1.007825032070
           H          0.936692915942     0.780466537652     0.444936142585     1.007825032070

  Running in c1 symmetry.

  Rotational constants: A =      9.93533  B =      0.89248  C =      0.82836 [cm^-1]
  Rotational constants: A = 297853.56368  B =  26755.93324  C =  24833.67911 [MHz]
  Nuclear repulsion =   36.623652829663335

  Charge       = 0
  Multiplicity = 1
  Electrons    = 18
  Nalpha       = 9
  Nbeta        = 9

  ==> Algorithm <==

  SCF Algorithm Type is DF.
  DIIS enabled.
  MOM disabled.
  Fractional occupation disabled.
  Guess Type is READ.
  Energy threshold   = 1.00e-08
  Density threshold  = 1.00e-08
  Integral threshold = 0.00e+00

  ==> Primary Basis <==

  Basis Set: CC-PVDZ
    Blend: CC-PVDZ
    Number of shells: 18
    Number of basis function: 38
    Number of Cartesian functions: 40
    Spherical Harmonics?: true
    Max angular momentum: 2

  ==> DFT Potential <==

   => B3LYP Composite Functional <= 

    B3LYP Hybrid-GGA Exchange-Correlation Functional (VWN1-RPA)

    P.J. Stephens et. al., J. Phys. Chem., 98, 11623-11627, 1994

    Points   =           5000
    Deriv    =              1
    GGA      =           TRUE
    Meta     =          FALSE

    X_LRC        =          FALSE
    X_Hybrid     =           TRUE
    X_Alpha      =   2.000000E-01
    X_Omega      =   0.000000E+00
    C_LRC        =          FALSE
    C_Hybrid     =          FALSE
    C_Alpha      =   0.000000E+00
    C_Omega      =   0.000000E+00

   => Exchange Functionals <=

    0.8000    B3_X
    0.2000      HF 

   => Correlation Functionals <=

    0.1900 VWN3RPA_C
    0.8100   LYP_C

   => Molecular Quadrature <=

    Radial Scheme    =       TREUTLER
    Pruning Scheme   =           FLAT
    Nuclear Scheme   =       TREUTLER

    BS radius alpha  =              1
    Pruning alpha    =              1
    Radial Points    =             75
    Spherical Points =            302
    Total Points     =          88336
    Total Blocks     =             90
    Max Points       =           4718
    Max Functions    =             38

   => -D3ZERO: Empirical Dispersion <=

    Grimme's -D3 (zero-damping) Dispersion Correction
    Grimme S.; Antony J.; Ehrlich S.; Krieg H. (2010), J. Chem. Phys., 132: 154104

        S6 =   1.000000E+00
        S8 =   1.703000E+00
       SR6 =   1.261000E+00
    ALPHA6 =   1.400000E+01

   => Loading Basis Set <=

    Name: (CC-PVDZ AUX)
    Role: JKFIT
    Keyword: DF_BASIS_SCF
    atoms 1-2 entry O          line   220 file /home/raimis/opt/miniconda3/envs/htmd/share/psi4/basis/cc-pvdz-jkfit.gbs 
    atoms 3-4 entry H          line    50 file /home/raimis/opt/miniconda3/envs/htmd/share/psi4/basis/cc-pvdz-jkfit.gbs 

  Reading orbitals from file 180, no projection.

  ==> Pre-Iterations <==

   -------------------------------------------------------
    Irrep   Nso     Nmo     Nalpha   Nbeta   Ndocc  Nsocc
   -------------------------------------------------------
     A         38      38       0       0       0       0
   -------------------------------------------------------
    Total      38      38       9       9       9       0
   -------------------------------------------------------

  ==> Integral Setup <==

  ==> DFJK: Density-Fitted J/K Matrices <==

    J tasked:                  Yes
    K tasked:                  Yes
    wK tasked:                  No
    OpenMP threads:              8
    Integrals threads:           8
    Memory (MB):              1430
    Algorithm:                Core
    Integral Cache:           NONE
    Schwarz Cutoff:          1E-12
    Fitting Condition:       1E-12

   => Auxiliary Basis Set <=

  Basis Set: (CC-PVDZ AUX)
    Blend: CC-PVDZ-JKFIT
    Number of shells: 66
    Number of basis function: 186
    Number of Cartesian functions: 212
    Spherical Harmonics?: true
    Max angular momentum: 3

  Minimum eigenvalue in the overlap matrix is 2.4819394403E-02.
  Using Symmetric Orthogonalization.

  SCF Guess: Orbitals guess was supplied from a previous computation.

  ==> Iterations <==

                           Total Energy        Delta E     RMS |[F,P]|

   @DF-RKS iter   0:  -151.55077894631705   -1.51551e+02   3.83599e-05 
   @DF-RKS iter   1:  -151.55051696778546    2.61979e-04   8.74249e-06 
   @DF-RKS iter   2:  -151.55051697581644   -8.03098e-09   5.02760e-06 DIIS
   @DF-RKS iter   3:  -151.55051697889013   -3.07369e-09   8.08257e-07 DIIS
   @DF-RKS iter   4:  -151.55051697903625   -1.46116e-10   1.14158e-07 DIIS
   @DF-RKS iter   5:  -151.55051697903988   -3.63798e-12   6.11487e-08 DIIS
   @DF-RKS iter   6:  -151.55051697904088   -9.94760e-13   2.18336e-08 DIIS
   @DF-RKS iter   7:  -151.55051697904111   -2.27374e-13   1.39699e-09 DIIS

  ==> Post-Iterations <==

    Orbital Energies (a.u.)
    -----------------------

    Doubly Occupied:                                                      

       1A    -19.185928     2A    -19.185890     3A     -1.105300  
       4A     -0.890276     5A     -0.503739     6A     -0.495637  
       7A     -0.396305     8A     -0.341357     9A     -0.249123  

    Virtual:                                                              

      10A      0.020482    11A      0.053931    12A      0.105719  
      13A      0.577517    14A      0.579245    15A      0.844292  
      16A      0.864651    17A      0.871321    18A      0.967653  
      19A      1.007940    20A      1.069039    21A      1.243088  
      22A      1.301878    23A      1.353060    24A      1.463907  
      25A      1.641731    26A      1.776736    27A      2.058795  
      28A      2.105224    29A      2.334015    30A      2.383592  
      31A      2.629856    32A      2.881831    33A      2.922704  
      34A      2.995660    35A      3.164778    36A      3.517791  
      37A      3.521291    38A      3.827316  

    Final Occupation by Irrep:
              A 
    DOCC [     9 ]

  Energy converged.

  @DF-RKS Final Energy:  -151.55051697904111

   => Energetics <=

    Nuclear Repulsion Energy =             36.6236528296633352
    One-Electron Energy =                -281.2569400334904799
    Two-Electron Energy =                 107.5449135930194018
    DFT Exchange-Correlation Energy =     -14.4618012782333381
    Empirical Dispersion Energy =          -0.0003420900000000
    PCM Polarization Energy =               0.0000000000000000
    EFP Energy =                            0.0000000000000000
    Total Energy =                       -151.5505169790410775



Properties will be evaluated at   0.000000,   0.000000,   0.000000 Bohr

Properties computed using the SCF density matrix

  Nuclear Dipole Moment: (a.u.)
     X:     0.0096      Y:    -0.1204      Z:     0.4217

  Electronic Dipole Moment: (a.u.)
     X:    -0.0021      Y:     0.0260      Z:    -0.0911

  Dipole Moment: (a.u.)
     X:     0.0075      Y:    -0.0944      Z:     0.3306     Total:     0.3439

  Dipole Moment: (Debye)
     X:     0.0191      Y:    -0.2399      Z:     0.8403     Total:     0.8741


*** tstop() called on computer03 at Fri Aug 11 14:02:12 2017
Module time:
	user time   =      12.91 seconds =       0.22 minutes
	system time =       0.43 seconds =       0.01 minutes
	total time  =          3 seconds =       0.05 minutes
Total time:
	user time   =      77.47 seconds =       1.29 minutes
	system time =       2.80 seconds =       0.05 minutes
	total time  =         22 seconds =       0.37 minutes

*** tstart() called on computer03
*** at Fri Aug 11 14:02:12 2017


         ------------------------------------------------------------
                                   SCF GRAD                          
                          Rob Parrish, Justin Turney,                
                       Andy Simmonett, and Alex Sokolov              
         ------------------------------------------------------------

  ==> Geometry <==

    Molecular point group: c1
    Full point group: C1

    Geometry (in Angstrom), charge = 0, multiplicity = 1:

       Center              X                  Y                   Z               Mass       
    ------------   -----------------  -----------------  -----------------  -----------------
           O         -0.729150156653     0.042952300102     0.013481259760    15.994914619560
           O          0.728506356104    -0.034859519724    -0.041831582380    15.994914619560
           H         -0.926475334034    -0.908904835025     0.005004050726     1.007825032070
           H          0.936692915942     0.780466537652     0.444936142585     1.007825032070

  Nuclear repulsion =   36.623652829663335

  ==> Basis Set <==

  Basis Set: CC-PVDZ
    Blend: CC-PVDZ
    Number of shells: 18
    Number of basis function: 38
    Number of Cartesian functions: 40
    Spherical Harmonics?: true
    Max angular momentum: 2

  ==> DFJKGrad: Density-Fitted SCF Gradients <==

    Gradient:                    1
    J tasked:                  Yes
    K tasked:                  Yes
    wK tasked:                  No
    OpenMP threads:              8
    Integrals threads:           8
    Memory (MB):              1430
    Schwarz Cutoff:          0E+00
    Fitting Condition:       1E-12

   => Auxiliary Basis Set <=

  Basis Set: (CC-PVDZ AUX)
    Blend: CC-PVDZ-JKFIT
    Number of shells: 66
    Number of basis function: 186
    Number of Cartesian functions: 212
    Spherical Harmonics?: true
    Max angular momentum: 3

  ==> DFT Potential <==

   => B3LYP Composite Functional <= 

    B3LYP Hybrid-GGA Exchange-Correlation Functional (VWN1-RPA)

    P.J. Stephens et. al., J. Phys. Chem., 98, 11623-11627, 1994

    Points   =           5000
    Deriv    =              1
    GGA      =           TRUE
    Meta     =          FALSE

    X_LRC        =          FALSE
    X_Hybrid     =           TRUE
    X_Alpha      =   2.000000E-01
    X_Omega      =   0.000000E+00
    C_LRC        =          FALSE
    C_Hybrid     =          FALSE
    C_Alpha      =   0.000000E+00
    C_Omega      =   0.000000E+00

   => Exchange Functionals <=

    0.8000    B3_X
    0.2000      HF 

   => Correlation Functionals <=

    0.1900 VWN3RPA_C
    0.8100   LYP_C

   => Molecular Quadrature <=

    Radial Scheme    =       TREUTLER
    Pruning Scheme   =           FLAT
    Nuclear Scheme   =       TREUTLER

    BS radius alpha  =              1
    Pruning alpha    =              1
    Radial Points    =             75
    Spherical Points =            302
    Total Points     =          88336
    Total Blocks     =             90
    Max Points       =           4718
    Max Functions    =             38


  -Total Gradient:
     Atom            X                  Y                   Z
    ------   -----------------  -----------------  -----------------
       1       -0.000037866155     0.000039101762     0.000829854171
       2        0.000072179611    -0.000470602993     0.000681872638
       3       -0.000027372869     0.000002487534    -0.000811989727
       4       -0.000006751056     0.000426631398    -0.000691391483


*** tstop() called on computer03 at Fri Aug 11 14:02:14 2017
Module time:
	user time   =       5.12 seconds =       0.09 minutes
	system time =       0.19 seconds =       0.00 minutes
	total time  =          2 seconds =       0.03 minutes
Total time:
	user time   =      82.72 seconds =       1.38 minutes
	system time =       3.00 seconds =       0.05 minutes
	total time  =         24 seconds =       0.40 minutes

			-----------------------------------------
			 OPTKING 2.0: for geometry optimizations 
			  - R.A. King,  Bethel University        
			-----------------------------------------
	At level 1: Red. Int., RFO, no backsteps, dynamic trust

	Previous internal coordinate definitions found.
	---Fragment 1 Geometry and Gradient---
	 O          -1.3778941058        0.0811680840        0.0254758889
	 O           1.3766774991       -0.0658749454       -0.0790502344
	 H          -1.7507846502       -1.7175812191        0.0094562854
	 H           1.7700930817        1.4748680120        0.8408074561
	            -0.0000378662        0.0000391018        0.0008298542
	             0.0000721796       -0.0004706030        0.0006818726
	            -0.0000273729        0.0000024875       -0.0008119897
	            -0.0000067511        0.0004266314       -0.0006913915

	---Fragment 1 Intrafragment Coordinates---
	 - Coordinate -           - BOHR/RAD -       - ANG/DEG -
	 R(1,2)           =         2.760473	       1.460779
	 R(1,3)           =         1.837064	       0.972132
	 R(2,4)           =         1.837064	       0.972132
	 B(1,2,4)         =         1.721427	      98.630492
	 B(2,1,3)         =         1.721427	      98.630480
	*D(3,1,2,4)       =        -2.617994	    -150.000018

	Current energy   :      -151.5505169790

	Energy change for the previous step:
		Projected    :        -0.0000007872
		Actual       :        -0.0000002925

	Performing BFGS update.
	Previous computed or guess Hessian on step 1.
	Steps to be used in Hessian update: 3 2
	Taking RFO optimization step.
	Going to follow RFO solution 1.
	Using RFO vector 1.
	Norm of target step-size    0.00022
	Projected energy change by RFO approximation:        -0.0000000093

	Back-transformation to cartesian coordinates...
	Successfully converged to displaced geometry.

	Back-transformation to cartesian coordinates to adjust frozen coordinates...
	Successfully converged to displaced geometry.

	--- Internal Coordinate Step in ANG or DEG, aJ/ANG or AJ/DEG ---
	 ---------------------------------------------------------------------------
	   Coordinate                Previous        Force       Change         New 
	   ----------                --------       ------       ------       ------
	    1 R(1,2)          =      1.460779    -0.000579    -0.000107     1.460673
	    2 R(1,3)          =      0.972132    -0.000065    -0.000011     0.972121
	    3 R(2,4)          =      0.972132    -0.000065    -0.000011     0.972121
	    4 B(1,2,4)        =     98.630492     0.000000     0.002959    98.633451
	    5 B(2,1,3)        =     98.630480     0.000000     0.002971    98.633451
	    6 *D(3,1,2,4)     =   -150.000018     0.000000     0.000000  -150.000018
	 ---------------------------------------------------------------------------
	Successfully symmetrized geometry.

  ==> Convergence Check <==

  Measures of convergence in internal coordinates in au.
  Criteria marked as inactive (o), active & met (*), and active & unmet ( ).
  ---------------------------------------------------------------------------------------------
   Step     Total Energy     Delta E     MAX Force     RMS Force      MAX Disp      RMS Disp   
  ---------------------------------------------------------------------------------------------
    Convergence Criteria    1.00e-06 *    3.00e-04 *             o    1.20e-03 *             o
  ---------------------------------------------------------------------------------------------
      4    -151.55051698   -2.93e-07 *    7.03e-05 *    2.92e-05 o    2.01e-04 *    8.83e-05 o  ~
  ---------------------------------------------------------------------------------------------


  **** Optimization is complete! (in 4 steps) ****

  ==> Optimization Summary <==

  Measures of convergence in internal coordinates in au.
  --------------------------------------------------------------------------------------------------------------- ~
   Step         Total Energy             Delta E       MAX Force       RMS Force        MAX Disp        RMS Disp  ~
  --------------------------------------------------------------------------------------------------------------- ~
      1    -151.550047708277   -151.550047708277      0.01043751      0.00753110      0.06454090      0.03889907  ~
      2    -151.550248413300     -0.000200705023      0.00797077      0.00540858      0.02800403      0.01671699  ~
      3    -151.550516686532     -0.000268273232      0.00036858      0.00019470      0.00073280      0.00046108  ~
      4    -151.550516979041     -0.000000292509      0.00007034      0.00002916      0.00020134      0.00008828  ~
  --------------------------------------------------------------------------------------------------------------- ~

	Writing optimization data to binary file.
	Final energy is   -151.5505169790411
	Final (previous) structure:
	Cartesian Geometry (in Angstrom)
	    O    -0.7291501567   0.0429523001   0.0134812598
	    O     0.7285063561  -0.0348595197  -0.0418315824
	    H    -0.9264753340  -0.9089048350   0.0050040507
	    H     0.9366929159   0.7804665377   0.4449361426
	Saving final (previous) structure.
			--------------------------
			 OPTKING Finished Execution 
			--------------------------

    Final optimized geometry and variables:
    Molecular point group: c1
    Full point group: C1

    Geometry (in Angstrom), charge = 0, multiplicity = 1:

    O           -0.729150156653     0.042952300102     0.013481259760
    O            0.728506356104    -0.034859519724    -0.041831582380
    H           -0.926475334034    -0.908904835025     0.005004050726
    H            0.936692915942     0.780466537652     0.444936142585

	Cleaning optimization helper files.


Properties will be evaluated at   0.000000,   0.000000,   0.000000 Bohr

Properties computed using the  density matrix

  Nuclear Dipole Moment: (a.u.)
     X:     0.0096      Y:    -0.1204      Z:     0.4217

  Electronic Dipole Moment: (a.u.)
     X:    -0.0021      Y:     0.0260      Z:    -0.0911

  Dipole Moment: (a.u.)
     X:     0.0075      Y:    -0.0944      Z:     0.3306     Total:     0.3439

  Dipole Moment: (Debye)
     X:     0.0191      Y:    -0.2399      Z:     0.8403     Total:     0.8741

  Quadrupole Moment: (Debye Ang)
    XX:   -10.6947     YY:    -8.8227     ZZ:   -11.8486
    XY:     3.2567     XZ:     0.8984     YZ:     0.8535

  Traceless Quadrupole Moment: (Debye Ang)
    XX:    -0.2393     YY:     1.6326     ZZ:    -1.3933
    XY:     3.2567     XZ:     0.8984     YZ:     0.8535

  Mulliken Charges: (a.u.)
   Center  Symbol    Alpha    Beta     Spin     Total
       1     O     4.09078  4.09078  0.00000 -0.18156
       2     O     4.09078  4.09078  0.00000 -0.18156
       3     H     0.40922  0.40922  0.00000  0.18156
       4     H     0.40922  0.40922  0.00000  0.18156

   Total alpha =  9.00000, Total beta =  9.00000, Total charge = -0.00000


*** Psi4 exiting successfully. Buy a developer a beer!
