    -----------------------------------------------------------------------
          Psi4: An Open-Source Ab Initio Electronic Structure Package
                              Psi4 (no tag) Driver

                          Git: Rev {detached?}  

    J. M. Turney, A. C. Simmonett, R. M. Parrish, E. G. Hohenstein,
    F. A. Evangelista, J. T. Fermann, B. J. Mintz, L. A. Burns, J. J. Wilke,
    M. L. Abrams, N. J. Russ, M. L. Leininger, C. L. Janssen, E. T. Seidl,
    W. D. Allen, H. F. Schaefer, R. A. King, E. F. Valeev, C. D. Sherrill,
    and T. D. Crawford, WIREs Comput. Mol. Sci. 2, 556-565 (2012)
    (doi: 10.1002/wcms.93)

                         Additional Contributions by
    A. E. DePrince, M. Saitow, U. Bozkaya, A. Yu. Sokolov
    -----------------------------------------------------------------------


    Psi4 started on: Tue Jul  5 16:28:38 2016

    Process ID:   1295
    PSI4DATADIR: /export131/home/mjharvey/miniconda3/share
    Memory level set to 256.000 MB

  ==> Input File <==

--------------------------------------------------------------------------
set {
	reference rhf
	basis 6-31G*
}


set_num_threads( 1 )
memory 2 gb

molecule MOL {
0 1

H	 1.148083	 -1.049780	 0.784252
O	 1.319262	 -0.618148	 -0.041729
C	 0.709265	 0.639550	 -0.033818
C	 1.675785	 1.794008	 0.006739
H	 0.076589	 0.663247	 0.846161
H	 0.050350	 0.755492	 -0.893710
C	 2.977169	 1.691737	 0.187582
H	 1.228019	 2.767196	 -0.123239
H	 3.454416	 0.740478	 0.338481
H	 3.609559	 2.561084	 0.204750

	symmetry c1
}
set optking {
	frozen_dihedral = ("
		5 3 4 7,
		3 4 7 9
	")
}

ee = energy('scf')
oeprop('DIPOLE', 'QUADRUPOLE', 'MULLIKEN_CHARGES')
f=open( 'psi4out.xyz', 'w' )
f.write( "10  " )
f.write( str(ee) + "\n" )
f.write( MOL.save_string_xyz() )
f.close()
--------------------------------------------------------------------------

  Memory set to   2.000 GiB by Python script.

*** tstart() called on cx1-3-5-2.cx1.hpc.ic.ac.uk
*** at Tue Jul  5 16:28:39 2016


         ---------------------------------------------------------
                                   SCF
            by Justin Turney, Rob Parrish, and Andy Simmonett
                              RHF Reference
                        1 Threads,   2000 MiB Core
         ---------------------------------------------------------

  ==> Geometry <==

    Molecular point group: c1
    Full point group: C1

    Geometry (in Angstrom), charge = 0, multiplicity = 1:

       Center              X                  Y                   Z               Mass       
    ------------   -----------------  -----------------  -----------------  -----------------
           H         -0.490217036808    -1.844110230586     0.742483349197     1.007825032070
           O         -0.319038036808    -1.412478230586    -0.083497650803    15.994914619560
           C         -0.929035036808    -0.154780230586    -0.075586650803    12.000000000000
           C          0.037484963192     0.999677769414    -0.035029650803    12.000000000000
           H         -1.561711036808    -0.131083230586     0.804392349197     1.007825032070
           H         -1.587950036808    -0.038838230586    -0.935478650803     1.007825032070
           C          1.338868963192     0.897406769414     0.145813349197    12.000000000000
           H         -0.410281036808     1.972865769414    -0.165007650803     1.007825032070
           H          1.816115963192    -0.053852230586     0.296712349197     1.007825032070
           H          1.971258963192     1.766753769414     0.162981349197     1.007825032070

  Running in c1 symmetry.

  Rotational constants: A =      0.58693  B =      0.19440  C =      0.15187 [cm^-1]
  Rotational constants: A =  17595.71147  B =   5828.04636  C =   4552.83614 [MHz]
  Nuclear repulsion =  119.056749087557364

  Charge       = 0
  Multiplicity = 1
  Electrons    = 32
  Nalpha       = 16
  Nbeta        = 16

  ==> Algorithm <==

  SCF Algorithm Type is DF.
  DIIS enabled.
  MOM disabled.
  Fractional occupation disabled.
  Guess Type is CORE.
  Energy threshold   = 1.00e-06
  Density threshold  = 1.00e-06
  Integral threshold = 0.00e+00

  ==> Primary Basis <==

  Basis Set: 6-31G*
    Number of shells: 36
    Number of basis function: 72
    Number of Cartesian functions: 72
    Spherical Harmonics?: false
    Max angular momentum: 2

  ==> Pre-Iterations <==

   -------------------------------------------------------
    Irrep   Nso     Nmo     Nalpha   Nbeta   Ndocc  Nsocc
   -------------------------------------------------------
     A         72      72       0       0       0       0
   -------------------------------------------------------
    Total      72      72      16      16      16       0
   -------------------------------------------------------

 OEINTS: Overlap, kinetic, potential, dipole, and quadrupole integrals
         stored in file 35.

  ==> Integral Setup <==

  ==> DFJK: Density-Fitted J/K Matrices <==

    J tasked:                  Yes
    K tasked:                  Yes
    wK tasked:                  No
    OpenMP threads:              1
    Integrals threads:           1
    Memory (MB):              1430
    Algorithm:                Core
    Integral Cache:           NONE
    Schwarz Cutoff:          1E-12
    Fitting Condition:       1E-12

   => Auxiliary Basis Set <=

  Basis Set: 
    Number of shells: 150
    Number of basis function: 474
    Number of Cartesian functions: 474
    Spherical Harmonics?: false
    Max angular momentum: 3

  Minimum eigenvalue in the overlap matrix is 3.7159501009E-03.
  Using Symmetric Orthogonalization.
  SCF Guess: Core (One-Electron) Hamiltonian.

  ==> Iterations <==

                           Total Energy        Delta E     RMS |[F,P]|

   @DF-RHF iter   1:  -158.45702334120483   -1.58457e+02   8.92396e-02 
   @DF-RHF iter   2:  -122.09674288380950    3.63603e+01   7.94384e-02 DIIS
   @DF-RHF iter   3:  -166.34693000052107   -4.42502e+01   6.31860e-02 DIIS
   @DF-RHF iter   4:  -190.58898973741623   -2.42421e+01   2.22285e-02 DIIS
   @DF-RHF iter   5:  -191.83497118443296   -1.24598e+00   5.38333e-03 DIIS
   @DF-RHF iter   6:  -191.90495030127124   -6.99791e-02   1.52239e-03 DIIS
   @DF-RHF iter   7:  -191.91176389216184   -6.81359e-03   6.19069e-04 DIIS
   @DF-RHF iter   8:  -191.91292514288676   -1.16125e-03   2.74377e-04 DIIS
   @DF-RHF iter   9:  -191.91316153913522   -2.36396e-04   1.45701e-04 DIIS
   @DF-RHF iter  10:  -191.91323444573766   -7.29066e-05   3.68279e-05 DIIS
   @DF-RHF iter  11:  -191.91323861883166   -4.17309e-06   7.33626e-06 DIIS
   @DF-RHF iter  12:  -191.91323893810227   -3.19271e-07   2.29382e-06 DIIS
   @DF-RHF iter  13:  -191.91323897849810   -4.03958e-08   6.02022e-07 DIIS

  ==> Post-Iterations <==

    Orbital Energies (a.u.)
    -----------------------

    Doubly Occupied:                                                      

       1A    -20.559344     2A    -11.278883     3A    -11.225397  
       4A    -11.212775     5A     -1.368999     6A     -1.053493  
       7A     -0.923633     8A     -0.758163     9A     -0.702726  
      10A     -0.653690    11A     -0.614558    12A     -0.573413  
      13A     -0.510667    14A     -0.504125    15A     -0.445420  
      16A     -0.357816  

    Virtual:                                                              

      17A      0.185947    18A      0.220811    19A      0.273003  
      20A      0.294232    21A      0.322173    22A      0.339100  
      23A      0.358525    24A      0.405618    25A      0.470929  
      26A      0.530121    27A      0.734156    28A      0.764403  
      29A      0.782901    30A      0.828403    31A      0.867231  
      32A      0.909557    33A      0.917160    34A      0.926486  
      35A      1.025316    36A      1.086584    37A      1.138620  
      38A      1.140412    39A      1.175722    40A      1.198055  
      41A      1.222630    42A      1.235206    43A      1.342107  
      44A      1.364209    45A      1.413823    46A      1.482287  
      47A      1.519857    48A      1.669018    49A      1.773503  
      50A      1.857937    51A      1.943848    52A      1.971583  
      53A      2.035710    54A      2.161167    55A      2.281816  
      56A      2.287113    57A      2.362523    58A      2.497160  
      59A      2.523371    60A      2.571847    61A      2.636282  
      62A      2.768425    63A      2.812054    64A      2.827111  
      65A      2.912626    66A      3.102317    67A      3.215333  
      68A      3.328294    69A      4.211011    70A      4.545788  
      71A      4.646899    72A      4.857041  

    Final Occupation by Irrep:
              A 
    DOCC [    16 ]

  Energy converged.

  @DF-RHF Final Energy:  -191.91323897849810

   => Energetics <=

    Nuclear Repulsion Energy =            119.0567490875573640
    One-Electron Energy =                -496.4537889099716494
    Two-Electron Energy =                 185.4838008439162422
    DFT Exchange-Correlation Energy =       0.0000000000000000
    Empirical Dispersion Energy =           0.0000000000000000
    PCM Polarization Energy =               0.0000000000000000
    EFP Energy =                            0.0000000000000000
    Total Energy =                       -191.9132389784980433

    Alert: EFP and PCM quantities not currently incorporated into SCF psivars.

Properties will be evaluated at   0.000000,   0.000000,   0.000000 Bohr
  ==> Properties <==


Properties computed using the SCF density matrix

  Nuclear Dipole Moment: (a.u.)
     X:    -0.2479      Y:     1.5604      Z:     0.8490

  Electronic Dipole Moment: (a.u.)
     X:    -0.1800      Y:    -1.3762      Z:    -0.2550

  Dipole Moment: (a.u.)
     X:    -0.4278      Y:     0.1842      Z:     0.5941     Total:     0.7549

  Dipole Moment: (Debye)
     X:    -1.0875      Y:     0.4681      Z:     1.5099     Total:     1.9188


  Saving occupied orbitals to File 180.

*** tstop() called on cx1-3-5-2.cx1.hpc.ic.ac.uk at Tue Jul  5 16:28:42 2016
Module time:
	user time   =       2.45 seconds =       0.04 minutes
	system time =       0.02 seconds =       0.00 minutes
	total time  =          3 seconds =       0.05 minutes
Total time:
	user time   =       2.45 seconds =       0.04 minutes
	system time =       0.02 seconds =       0.00 minutes
	total time  =          3 seconds =       0.05 minutes


Properties will be evaluated at   0.000000,   0.000000,   0.000000 Bohr

Properties computed using the  density matrix

  Nuclear Dipole Moment: (a.u.)
     X:    -0.2479      Y:     1.5604      Z:     0.8490

  Electronic Dipole Moment: (a.u.)
     X:    -0.1800      Y:    -1.3762      Z:    -0.2550

  Dipole Moment: (a.u.)
     X:    -0.4278      Y:     0.1842      Z:     0.5941     Total:     0.7549

  Dipole Moment: (Debye)
     X:    -1.0875      Y:     0.4681      Z:     1.5099     Total:     1.9188

  Quadrupole Moment: (Debye Ang)
    XX:   -22.9964     YY:   -24.2081     ZZ:   -25.3229
    XY:     0.4887     XZ:    -0.2376     YZ:    -3.5946

  Traceless Quadrupole Moment: (Debye Ang)
    XX:     1.1794     YY:    -0.0323     ZZ:    -1.1471
    XY:     0.4887     XZ:    -0.2376     YZ:    -3.5946

  Mulliken Charges: (a.u.)
   Center  Symbol    Alpha    Beta     Spin     Total
       1     H     0.27717  0.27717  0.00000  0.44566
       2     O     4.36832  4.36832  0.00000 -0.73664
       3     C     3.00147  3.00147  0.00000 -0.00294
       4     C     3.08850  3.08850  0.00000 -0.17700
       5     H     0.42799  0.42799  0.00000  0.14403
       6     H     0.41614  0.41614  0.00000  0.16773
       7     C     3.19171  3.19171  0.00000 -0.38342
       8     H     0.41182  0.41182  0.00000  0.17637
       9     H     0.40336  0.40336  0.00000  0.19328
      10     H     0.41353  0.41353  0.00000  0.17294

   Total alpha = 16.00000, Total beta = 16.00000, Total charge =  0.00000


*** PSI4 exiting successfully. Buy a developer a beer!
