    -----------------------------------------------------------------------
          Psi4: An Open-Source Ab Initio Electronic Structure Package
                              Psi4 (no tag) Driver

                          Git: Rev {detached?}  

    J. M. Turney, A. C. Simmonett, R. M. Parrish, E. G. Hohenstein,
    F. A. Evangelista, J. T. Fermann, B. J. Mintz, L. A. Burns, J. J. Wilke,
    M. L. Abrams, N. J. Russ, M. L. Leininger, C. L. Janssen, E. T. Seidl,
    W. D. Allen, H. F. Schaefer, R. A. King, E. F. Valeev, C. D. Sherrill,
    and T. D. Crawford, WIREs Comput. Mol. Sci. 2, 556-565 (2012)
    (doi: 10.1002/wcms.93)

                         Additional Contributions by
    A. E. DePrince, M. Saitow, U. Bozkaya, A. Yu. Sokolov
    -----------------------------------------------------------------------


    Psi4 started on: Tue Jul  5 16:35:30 2016

    Process ID:  12257
    PSI4DATADIR: /export131/home/mjharvey/miniconda3/share
    Memory level set to 256.000 MB

  ==> Input File <==

--------------------------------------------------------------------------
set {
	reference rhf
	basis 6-31G*
}


set_num_threads( 1 )
memory 2 gb

molecule MOL {
0 1

H	 2.866480	 -0.465706	 0.876907
C	 2.405773	 -0.024801	 0.000000
N	 0.988830	 -0.304158	 0.000000
H	 2.866480	 -0.465706	 -0.876907
H	 2.629928	 1.045948	 0.000000
C	 0.689801	 -1.648038	 -0.458842
C	 0.231679	 0.675630	 -0.756773
H	 1.021135	 -1.804332	 -1.490486
H	 1.214808	 -2.361962	 0.167997
C	 -0.806594	 -1.899338	 -0.371435
H	 0.421228	 1.663202	 -0.348093
H	 0.529629	 0.688661	 -1.810127
C	 -1.252567	 0.362710	 -0.661465
H	 -1.058300	 -2.863875	 -0.792538
H	 -1.118959	 -1.883393	 0.671227
O	 -1.518814	 -0.939671	 -1.100635
H	 -1.825951	 1.029770	 -1.291766
H	 -1.585915	 0.485081	 0.367551

	symmetry c1
}
ee = energy('scf')
oeprop('DIPOLE', 'QUADRUPOLE', 'MULLIKEN_CHARGES')
f=open( 'psi4out.xyz', 'w' )
f.write( "18  " )
f.write( str(ee) + "\n" )
f.write( MOL.save_string_xyz() )
f.close()
--------------------------------------------------------------------------

  Memory set to   2.000 GiB by Python script.

*** tstart() called on cx1-3-15-4.cx1.hpc.ic.ac.uk
*** at Tue Jul  5 16:35:30 2016


         ---------------------------------------------------------
                                   SCF
            by Justin Turney, Rob Parrish, and Andy Simmonett
                              RHF Reference
                        1 Threads,   2000 MiB Core
         ---------------------------------------------------------

  ==> Geometry <==

    Molecular point group: c1
    Full point group: C1

    Geometry (in Angstrom), charge = 0, multiplicity = 1:

       Center              X                  Y                   Z               Mass       
    ------------   -----------------  -----------------  -----------------  -----------------
           H          2.759859158022     0.075091963075     1.363120096829     1.007825032070
           C          2.299152158022     0.515996963075     0.486213096829    12.000000000000
           N          0.882209158022     0.236639963075     0.486213096829    14.003074004780
           H          2.759859158022     0.075091963075    -0.390693903171     1.007825032070
           H          2.523307158022     1.586745963075     0.486213096829     1.007825032070
           C          0.583180158022    -1.107240036925     0.027371096829    12.000000000000
           C          0.125058158022     1.216427963075    -0.270559903171    12.000000000000
           H          0.914514158022    -1.263534036925    -1.004272903171     1.007825032070
           H          1.108187158022    -1.821164036925     0.654210096829     1.007825032070
           C         -0.913214841978    -1.358540036925     0.114778096829    12.000000000000
           H          0.314607158022     2.203999963075     0.138120096829     1.007825032070
           H          0.423008158022     1.229458963075    -1.323913903171     1.007825032070
           C         -1.359187841978     0.903507963075    -0.175251903171    12.000000000000
           H         -1.164920841978    -2.323077036925    -0.306324903171     1.007825032070
           H         -1.225579841978    -1.342595036925     1.157440096829     1.007825032070
           O         -1.625434841978    -0.398873036925    -0.614421903171    15.994914619560
           H         -1.932571841978     1.570567963075    -0.805552903171     1.007825032070
           H         -1.692535841978     1.025878963075     0.853764096829     1.007825032070

  Running in c1 symmetry.

  Rotational constants: A =      0.16247  B =      0.07908  C =      0.05780 [cm^-1]
  Rotational constants: A =   4870.63375  B =   2370.85699  C =   1732.81877 [MHz]
  Nuclear repulsion =  341.553254479633779

  Charge       = 0
  Multiplicity = 1
  Electrons    = 56
  Nalpha       = 28
  Nbeta        = 28

  ==> Algorithm <==

  SCF Algorithm Type is DF.
  DIIS enabled.
  MOM disabled.
  Fractional occupation disabled.
  Guess Type is CORE.
  Energy threshold   = 1.00e-06
  Density threshold  = 1.00e-06
  Integral threshold = 0.00e+00

  ==> Primary Basis <==

  Basis Set: 6-31G*
    Number of shells: 64
    Number of basis function: 127
    Number of Cartesian functions: 127
    Spherical Harmonics?: false
    Max angular momentum: 2

  ==> Pre-Iterations <==

   -------------------------------------------------------
    Irrep   Nso     Nmo     Nalpha   Nbeta   Ndocc  Nsocc
   -------------------------------------------------------
     A        127     127       0       0       0       0
   -------------------------------------------------------
    Total     127     127      28      28      28       0
   -------------------------------------------------------

 OEINTS: Overlap, kinetic, potential, dipole, and quadrupole integrals
         stored in file 35.

  ==> Integral Setup <==

  ==> DFJK: Density-Fitted J/K Matrices <==

    J tasked:                  Yes
    K tasked:                  Yes
    wK tasked:                  No
    OpenMP threads:              1
    Integrals threads:           1
    Memory (MB):              1430
    Algorithm:                Core
    Integral Cache:           NONE
    Schwarz Cutoff:          1E-12
    Fitting Condition:       1E-12

   => Auxiliary Basis Set <=

  Basis Set: 
    Number of shells: 267
    Number of basis function: 842
    Number of Cartesian functions: 842
    Spherical Harmonics?: false
    Max angular momentum: 3

  Minimum eigenvalue in the overlap matrix is 3.2314921617E-03.
  Using Symmetric Orthogonalization.
  SCF Guess: Core (One-Electron) Hamiltonian.

  ==> Iterations <==

                           Total Energy        Delta E     RMS |[F,P]|

   @DF-RHF iter   1:  -254.48755634491306   -2.54488e+02   7.04505e-02 
   @DF-RHF iter   2:  -176.08816929461557    7.83994e+01   7.37868e-02 DIIS
   @DF-RHF iter   3:  -269.56061874341049   -9.34724e+01   5.33593e-02 DIIS
   @DF-RHF iter   4:  -283.91150914621278   -1.43509e+01   5.75869e-02 DIIS
   @DF-RHF iter   5:  -324.32898874917578   -4.04175e+01   9.91131e-03 DIIS
   @DF-RHF iter   6:  -324.88958918497178   -5.60600e-01   4.38218e-03 DIIS
   @DF-RHF iter   7:  -325.01215192932750   -1.22563e-01   1.21353e-03 DIIS
   @DF-RHF iter   8:  -325.02445227130556   -1.23003e-02   3.09289e-04 DIIS
   @DF-RHF iter   9:  -325.02570694157316   -1.25467e-03   7.01185e-05 DIIS
   @DF-RHF iter  10:  -325.02575537760697   -4.84360e-05   3.10594e-05 DIIS
   @DF-RHF iter  11:  -325.02576810050186   -1.27229e-05   5.22513e-06 DIIS
   @DF-RHF iter  12:  -325.02576853337598   -4.32874e-07   1.47540e-06 DIIS
   @DF-RHF iter  13:  -325.02576856645828   -3.30823e-08   3.28337e-07 DIIS

  ==> Post-Iterations <==

    Orbital Energies (a.u.)
    -----------------------

    Doubly Occupied:                                                      

       1A    -20.553939     2A    -15.547790     3A    -11.266401  
       4A    -11.265699     5A    -11.244696     6A    -11.243667  
       7A    -11.240763     8A     -1.383330     9A     -1.232126  
      10A     -1.038390    11A     -0.980987    12A     -0.882901  
      13A     -0.868681    14A     -0.774908    15A     -0.683259  
      16A     -0.645557    17A     -0.643268    18A     -0.632600  
      19A     -0.629634    20A     -0.570957    21A     -0.557445  
      22A     -0.542938    23A     -0.527318    24A     -0.501348  
      25A     -0.483934    26A     -0.452161    27A     -0.407559  
      28A     -0.351368  

    Virtual:                                                              

      29A      0.234712    30A      0.258401    31A      0.274232  
      32A      0.284222    33A      0.307710    34A      0.312882  
      35A      0.316266    36A      0.321923    37A      0.337945  
      38A      0.338939    39A      0.350076    40A      0.360297  
      41A      0.387014    42A      0.426796    43A      0.442164  
      44A      0.447268    45A      0.469058    46A      0.485937  
      47A      0.721996    48A      0.732939    49A      0.746865  
      50A      0.785951    51A      0.795346    52A      0.809080  
      53A      0.833770    54A      0.844361    55A      0.888573  
      56A      0.908765    57A      0.934325    58A      0.965717  
      59A      0.978477    60A      1.061131    61A      1.066202  
      62A      1.105776    63A      1.112238    64A      1.129540  
      65A      1.135541    66A      1.151661    67A      1.165809  
      68A      1.175036    69A      1.190220    70A      1.199656  
      71A      1.201767    72A      1.235195    73A      1.245863  
      74A      1.250078    75A      1.299969    76A      1.325273  
      77A      1.401234    78A      1.472917    79A      1.529860  
      80A      1.627056    81A      1.639634    82A      1.654220  
      83A      1.668200    84A      1.696760    85A      1.724305  
      86A      1.874942    87A      1.903758    88A      1.984685  
      89A      2.002965    90A      2.074104    91A      2.155359  
      92A      2.186382    93A      2.206882    94A      2.232836  
      95A      2.302451    96A      2.323263    97A      2.353880  
      98A      2.367574    99A      2.406067   100A      2.427852  
     101A      2.449293   102A      2.487596   103A      2.506415  
     104A      2.533908   105A      2.606067   106A      2.619837  
     107A      2.656828   108A      2.679955   109A      2.775504  
     110A      2.783033   111A      2.806736   112A      2.895159  
     113A      2.919072   114A      2.942537   115A      3.084584  
     116A      3.136675   117A      3.160238   118A      3.226720  
     119A      3.253987   120A      3.327683   121A      4.396833  
     122A      4.509834   123A      4.644527   124A      4.696761  
     125A      4.769632   126A      4.941677   127A      4.953559  

    Final Occupation by Irrep:
              A 
    DOCC [    28 ]

  Energy converged.

  @DF-RHF Final Energy:  -325.02576856645828

   => Energetics <=

    Nuclear Repulsion Energy =            341.5532544796337788
    One-Electron Energy =               -1118.8508332127746598
    Two-Electron Energy =                 452.2718101666826556
    DFT Exchange-Correlation Energy =       0.0000000000000000
    Empirical Dispersion Energy =           0.0000000000000000
    PCM Polarization Energy =               0.0000000000000000
    EFP Energy =                            0.0000000000000000
    Total Energy =                       -325.0257685664582255

    Alert: EFP and PCM quantities not currently incorporated into SCF psivars.

Properties will be evaluated at   0.000000,   0.000000,   0.000000 Bohr
  ==> Properties <==


Properties computed using the SCF density matrix

  Nuclear Dipole Moment: (a.u.)
     X:     4.4780      Y:     0.9503      Z:     0.7663

  Electronic Dipole Moment: (a.u.)
     X:    -3.9410      Y:    -0.8129      Z:    -0.6333

  Dipole Moment: (a.u.)
     X:     0.5370      Y:     0.1374      Z:     0.1331     Total:     0.5701

  Dipole Moment: (Debye)
     X:     1.3650      Y:     0.3493      Z:     0.3382     Total:     1.4490


  Saving occupied orbitals to File 180.

*** tstop() called on cx1-3-15-4.cx1.hpc.ic.ac.uk at Tue Jul  5 16:35:42 2016
Module time:
	user time   =      11.59 seconds =       0.19 minutes
	system time =       0.07 seconds =       0.00 minutes
	total time  =         12 seconds =       0.20 minutes
Total time:
	user time   =      11.59 seconds =       0.19 minutes
	system time =       0.07 seconds =       0.00 minutes
	total time  =         12 seconds =       0.20 minutes


Properties will be evaluated at   0.000000,   0.000000,   0.000000 Bohr

Properties computed using the  density matrix

  Nuclear Dipole Moment: (a.u.)
     X:     4.4780      Y:     0.9503      Z:     0.7663

  Electronic Dipole Moment: (a.u.)
     X:    -3.9410      Y:    -0.8129      Z:    -0.6333

  Dipole Moment: (a.u.)
     X:     0.5370      Y:     0.1374      Z:     0.1331     Total:     0.5701

  Dipole Moment: (Debye)
     X:     1.3650      Y:     0.3493      Z:     0.3382     Total:     1.4490

  Quadrupole Moment: (Debye Ang)
    XX:   -45.8132     YY:   -39.8365     ZZ:   -46.6452
    XY:    -1.2220     XZ:    -1.8498     YZ:    -1.2922

  Traceless Quadrupole Moment: (Debye Ang)
    XX:    -1.7149     YY:     4.2618     ZZ:    -2.5469
    XY:    -1.2220     XZ:    -1.8498     YZ:    -1.2922

  Mulliken Charges: (a.u.)
   Center  Symbol    Alpha    Beta     Spin     Total
       1     H     0.41459  0.41459  0.00000  0.17082
       2     C     3.14120  3.14120  0.00000 -0.28240
       3     N     3.78749  3.78749  0.00000 -0.57497
       4     H     0.43003  0.43003  0.00000  0.13994
       5     H     0.41725  0.41725  0.00000  0.16550
       6     C     3.06941  3.06941  0.00000 -0.13883
       7     C     3.06875  3.06875  0.00000 -0.13750
       8     H     0.42788  0.42788  0.00000  0.14424
       9     H     0.41620  0.41620  0.00000  0.16759
      10     C     2.99738  2.99738  0.00000  0.00524
      11     H     0.41660  0.41660  0.00000  0.16680
      12     H     0.42910  0.42910  0.00000  0.14179
      13     C     2.99766  2.99766  0.00000  0.00468
      14     H     0.41322  0.41322  0.00000  0.17357
      15     H     0.42372  0.42372  0.00000  0.15257
      16     O     4.31204  4.31204  0.00000 -0.62407
      17     H     0.41351  0.41351  0.00000  0.17299
      18     H     0.42398  0.42398  0.00000  0.15204

   Total alpha = 28.00000, Total beta = 28.00000, Total charge = -0.00000


*** PSI4 exiting successfully. Buy a developer a beer!
