    -----------------------------------------------------------------------
          Psi4: An Open-Source Ab Initio Electronic Structure Package
                              Psi4 (no tag) Driver

                          Git: Rev {detached?}  

    J. M. Turney, A. C. Simmonett, R. M. Parrish, E. G. Hohenstein,
    F. A. Evangelista, J. T. Fermann, B. J. Mintz, L. A. Burns, J. J. Wilke,
    M. L. Abrams, N. J. Russ, M. L. Leininger, C. L. Janssen, E. T. Seidl,
    W. D. Allen, H. F. Schaefer, R. A. King, E. F. Valeev, C. D. Sherrill,
    and T. D. Crawford, WIREs Comput. Mol. Sci. 2, 556-565 (2012)
    (doi: 10.1002/wcms.93)

                         Additional Contributions by
    A. E. DePrince, M. Saitow, U. Bozkaya, A. Yu. Sokolov
    -----------------------------------------------------------------------


    Psi4 started on: Tue Jul  5 16:40:55 2016

    Process ID:  25057
    PSI4DATADIR: /export131/home/mjharvey/miniconda3/share
    Memory level set to 256.000 MB

  ==> Input File <==

--------------------------------------------------------------------------
set {
	reference rhf
	basis 6-31G*
}


set_num_threads( 1 )
memory 2 gb

molecule MOL {
0 1

H	 -1.638371	 2.541244	 0.185725
C	 -0.615930	 2.181805	 0.192230
C	 -0.603454	 0.661669	 0.000000
H	 -0.162487	 2.457189	 1.136684
H	 -0.073795	 2.677985	 -0.603594
C	 0.763625	 0.112519	 0.000000
H	 -1.159291	 0.170451	 0.790138
H	 -1.071160	 0.389847	 -0.939113
N	 1.813038	 -0.320305	 0.000000

	symmetry c1
}
ee = energy('scf')
oeprop('DIPOLE', 'QUADRUPOLE', 'MULLIKEN_CHARGES')
f=open( 'psi4out.xyz', 'w' )
f.write( "9  " )
f.write( str(ee) + "\n" )
f.write( MOL.save_string_xyz() )
f.close()
--------------------------------------------------------------------------

  Memory set to   2.000 GiB by Python script.

*** tstart() called on cx1-3-16-4.cx1.hpc.ic.ac.uk
*** at Tue Jul  5 16:40:55 2016


         ---------------------------------------------------------
                                   SCF
            by Justin Turney, Rob Parrish, and Andy Simmonett
                              RHF Reference
                        1 Threads,   2000 MiB Core
         ---------------------------------------------------------

  ==> Geometry <==

    Molecular point group: c1
    Full point group: C1

    Geometry (in Angstrom), charge = 0, multiplicity = 1:

       Center              X                  Y                   Z               Mass       
    ------------   -----------------  -----------------  -----------------  -----------------
           H         -1.925092296685     1.827467469562     0.133382269150     1.007825032070
           C         -0.902651296685     1.468028469562     0.139887269150    12.000000000000
           C         -0.890175296685    -0.052107530438    -0.052342730850    12.000000000000
           H         -0.449208296685     1.743412469562     1.084341269150     1.007825032070
           H         -0.360516296685     1.964208469562    -0.655936730850     1.007825032070
           C          0.476903703315    -0.601257530438    -0.052342730850    12.000000000000
           H         -1.446012296685    -0.543325530438     0.737795269150     1.007825032070
           H         -1.357881296685    -0.323929530438    -0.991455730850     1.007825032070
           N          1.526316703315    -1.034081530438    -0.052342730850    14.003074004780

  Running in c1 symmetry.

  Rotational constants: A =      0.94983  B =      0.15688  C =      0.14163 [cm^-1]
  Rotational constants: A =  28475.32839  B =   4703.14432  C =   4246.02121 [MHz]
  Nuclear repulsion =  103.384720023774108

  Charge       = 0
  Multiplicity = 1
  Electrons    = 30
  Nalpha       = 15
  Nbeta        = 15

  ==> Algorithm <==

  SCF Algorithm Type is DF.
  DIIS enabled.
  MOM disabled.
  Fractional occupation disabled.
  Guess Type is CORE.
  Energy threshold   = 1.00e-06
  Density threshold  = 1.00e-06
  Integral threshold = 0.00e+00

  ==> Primary Basis <==

  Basis Set: 6-31G*
    Number of shells: 34
    Number of basis function: 70
    Number of Cartesian functions: 70
    Spherical Harmonics?: false
    Max angular momentum: 2

  ==> Pre-Iterations <==

   -------------------------------------------------------
    Irrep   Nso     Nmo     Nalpha   Nbeta   Ndocc  Nsocc
   -------------------------------------------------------
     A         70      70       0       0       0       0
   -------------------------------------------------------
    Total      70      70      15      15      15       0
   -------------------------------------------------------

 OEINTS: Overlap, kinetic, potential, dipole, and quadrupole integrals
         stored in file 35.

  ==> Integral Setup <==

  ==> DFJK: Density-Fitted J/K Matrices <==

    J tasked:                  Yes
    K tasked:                  Yes
    wK tasked:                  No
    OpenMP threads:              1
    Integrals threads:           1
    Memory (MB):              1430
    Algorithm:                Core
    Integral Cache:           NONE
    Schwarz Cutoff:          1E-12
    Fitting Condition:       1E-12

   => Auxiliary Basis Set <=

  Basis Set: 
    Number of shells: 141
    Number of basis function: 449
    Number of Cartesian functions: 449
    Spherical Harmonics?: false
    Max angular momentum: 3

  Minimum eigenvalue in the overlap matrix is 1.3878896863E-03.
  Using Symmetric Orthogonalization.
  SCF Guess: Core (One-Electron) Hamiltonian.

  ==> Iterations <==

                           Total Energy        Delta E     RMS |[F,P]|

   @DF-RHF iter   1:  -133.95231360032432   -1.33952e+02   8.77857e-02 
   @DF-RHF iter   2:  -109.96540606338907    2.39869e+01   8.01952e-02 DIIS
   @DF-RHF iter   3:  -154.23884799830529   -4.42734e+01   4.92473e-02 DIIS
   @DF-RHF iter   4:  -159.54077545693423   -5.30193e+00   4.62679e-02 DIIS
   @DF-RHF iter   5:  -170.63870609232714   -1.10979e+01   1.15840e-02 DIIS
   @DF-RHF iter   6:  -170.89859935359306   -2.59893e-01   5.65723e-03 DIIS
   @DF-RHF iter   7:  -170.96012489812188   -6.15255e-02   7.25298e-04 DIIS
   @DF-RHF iter   8:  -170.96206187392693   -1.93698e-03   3.24739e-04 DIIS
   @DF-RHF iter   9:  -170.96236748833076   -3.05614e-04   6.90467e-05 DIIS
   @DF-RHF iter  10:  -170.96240074719367   -3.32589e-05   2.92520e-05 DIIS
   @DF-RHF iter  11:  -170.96241108180459   -1.03346e-05   1.39162e-05 DIIS
   @DF-RHF iter  12:  -170.96241418024590   -3.09844e-06   4.14532e-06 DIIS
   @DF-RHF iter  13:  -170.96241441523375   -2.34988e-07   1.17429e-06 DIIS
   @DF-RHF iter  14:  -170.96241442831314   -1.30794e-08   3.45390e-07 DIIS

  ==> Post-Iterations <==

    Orbital Energies (a.u.)
    -----------------------

    Doubly Occupied:                                                      

       1A    -15.567054     2A    -11.283676     3A    -11.269381  
       4A    -11.245857     5A     -1.224541     6A     -1.082309  
       7A     -0.911725     8A     -0.699485     9A     -0.659460  
      10A     -0.587676    11A     -0.560814    12A     -0.543959  
      13A     -0.536609    14A     -0.458553    15A     -0.458486  

    Virtual:                                                              

      16A      0.194614    17A      0.214943    18A      0.244611  
      19A      0.279557    20A      0.286924    21A      0.308385  
      22A      0.350434    23A      0.361110    24A      0.413533  
      25A      0.461540    26A      0.716579    27A      0.717470  
      28A      0.740859    29A      0.788417    30A      0.805342  
      31A      0.864294    32A      0.891713    33A      0.947886  
      34A      0.978516    35A      1.064919    36A      1.100880  
      37A      1.118829    38A      1.123913    39A      1.148076  
      40A      1.176486    41A      1.177206    42A      1.225098  
      43A      1.344573    44A      1.520351    45A      1.657005  
      46A      1.678798    47A      1.707203    48A      1.789615  
      49A      1.812033    50A      1.918571    51A      1.994451  
      52A      2.132264    53A      2.203741    54A      2.271851  
      55A      2.289048    56A      2.314313    57A      2.336062  
      58A      2.544743    59A      2.579607    60A      2.643477  
      61A      2.663518    62A      2.850425    63A      3.128770  
      64A      3.140442    65A      3.205272    66A      3.644110  
      67A      4.465402    68A      4.528102    69A      4.704837  
      70A      5.071121  

    Final Occupation by Irrep:
              A 
    DOCC [    15 ]

  Energy converged.

  @DF-RHF Final Energy:  -170.96241442831314

   => Energetics <=

    Nuclear Repulsion Energy =            103.3847200237741077
    One-Electron Energy =                -434.5150901415849489
    Two-Electron Energy =                 160.1679556894976599
    DFT Exchange-Correlation Energy =       0.0000000000000000
    Empirical Dispersion Energy =           0.0000000000000000
    PCM Polarization Energy =               0.0000000000000000
    EFP Energy =                            0.0000000000000000
    Total Energy =                       -170.9624144283131955

    Alert: EFP and PCM quantities not currently incorporated into SCF psivars.

Properties will be evaluated at   0.000000,   0.000000,   0.000000 Bohr
  ==> Properties <==


Properties computed using the SCF density matrix

  Nuclear Dipole Moment: (a.u.)
     X:    -5.1968      Y:     4.3790      Z:     0.2890

  Electronic Dipole Moment: (a.u.)
     X:     3.7158      Y:    -3.6871      Z:    -0.2777

  Dipole Moment: (a.u.)
     X:    -1.4810      Y:     0.6919      Z:     0.0113     Total:     1.6347

  Dipole Moment: (Debye)
     X:    -3.7644      Y:     1.7585      Z:     0.0288     Total:     4.1550


  Saving occupied orbitals to File 180.

*** tstop() called on cx1-3-16-4.cx1.hpc.ic.ac.uk at Tue Jul  5 16:40:58 2016
Module time:
	user time   =       2.37 seconds =       0.04 minutes
	system time =       0.03 seconds =       0.00 minutes
	total time  =          3 seconds =       0.05 minutes
Total time:
	user time   =       2.37 seconds =       0.04 minutes
	system time =       0.03 seconds =       0.00 minutes
	total time  =          3 seconds =       0.05 minutes


Properties will be evaluated at   0.000000,   0.000000,   0.000000 Bohr

Properties computed using the  density matrix

  Nuclear Dipole Moment: (a.u.)
     X:    -5.1968      Y:     4.3790      Z:     0.2890

  Electronic Dipole Moment: (a.u.)
     X:     3.7158      Y:    -3.6871      Z:    -0.2777

  Dipole Moment: (a.u.)
     X:    -1.4810      Y:     0.6919      Z:     0.0113     Total:     1.6347

  Dipole Moment: (Debye)
     X:    -3.7644      Y:     1.7585      Z:     0.0288     Total:     4.1550

  Quadrupole Moment: (Debye Ang)
    XX:   -28.4705     YY:   -25.9284     ZZ:   -23.9167
    XY:     3.2259     XZ:     0.1735     YZ:    -0.0888

  Traceless Quadrupole Moment: (Debye Ang)
    XX:    -2.3653     YY:     0.1768     ZZ:     2.1885
    XY:     3.2259     XZ:     0.1735     YZ:    -0.0888

  Mulliken Charges: (a.u.)
   Center  Symbol    Alpha    Beta     Spin     Total
       1     H     0.40903  0.40903  0.00000  0.18193
       2     C     3.24318  3.24318  0.00000 -0.48635
       3     C     3.18201  3.18201  0.00000 -0.36402
       4     H     0.40544  0.40544  0.00000  0.18912
       5     H     0.40545  0.40545  0.00000  0.18910
       6     C     2.84830  2.84830  0.00000  0.30341
       7     H     0.38841  0.38841  0.00000  0.22318
       8     H     0.38844  0.38844  0.00000  0.22312
       9     N     3.72974  3.72974  0.00000 -0.45948

   Total alpha = 15.00000, Total beta = 15.00000, Total charge = -0.00000


*** PSI4 exiting successfully. Buy a developer a beer!
