
    -----------------------------------------------------------------------
          Psi4: An Open-Source Ab Initio Electronic Structure Package
                               Psi4 1.1 release

                         Git: Rev {HEAD} add49b9 


    R. M. Parrish, L. A. Burns, D. G. A. Smith, A. C. Simmonett,
    A. E. DePrince III, E. G. Hohenstein, U. Bozkaya, A. Yu. Sokolov,
    R. Di Remigio, R. M. Richard, J. F. Gonthier, A. M. James,
    H. R. McAlexander, A. Kumar, M. Saitow, X. Wang, B. P. Pritchard,
    P. Verma, H. F. Schaefer III, K. Patkowski, R. A. King, E. F. Valeev,
    F. A. Evangelista, J. M. Turney, T. D. Crawford, and C. D. Sherrill,
    J. Chem. Theory Comput. in press (2017).
    (doi: 10.1021/acs.jctc.7b00174)

    -----------------------------------------------------------------------


    Psi4 started on: Friday, 09 March 2018 11:14AM

    Process ID:  19160
    PSIDATADIR: /home/sdoerr/miniconda3/share/psi4
    Memory:     500.0 MiB
    Threads:    1
    
  ==> Input File <==

--------------------------------------------------------------------------
set_num_threads(1)
set_memory('2004 MB')

set { scf_mem_safety_factor 0.7 }

set { reference rks }
set { basis cc-pVDZ }

molecule MOL {
    0 1
    noreorient
    nocom
    symmetry c1
    O    1.141000   0.017000   0.083000
    C    2.558000   0.086000  -0.005000
    C    3.192000  -0.789000   1.067000
    O    4.610000  -0.719000   0.979000
    H    0.789000   0.590000  -0.620000
    H    2.874000   1.128000   0.115000
    H    2.871000  -0.243000  -1.001000
    H    2.876000  -1.830000   0.947000
    H    2.879000  -0.459000   2.064000
    H    4.933982  -1.636546   0.973376
}

set optking { frozen_dihedral = (" 2 3 4 10 ") }

energy, wfn = energy('B3LYP-D3', return_wfn=True)

import os
os.chdir(os.environ['HTMD_PSI4_WORKDIR'])

oeprop(wfn, 'DIPOLE', 'QUADRUPOLE', 'MULLIKEN_CHARGES')

with open('psi4out.xyz', 'w') as f:
    f.write('10 ' )
    f.write('%.12f\n' % energy)
    f.write(MOL.save_string_xyz())
--------------------------------------------------------------------------
  Threads set to 1 by Python driver.

  Memory set to   1.866 GiB by Python driver.

*** tstart() called on computer03
*** at Fri Mar  9 11:14:39 2018

   => Loading Basis Set <=

    Name: CC-PVDZ
    Role: ORBITAL
    Keyword: BASIS
    atoms 1, 4 entry O          line   190 file /home/sdoerr/miniconda3/share/psi4/basis/cc-pvdz.gbs 
    atoms 2-3  entry C          line   130 file /home/sdoerr/miniconda3/share/psi4/basis/cc-pvdz.gbs 
    atoms 5-10 entry H          line    20 file /home/sdoerr/miniconda3/share/psi4/basis/cc-pvdz.gbs 


         ---------------------------------------------------------
                                   SCF
            by Justin Turney, Rob Parrish, and Andy Simmonett
                              RKS Reference
                        1 Threads,   1911 MiB Core
         ---------------------------------------------------------

  ==> Geometry <==

    Molecular point group: c1
    Full point group: C1

    Geometry (in Angstrom), charge = 0, multiplicity = 1:

       Center              X                  Y                   Z               Mass       
    ------------   -----------------  -----------------  -----------------  -----------------
           O          1.141000000000     0.017000000000     0.083000000000    15.994914619560
           C          2.558000000000     0.086000000000    -0.005000000000    12.000000000000
           C          3.192000000000    -0.789000000000     1.067000000000    12.000000000000
           O          4.610000000000    -0.719000000000     0.979000000000    15.994914619560
           H          0.789000000000     0.590000000000    -0.620000000000     1.007825032070
           H          2.874000000000     1.128000000000     0.115000000000     1.007825032070
           H          2.871000000000    -0.243000000000    -1.001000000000     1.007825032070
           H          2.876000000000    -1.830000000000     0.947000000000     1.007825032070
           H          2.879000000000    -0.459000000000     2.064000000000     1.007825032070
           H          4.933982000000    -1.636546000000     0.973376000000     1.007825032070

  Running in c1 symmetry.

  Rotational constants: A =      0.81973  B =      0.02540  C =      0.02491 [cm^-1]
  Rotational constants: A =  24574.77306  B =    761.55004  C =    746.70935 [MHz]
  Nuclear repulsion =  129.529306285706014

  Charge       = 0
  Multiplicity = 1
  Electrons    = 34
  Nalpha       = 17
  Nbeta        = 17

  ==> Algorithm <==

  SCF Algorithm Type is DF.
  DIIS enabled.
  MOM disabled.
  Fractional occupation disabled.
  Guess Type is SAD.
  Energy threshold   = 1.00e-06
  Density threshold  = 1.00e-06
  Integral threshold = 0.00e+00

  ==> Primary Basis <==

  Basis Set: CC-PVDZ
    Blend: CC-PVDZ
    Number of shells: 42
    Number of basis function: 86
    Number of Cartesian functions: 90
    Spherical Harmonics?: true
    Max angular momentum: 2

  ==> DFT Potential <==

   => B3LYP Composite Functional <= 

    B3LYP Hybrid-GGA Exchange-Correlation Functional (VWN1-RPA)

    P.J. Stephens et. al., J. Phys. Chem., 98, 11623-11627, 1994

    Points   =           5000
    Deriv    =              1
    GGA      =           TRUE
    Meta     =          FALSE

    X_LRC        =          FALSE
    X_Hybrid     =           TRUE
    X_Alpha      =   2.000000E-01
    X_Omega      =   0.000000E+00
    C_LRC        =          FALSE
    C_Hybrid     =          FALSE
    C_Alpha      =   0.000000E+00
    C_Omega      =   0.000000E+00

   => Exchange Functionals <=

    0.8000    B3_X
    0.2000      HF 

   => Correlation Functionals <=

    0.1900 VWN3RPA_C
    0.8100   LYP_C

   => Molecular Quadrature <=

    Radial Scheme    =       TREUTLER
    Pruning Scheme   =           FLAT
    Nuclear Scheme   =       TREUTLER

    BS radius alpha  =              1
    Pruning alpha    =              1
    Radial Points    =             75
    Spherical Points =            302
    Total Points     =         222553
    Total Blocks     =            214
    Max Points       =           4766
    Max Functions    =             86

   => -D3ZERO: Empirical Dispersion <=

    Grimme's -D3 (zero-damping) Dispersion Correction
    Grimme S.; Antony J.; Ehrlich S.; Krieg H. (2010), J. Chem. Phys., 132: 154104

        S6 =   1.000000E+00
        S8 =   1.703000E+00
       SR6 =   1.261000E+00
    ALPHA6 =   1.400000E+01

   => Loading Basis Set <=

    Name: (CC-PVDZ AUX)
    Role: JKFIT
    Keyword: DF_BASIS_SCF
    atoms 1, 4 entry O          line   220 file /home/sdoerr/miniconda3/share/psi4/basis/cc-pvdz-jkfit.gbs 
    atoms 2-3  entry C          line   120 file /home/sdoerr/miniconda3/share/psi4/basis/cc-pvdz-jkfit.gbs 
    atoms 5-10 entry H          line    50 file /home/sdoerr/miniconda3/share/psi4/basis/cc-pvdz-jkfit.gbs 

  ==> Pre-Iterations <==

   -------------------------------------------------------
    Irrep   Nso     Nmo     Nalpha   Nbeta   Ndocc  Nsocc
   -------------------------------------------------------
     A         86      86       0       0       0       0
   -------------------------------------------------------
    Total      86      86      17      17      17       0
   -------------------------------------------------------

  ==> Integral Setup <==

  ==> DFJK: Density-Fitted J/K Matrices <==

    J tasked:                  Yes
    K tasked:                  Yes
    wK tasked:                  No
    OpenMP threads:              1
    Integrals threads:           1
    Memory (MB):              1337
    Algorithm:                Core
    Integral Cache:           NONE
    Schwarz Cutoff:          1E-12
    Fitting Condition:       1E-12

   => Auxiliary Basis Set <=

  Basis Set: (CC-PVDZ AUX)
    Blend: CC-PVDZ-JKFIT
    Number of shells: 150
    Number of basis function: 418
    Number of Cartesian functions: 474
    Spherical Harmonics?: true
    Max angular momentum: 3

  Minimum eigenvalue in the overlap matrix is 5.1831336668E-03.
  Using Symmetric Orthogonalization.

  SCF Guess: Superposition of Atomic Densities via on-the-fly atomic UHF.

  ==> Iterations <==

                           Total Energy        Delta E     RMS |[F,P]|

   @DF-RKS iter   0:  -231.01211421411443   -2.31012e+02   4.11763e-02 
   @DF-RKS iter   1:  -230.16801358140691    8.44101e-01   5.52697e-03 
   @DF-RKS iter   2:  -230.11032011076355    5.76935e-02   7.39416e-03 DIIS
   @DF-RKS iter   3:  -230.25536526134340   -1.45045e-01   6.65723e-04 DIIS
   @DF-RKS iter   4:  -230.25657165568879   -1.20639e-03   2.26434e-04 DIIS
   @DF-RKS iter   5:  -230.25675161715395   -1.79961e-04   4.81695e-05 DIIS
   @DF-RKS iter   6:  -230.25675965271478   -8.03556e-06   7.46907e-06 DIIS
   @DF-RKS iter   7:  -230.25675976502754   -1.12313e-07   4.32684e-06 DIIS
   @DF-RKS iter   8:  -230.25675981513672   -5.01092e-08   4.97043e-07 DIIS

  ==> Post-Iterations <==

    Orbital Energies (a.u.)
    -----------------------

    Doubly Occupied:                                                      

       1A    -19.132883     2A    -19.130630     3A    -10.226624  
       4A    -10.224125     5A     -1.019181     6A     -1.008613  
       7A     -0.731229     8A     -0.605621     9A     -0.525892  
      10A     -0.489757    11A     -0.460045    12A     -0.418305  
      13A     -0.395637    14A     -0.342654    15A     -0.322094  
      16A     -0.267036    17A     -0.263210  

    Virtual:                                                              

      18A      0.041577    19A      0.054426    20A      0.108429  
      21A      0.121651    22A      0.123789    23A      0.165277  
      24A      0.189394    25A      0.247314    26A      0.248376  
      27A      0.435250    28A      0.443624    29A      0.502645  
      30A      0.535786    31A      0.559479    32A      0.587716  
      33A      0.606741    34A      0.624360    35A      0.630609  
      36A      0.650991    37A      0.655528    38A      0.679670  
      39A      0.885733    40A      0.903694    41A      0.910312  
      42A      0.969462    43A      1.013802    44A      1.057418  
      45A      1.060782    46A      1.133051    47A      1.193125  
      48A      1.210642    49A      1.246913    50A      1.335105  
      51A      1.346307    52A      1.388458    53A      1.467216  
      54A      1.539921    55A      1.597219    56A      1.615176  
      57A      1.633390    58A      1.651252    59A      1.668296  
      60A      1.694682    61A      1.748626    62A      1.758045  
      63A      1.802357    64A      1.854194    65A      1.907299  
      66A      2.004299    67A      2.019277    68A      2.075835  
      69A      2.120573    70A      2.132412    71A      2.246652  
      72A      2.290694    73A      2.404398    74A      2.452767  
      75A      2.467595    76A      2.527945    77A      2.925001  
      78A      2.945235    79A      2.973406    80A      3.020914  
      81A      3.072214    82A      3.147016    83A      3.188739  
      84A      3.219934    85A      3.667165    86A      3.699374  

    Final Occupation by Irrep:
              A 
    DOCC [    17 ]

  Energy converged.

  @DF-RKS Final Energy:  -230.25675981513672

   => Energetics <=

    Nuclear Repulsion Energy =            129.5293062857060136
    One-Electron Energy =                -570.8120409615444260
    Two-Electron Energy =                 235.5695722032797050
    DFT Exchange-Correlation Energy =     -24.5391669025780175
    Empirical Dispersion Energy =          -0.0044304400000000
    PCM Polarization Energy =               0.0000000000000000
    EFP Energy =                            0.0000000000000000
    Total Energy =                       -230.2567598151367179



Properties will be evaluated at   0.000000,   0.000000,   0.000000 Bohr

Properties computed using the SCF density matrix

  Nuclear Dipole Moment: (a.u.)
     X:   184.6848      Y:   -23.2144      Z:    32.7799

  Electronic Dipole Moment: (a.u.)
     X:  -184.6905      Y:    22.9852      Z:   -33.1866

  Dipole Moment: (a.u.)
     X:    -0.0057      Y:    -0.2292      Z:    -0.4067     Total:     0.4669

  Dipole Moment: (Debye)
     X:    -0.0146      Y:    -0.5825      Z:    -1.0338     Total:     1.1867


*** tstop() called on computer03 at Fri Mar  9 11:15:35 2018
Module time:
	user time   =      53.56 seconds =       0.89 minutes
	system time =       0.47 seconds =       0.01 minutes
	total time  =         56 seconds =       0.93 minutes
Total time:
	user time   =      53.56 seconds =       0.89 minutes
	system time =       0.47 seconds =       0.01 minutes
	total time  =         56 seconds =       0.93 minutes


Properties will be evaluated at   0.000000,   0.000000,   0.000000 Bohr

Properties computed using the  density matrix

  Nuclear Dipole Moment: (a.u.)
     X:   184.6848      Y:   -23.2144      Z:    32.7799

  Electronic Dipole Moment: (a.u.)
     X:  -184.6905      Y:    22.9852      Z:   -33.1866

  Dipole Moment: (a.u.)
     X:    -0.0057      Y:    -0.2292      Z:    -0.4067     Total:     0.4669

  Dipole Moment: (Debye)
     X:    -0.0146      Y:    -0.5825      Z:    -1.0338     Total:     1.1867

  Quadrupole Moment: (Debye Ang)
    XX:   -26.8077     YY:   -20.2693     ZZ:   -24.1591
    XY:    -6.6721     XZ:    -0.9443     YZ:    -2.2628

  Traceless Quadrupole Moment: (Debye Ang)
    XX:    -3.0623     YY:     3.4761     ZZ:    -0.4138
    XY:    -6.6721     XZ:    -0.9443     YZ:    -2.2628

  Mulliken Charges: (a.u.)
   Center  Symbol    Alpha    Beta     Spin     Total
       1     O     4.14093  4.14093  0.00000 -0.28185
       2     C     2.93538  2.93538  0.00000  0.12923
       3     C     2.93757  2.93757  0.00000  0.12486
       4     O     4.14017  4.14017  0.00000 -0.28034
       5     H     0.42783  0.42783  0.00000  0.14433
       6     H     0.49758  0.49758  0.00000  0.00483
       7     H     0.50275  0.50275  0.00000 -0.00550
       8     H     0.49760  0.49760  0.00000  0.00479
       9     H     0.49316  0.49316  0.00000  0.01367
      10     H     0.42701  0.42701  0.00000  0.14598

   Total alpha = 17.00000, Total beta = 17.00000, Total charge =  0.00000


*** Psi4 exiting successfully. Buy a developer a beer!
