    -----------------------------------------------------------------------
          Psi4: An Open-Source Ab Initio Electronic Structure Package
                              Psi4 (no tag) Driver

                          Git: Rev {detached?}  

    J. M. Turney, A. C. Simmonett, R. M. Parrish, E. G. Hohenstein,
    F. A. Evangelista, J. T. Fermann, B. J. Mintz, L. A. Burns, J. J. Wilke,
    M. L. Abrams, N. J. Russ, M. L. Leininger, C. L. Janssen, E. T. Seidl,
    W. D. Allen, H. F. Schaefer, R. A. King, E. F. Valeev, C. D. Sherrill,
    and T. D. Crawford, WIREs Comput. Mol. Sci. 2, 556-565 (2012)
    (doi: 10.1002/wcms.93)

                         Additional Contributions by
    A. E. DePrince, M. Saitow, U. Bozkaya, A. Yu. Sokolov
    -----------------------------------------------------------------------


    Psi4 started on: Tue Jul  5 17:41:44 2016

    Process ID:   1152
    PSI4DATADIR: /export131/home/mjharvey/miniconda3/share
    Memory level set to 256.000 MB

  ==> Input File <==

--------------------------------------------------------------------------
set {
	reference rhf
	basis 6-31G*
}


set_num_threads( 1 )
memory 2 gb

molecule MOL {
0 1

H	 -3.457960	 0.166880	 1.449720
O	 -3.367910	 -0.300316	 2.267454
C	 -3.043259	 -1.643282	 2.012310
C	 -1.609705	 -1.833855	 1.529264
H	 -3.184960	 -2.163733	 2.950780
H	 -3.740919	 -2.074362	 1.295219
C	 -1.482484	 -2.733047	 0.297137
H	 -1.185827	 -0.856603	 1.313226
H	 -1.029695	 -2.257416	 2.347525
C	 -1.831604	 -4.194357	 0.592950
H	 -0.467471	 -2.672822	 -0.085598
H	 -2.137559	 -2.361878	 -0.491185
C	 -3.125106	 -4.398716	 1.390089
H	 -1.895998	 -4.743860	 -0.344465
H	 -1.010138	 -4.640587	 1.149524
C	 -3.082455	 -3.882656	 2.831040
H	 -3.933443	 -3.894090	 0.864959
H	 -3.381870	 -5.456969	 1.393352
C	 -4.426435	 -4.012895	 3.550896
H	 -2.776913	 -2.837308	 2.829096
H	 -2.326627	 -4.419937	 3.398804
C	 -4.384939	 -3.504391	 4.991509
H	 -5.185925	 -3.465279	 2.997019
H	 -4.738037	 -5.055372	 3.545320
H	 -4.107815	 -2.454615	 5.028889
H	 -5.352048	 -3.608247	 5.473743
H	 -3.660096	 -4.057551	 5.582255

	symmetry c1
}
set optking {
	frozen_dihedral = ("
		14 10 7 4,
		14 10 13 16,
		10 7 4 8,
		10 13 16 20,
		20 16 19 22,
		4 3 2 1
	")
}

ee = energy('scf')
oeprop('DIPOLE', 'QUADRUPOLE', 'MULLIKEN_CHARGES')
f=open( 'psi4out.xyz', 'w' )
f.write( "27  " )
f.write( str(ee) + "\n" )
f.write( MOL.save_string_xyz() )
f.close()
--------------------------------------------------------------------------

  Memory set to   2.000 GiB by Python script.

*** tstart() called on cx1-3-4-2.cx1.hpc.ic.ac.uk
*** at Tue Jul  5 17:41:45 2016


         ---------------------------------------------------------
                                   SCF
            by Justin Turney, Rob Parrish, and Andy Simmonett
                              RHF Reference
                        1 Threads,   2000 MiB Core
         ---------------------------------------------------------

  ==> Geometry <==

    Molecular point group: c1
    Full point group: C1

    Geometry (in Angstrom), charge = 0, multiplicity = 1:

       Center              X                  Y                   Z               Mass       
    ------------   -----------------  -----------------  -----------------  -----------------
           H         -0.509548469054     3.060323993806    -0.729747883345     1.007825032070
           O         -0.419498469054     2.593127993806     0.087986116655    15.994914619560
           C         -0.094847469054     1.250161993806    -0.167157883345    12.000000000000
           C          1.338706530946     1.059588993806    -0.650203883345    12.000000000000
           H         -0.236548469054     0.729710993806     0.771312116655     1.007825032070
           H         -0.792507469054     0.819081993806    -0.884248883345     1.007825032070
           C          1.465927530946     0.160396993806    -1.882330883345    12.000000000000
           H          1.762584530946     2.036840993806    -0.866241883345     1.007825032070
           H          1.918716530946     0.636027993806     0.168057116655     1.007825032070
           C          1.116807530946    -1.300913006194    -1.586517883345    12.000000000000
           H          2.480940530946     0.220621993806    -2.265065883345     1.007825032070
           H          0.810852530946     0.531565993806    -2.670652883345     1.007825032070
           C         -0.176694469054    -1.505272006194    -0.789378883345    12.000000000000
           H          1.052413530946    -1.850416006194    -2.523932883345     1.007825032070
           H          1.938273530946    -1.747143006194    -1.029943883345     1.007825032070
           C         -0.134043469054    -0.989212006194     0.651572116655    12.000000000000
           H         -0.985031469054    -1.000646006194    -1.314508883345     1.007825032070
           H         -0.433458469054    -2.563525006194    -0.786115883345     1.007825032070
           C         -1.478023469054    -1.119451006194     1.371428116655    12.000000000000
           H          0.171498530946     0.056135993806     0.649628116655     1.007825032070
           H          0.621784530946    -1.526493006194     1.219336116655     1.007825032070
           C         -1.436527469054    -0.610947006194     2.812041116655    12.000000000000
           H         -2.237513469054    -0.571835006194     0.817551116655     1.007825032070
           H         -1.789625469054    -2.161928006194     1.365852116655     1.007825032070
           H         -1.159403469054     0.438828993806     2.849421116655     1.007825032070
           H         -2.403636469054    -0.714803006194     3.294275116655     1.007825032070
           H         -0.711684469054    -1.164107006194     3.402787116655     1.007825032070

  Running in c1 symmetry.

  Rotational constants: A =      0.05917  B =      0.03910  C =      0.02614 [cm^-1]
  Rotational constants: A =   1773.97629  B =   1172.30378  C =    783.79335 [MHz]
  Nuclear repulsion =  510.161419753866994

  Charge       = 0
  Multiplicity = 1
  Electrons    = 74
  Nalpha       = 37
  Nbeta        = 37

  ==> Algorithm <==

  SCF Algorithm Type is DF.
  DIIS enabled.
  MOM disabled.
  Fractional occupation disabled.
  Guess Type is CORE.
  Energy threshold   = 1.00e-06
  Density threshold  = 1.00e-06
  Integral threshold = 0.00e+00

  ==> Primary Basis <==

  Basis Set: 6-31G*
    Number of shells: 90
    Number of basis function: 171
    Number of Cartesian functions: 171
    Spherical Harmonics?: false
    Max angular momentum: 2

  ==> Pre-Iterations <==

   -------------------------------------------------------
    Irrep   Nso     Nmo     Nalpha   Nbeta   Ndocc  Nsocc
   -------------------------------------------------------
     A        171     171       0       0       0       0
   -------------------------------------------------------
    Total     171     171      37      37      37       0
   -------------------------------------------------------

 OEINTS: Overlap, kinetic, potential, dipole, and quadrupole integrals
         stored in file 35.

  ==> Integral Setup <==

  ==> DFJK: Density-Fitted J/K Matrices <==

    J tasked:                  Yes
    K tasked:                  Yes
    wK tasked:                  No
    OpenMP threads:              1
    Integrals threads:           1
    Memory (MB):              1430
    Algorithm:                Core
    Integral Cache:           NONE
    Schwarz Cutoff:          1E-12
    Fitting Condition:       1E-12

   => Auxiliary Basis Set <=

  Basis Set: 
    Number of shells: 378
    Number of basis function: 1179
    Number of Cartesian functions: 1179
    Spherical Harmonics?: false
    Max angular momentum: 3

  Minimum eigenvalue in the overlap matrix is 2.5803645336E-03.
  Using Symmetric Orthogonalization.
  SCF Guess: Core (One-Electron) Hamiltonian.

  ==> Iterations <==

                           Total Energy        Delta E     RMS |[F,P]|

   @DF-RHF iter   1:  -292.77074524933937   -2.92771e+02   6.07098e-02 
   @DF-RHF iter   2:   -68.63935350137240    2.24131e+02   7.18570e-02 DIIS
   @DF-RHF iter   3:  -293.55737968834183   -2.24918e+02   4.73489e-02 DIIS
   @DF-RHF iter   4:  -307.48335256778000   -1.39260e+01   5.61409e-02 DIIS
   @DF-RHF iter   5:  -387.26786272726963   -7.97845e+01   6.90883e-03 DIIS
   @DF-RHF iter   6:  -387.94197674875352   -6.74114e-01   3.15159e-03 DIIS
   @DF-RHF iter   7:  -388.08486066968874   -1.42884e-01   4.78551e-04 DIIS
   @DF-RHF iter   8:  -388.08989542429424   -5.03475e-03   1.38936e-04 DIIS
   @DF-RHF iter   9:  -388.09029000668795   -3.94582e-04   4.67497e-05 DIIS
   @DF-RHF iter  10:  -388.09033536914649   -4.53625e-05   1.39027e-05 DIIS
   @DF-RHF iter  11:  -388.09034119424700   -5.82510e-06   5.38956e-06 DIIS
   @DF-RHF iter  12:  -388.09034178900106   -5.94754e-07   1.81699e-06 DIIS
   @DF-RHF iter  13:  -388.09034190598447   -1.16983e-07   4.49955e-07 DIIS

  ==> Post-Iterations <==

    Orbital Energies (a.u.)
    -----------------------

    Doubly Occupied:                                                      

       1A    -20.546732     2A    -11.257352     3A    -11.220824  
       4A    -11.218620     5A    -11.215366     6A    -11.212708  
       7A    -11.211871     8A    -11.206765     9A    -11.178336  
      10A     -1.356928    11A     -1.127764    12A     -1.056296  
      13A     -1.020412    14A     -0.983706    15A     -0.879195  
      16A     -0.854869    17A     -0.803166    18A     -0.779488  
      19A     -0.703392    20A     -0.693253    21A     -0.629652  
      22A     -0.613262    23A     -0.602512    24A     -0.585410  
      25A     -0.570363    26A     -0.559524    27A     -0.546455  
      28A     -0.538059    29A     -0.508635    30A     -0.492020  
      31A     -0.486011    32A     -0.473601    33A     -0.456937  
      34A     -0.454088    35A     -0.437293    36A     -0.425415  
      37A     -0.362123  

    Virtual:                                                              

      38A      0.213678    39A      0.234531    40A      0.244266  
      41A      0.247728    42A      0.276434    43A      0.284863  
      44A      0.295788    45A      0.310396    46A      0.313038  
      47A      0.316076    48A      0.327555    49A      0.333237  
      50A      0.349769    51A      0.354424    52A      0.360109  
      53A      0.377290    54A      0.385760    55A      0.402701  
      56A      0.405202    57A      0.425491    58A      0.460743  
      59A      0.472263    60A      0.478317    61A      0.486635  
      62A      0.515527    63A      0.538271    64A      0.694731  
      65A      0.714521    66A      0.732576    67A      0.739821  
      68A      0.752734    69A      0.777958    70A      0.800072  
      71A      0.838829    72A      0.859790    73A      0.874274  
      74A      0.880848    75A      0.913249    76A      0.932521  
      77A      0.953569    78A      0.966414    79A      0.988492  
      80A      0.998088    81A      1.011748    82A      1.034763  
      83A      1.060820    84A      1.111842    85A      1.115205  
      86A      1.133826    87A      1.141556    88A      1.145530  
      89A      1.164766    90A      1.172101    91A      1.180157  
      92A      1.190519    93A      1.193590    94A      1.196657  
      95A      1.209318    96A      1.224078    97A      1.230383  
      98A      1.235176    99A      1.251336   100A      1.260978  
     101A      1.265735   102A      1.276912   103A      1.282408  
     104A      1.338512   105A      1.367838   106A      1.381267  
     107A      1.434355   108A      1.453280   109A      1.499987  
     110A      1.554907   111A      1.618367   112A      1.654268  
     113A      1.714099   114A      1.723128   115A      1.756895  
     116A      1.781650   117A      1.863920   118A      1.891532  
     119A      1.904190   120A      1.947518   121A      1.971337  
     122A      2.039093   123A      2.065179   124A      2.115845  
     125A      2.130718   126A      2.157521   127A      2.183989  
     128A      2.229548   129A      2.242437   130A      2.256669  
     131A      2.267641   132A      2.287761   133A      2.313248  
     134A      2.338065   135A      2.348777   136A      2.371433  
     137A      2.389332   138A      2.401611   139A      2.477819  
     140A      2.505562   141A      2.535790   142A      2.576424  
     143A      2.639143   144A      2.642818   145A      2.657039  
     146A      2.688123   147A      2.709045   148A      2.736138  
     149A      2.760849   150A      2.772826   151A      2.794770  
     152A      2.831763   153A      2.886999   154A      2.893710  
     155A      2.957650   156A      2.966671   157A      3.022310  
     158A      3.031151   159A      3.110473   160A      3.138431  
     161A      3.180605   162A      3.349425   163A      4.297942  
     164A      4.573108   165A      4.623092   166A      4.742343  
     167A      4.787805   168A      4.848468   169A      4.993461  
     170A      5.036892   171A      5.068485  

    Final Occupation by Irrep:
              A 
    DOCC [    37 ]

  Energy converged.

  @DF-RHF Final Energy:  -388.09034190598447

   => Energetics <=

    Nuclear Repulsion Energy =            510.1614197538669941
    One-Electron Energy =               -1537.9668641884077260
    Two-Electron Energy =                 639.7151025285570540
    DFT Exchange-Correlation Energy =       0.0000000000000000
    Empirical Dispersion Energy =           0.0000000000000000
    PCM Polarization Energy =               0.0000000000000000
    EFP Energy =                            0.0000000000000000
    Total Energy =                       -388.0903419059836779

    Alert: EFP and PCM quantities not currently incorporated into SCF psivars.

Properties will be evaluated at   0.000000,   0.000000,   0.000000 Bohr
  ==> Properties <==


Properties computed using the SCF density matrix

  Nuclear Dipole Moment: (a.u.)
     X:    -0.4725      Y:    -4.4609      Z:     1.3764

  Electronic Dipole Moment: (a.u.)
     X:     0.6231      Y:     4.3017      Z:    -2.0359

  Dipole Moment: (a.u.)
     X:     0.1506      Y:    -0.1592      Z:    -0.6595     Total:     0.6950

  Dipole Moment: (Debye)
     X:     0.3828      Y:    -0.4046      Z:    -1.6764     Total:     1.7665


  Saving occupied orbitals to File 180.

*** tstop() called on cx1-3-4-2.cx1.hpc.ic.ac.uk at Tue Jul  5 17:42:14 2016
Module time:
	user time   =      28.35 seconds =       0.47 minutes
	system time =       0.27 seconds =       0.00 minutes
	total time  =         29 seconds =       0.48 minutes
Total time:
	user time   =      28.35 seconds =       0.47 minutes
	system time =       0.27 seconds =       0.00 minutes
	total time  =         29 seconds =       0.48 minutes


Properties will be evaluated at   0.000000,   0.000000,   0.000000 Bohr

Properties computed using the  density matrix

  Nuclear Dipole Moment: (a.u.)
     X:    -0.4725      Y:    -4.4609      Z:     1.3764

  Electronic Dipole Moment: (a.u.)
     X:     0.6231      Y:     4.3017      Z:    -2.0359

  Dipole Moment: (a.u.)
     X:     0.1506      Y:    -0.1592      Z:    -0.6595     Total:     0.6950

  Dipole Moment: (Debye)
     X:     0.3828      Y:    -0.4046      Z:    -1.6764     Total:     1.7665

  Quadrupole Moment: (Debye Ang)
    XX:   -60.3684     YY:   -63.0601     ZZ:   -59.4034
    XY:     0.7258     XZ:     0.9287     YZ:    -5.3330

  Traceless Quadrupole Moment: (Debye Ang)
    XX:     0.5756     YY:    -2.1161     ZZ:     1.5406
    XY:     0.7258     XZ:     0.9287     YZ:    -5.3330

  Mulliken Charges: (a.u.)
   Center  Symbol    Alpha    Beta     Spin     Total
       1     H     0.28777  0.28777  0.00000  0.42447
       2     O     4.37816  4.37816  0.00000 -0.75633
       3     C     3.00990  3.00990  0.00000 -0.01981
       4     C     3.18920  3.18920  0.00000 -0.37841
       5     H     0.37283  0.37283  0.00000  0.25434
       6     H     0.41888  0.41888  0.00000  0.16224
       7     C     3.15730  3.15730  0.00000 -0.31461
       8     H     0.40653  0.40653  0.00000  0.18694
       9     H     0.41017  0.41017  0.00000  0.17966
      10     C     3.15063  3.15063  0.00000 -0.30126
      11     H     0.41651  0.41651  0.00000  0.16697
      12     H     0.42566  0.42566  0.00000  0.14868
      13     C     3.16155  3.16155  0.00000 -0.32311
      14     H     0.41943  0.41943  0.00000  0.16113
      15     H     0.42190  0.42190  0.00000  0.15621
      16     C     3.18595  3.18595  0.00000 -0.37189
      17     H     0.42607  0.42607  0.00000  0.14785
      18     H     0.41770  0.41770  0.00000  0.16460
      19     C     3.15587  3.15587  0.00000 -0.31175
      20     H     0.41882  0.41882  0.00000  0.16235
      21     H     0.42760  0.42760  0.00000  0.14480
      22     C     3.24480  3.24480  0.00000 -0.48959
      23     H     0.42359  0.42359  0.00000  0.15281
      24     H     0.41808  0.41808  0.00000  0.16384
      25     H     0.41664  0.41664  0.00000  0.16671
      26     H     0.41784  0.41784  0.00000  0.16432
      27     H     0.42059  0.42059  0.00000  0.15883

   Total alpha = 37.00000, Total beta = 37.00000, Total charge =  0.00000


*** PSI4 exiting successfully. Buy a developer a beer!
