    -----------------------------------------------------------------------
          Psi4: An Open-Source Ab Initio Electronic Structure Package
                              Psi4 (no tag) Driver

                          Git: Rev {detached?}  

    J. M. Turney, A. C. Simmonett, R. M. Parrish, E. G. Hohenstein,
    F. A. Evangelista, J. T. Fermann, B. J. Mintz, L. A. Burns, J. J. Wilke,
    M. L. Abrams, N. J. Russ, M. L. Leininger, C. L. Janssen, E. T. Seidl,
    W. D. Allen, H. F. Schaefer, R. A. King, E. F. Valeev, C. D. Sherrill,
    and T. D. Crawford, WIREs Comput. Mol. Sci. 2, 556-565 (2012)
    (doi: 10.1002/wcms.93)

                         Additional Contributions by
    A. E. DePrince, M. Saitow, U. Bozkaya, A. Yu. Sokolov
    -----------------------------------------------------------------------


    Psi4 started on: Tue Jul  5 16:38:48 2016

    Process ID:  16718
    PSI4DATADIR: /export131/home/mjharvey/miniconda3/share
    Memory level set to 256.000 MB

  ==> Input File <==

--------------------------------------------------------------------------
set {
	reference rhf
	basis 6-31G*
}


set_num_threads( 1 )
memory 2 gb

molecule MOL {
0 1

O	 0.968737	 -0.101610	 -0.705824
C	 0.028650	 0.075053	 -0.000277
C	 -1.233602	 -0.752807	 0.000328
O	 -0.033267	 1.047919	 0.899501
C	 -2.501530	 0.091881	 0.000126
H	 -1.193807	 -1.406641	 -0.865785
H	 -1.193516	 -1.405779	 0.867015
H	 -2.545121	 0.729328	 -0.874513
H	 -3.377167	 -0.548497	 0.000561
H	 -2.544818	 0.730135	 0.874258
C	 -1.315965	 1.572101	 1.191916
H	 -1.765147	 1.993950	 0.304397
H	 -1.158820	 2.340290	 1.932898
H	 -1.961660	 0.799652	 1.584180

	symmetry c1
}
set optking {
	frozen_dihedral = ("
		4 2 3 6
	")
}

ee = energy('scf')
oeprop('DIPOLE', 'QUADRUPOLE', 'MULLIKEN_CHARGES')
f=open( 'psi4out.xyz', 'w' )
f.write( "14  " )
f.write( str(ee) + "\n" )
f.write( MOL.save_string_xyz() )
f.close()
--------------------------------------------------------------------------

  Memory set to   2.000 GiB by Python script.

*** tstart() called on cx1-1-4-4.cx1.hpc.ic.ac.uk
*** at Tue Jul  5 16:38:49 2016


         ---------------------------------------------------------
                                   SCF
            by Justin Turney, Rob Parrish, and Andy Simmonett
                              RHF Reference
                        1 Threads,   2000 MiB Core
         ---------------------------------------------------------

  ==> Geometry <==

    Molecular point group: c1
    Full point group: C1

    Geometry (in Angstrom), charge = 0, multiplicity = 1:

       Center              X                  Y                   Z               Mass       
    ------------   -----------------  -----------------  -----------------  -----------------
           O          1.663434738770    -0.444912277551    -0.947224372303    15.994914619560
           C          0.723347738770    -0.268249277551    -0.241677372303    12.000000000000
           C         -0.538904261230    -1.096109277551    -0.241072372303    12.000000000000
           O          0.661430738770     0.704616722449     0.658100627697    15.994914619560
           C         -1.806832261230    -0.251421277551    -0.241274372303    12.000000000000
           H         -0.499109261230    -1.749943277551    -1.107185372303     1.007825032070
           H         -0.498818261230    -1.749081277551     0.625614627697     1.007825032070
           H         -1.850423261230     0.386025722449    -1.115913372303     1.007825032070
           H         -2.682469261230    -0.891799277551    -0.240839372303     1.007825032070
           H         -1.850120261230     0.386832722449     0.632857627697     1.007825032070
           C         -0.621267261230     1.228798722449     0.950515627697    12.000000000000
           H         -1.070449261230     1.650647722449     0.062996627697     1.007825032070
           H         -0.464122261230     1.996987722449     1.691497627697     1.007825032070
           H         -1.266962261230     0.456349722449     1.342779627697     1.007825032070

  Running in c1 symmetry.

  Rotational constants: A =      0.18029  B =      0.11961  C =      0.07875 [cm^-1]
  Rotational constants: A =   5405.09247  B =   3585.80010  C =   2360.84741 [MHz]
  Nuclear repulsion =  259.054159900351806

  Charge       = 0
  Multiplicity = 1
  Electrons    = 48
  Nalpha       = 24
  Nbeta        = 24

  ==> Algorithm <==

  SCF Algorithm Type is DF.
  DIIS enabled.
  MOM disabled.
  Fractional occupation disabled.
  Guess Type is CORE.
  Energy threshold   = 1.00e-06
  Density threshold  = 1.00e-06
  Integral threshold = 0.00e+00

  ==> Primary Basis <==

  Basis Set: 6-31G*
    Number of shells: 52
    Number of basis function: 106
    Number of Cartesian functions: 106
    Spherical Harmonics?: false
    Max angular momentum: 2

  ==> Pre-Iterations <==

   -------------------------------------------------------
    Irrep   Nso     Nmo     Nalpha   Nbeta   Ndocc  Nsocc
   -------------------------------------------------------
     A        106     106       0       0       0       0
   -------------------------------------------------------
    Total     106     106      24      24      24       0
   -------------------------------------------------------

 OEINTS: Overlap, kinetic, potential, dipole, and quadrupole integrals
         stored in file 35.

  ==> Integral Setup <==

  ==> DFJK: Density-Fitted J/K Matrices <==

    J tasked:                  Yes
    K tasked:                  Yes
    wK tasked:                  No
    OpenMP threads:              1
    Integrals threads:           1
    Memory (MB):              1430
    Algorithm:                Core
    Integral Cache:           NONE
    Schwarz Cutoff:          1E-12
    Fitting Condition:       1E-12

   => Auxiliary Basis Set <=

  Basis Set: 
    Number of shells: 216
    Number of basis function: 686
    Number of Cartesian functions: 686
    Spherical Harmonics?: false
    Max angular momentum: 3

  Minimum eigenvalue in the overlap matrix is 3.4267924526E-03.
  Using Symmetric Orthogonalization.
  SCF Guess: Core (One-Electron) Hamiltonian.

  ==> Iterations <==

                           Total Energy        Delta E     RMS |[F,P]|

   @DF-RHF iter   1:  -245.19754642799870   -2.45198e+02   8.02728e-02 
   @DF-RHF iter   2:  -207.16244434860880    3.80351e+01   6.89485e-02 DIIS
   @DF-RHF iter   3:  -263.67471337386610   -5.65123e+01   6.00269e-02 DIIS
   @DF-RHF iter   4:  -301.31524660963214   -3.76405e+01   2.26805e-02 DIIS
   @DF-RHF iter   5:  -304.03000622240847   -2.71476e+00   1.73149e-02 DIIS
   @DF-RHF iter   6:  -305.60725424197585   -1.57725e+00   3.40299e-03 DIIS
   @DF-RHF iter   7:  -305.66741632493381   -6.01621e-02   1.65030e-03 DIIS
   @DF-RHF iter   8:  -305.68091665775091   -1.35003e-02   4.23513e-04 DIIS
   @DF-RHF iter   9:  -305.68235139832632   -1.43474e-03   1.69645e-04 DIIS
   @DF-RHF iter  10:  -305.68262248683982   -2.71089e-04   7.54264e-05 DIIS
   @DF-RHF iter  11:  -305.68265868780804   -3.62010e-05   1.82224e-05 DIIS
   @DF-RHF iter  12:  -305.68266241256822   -3.72476e-06   5.27819e-06 DIIS
   @DF-RHF iter  13:  -305.68266281780518   -4.05237e-07   1.81966e-06 DIIS
   @DF-RHF iter  14:  -305.68266288761777   -6.98126e-08   7.17943e-07 DIIS

  ==> Post-Iterations <==

    Orbital Energies (a.u.)
    -----------------------

    Doubly Occupied:                                                      

       1A    -20.608117     2A    -20.548639     3A    -11.376948  
       4A    -11.292808     5A    -11.245948     6A    -11.209546  
       7A     -1.472507     8A     -1.372569     9A     -1.104022  
      10A     -1.028228    11A     -0.889848    12A     -0.825078  
      13A     -0.729841    14A     -0.694617    15A     -0.672650  
      16A     -0.631476    17A     -0.603249    18A     -0.596103  
      19A     -0.559733    20A     -0.552752    21A     -0.510775  
      22A     -0.464923    23A     -0.435878    24A     -0.402693  

    Virtual:                                                              

      25A      0.176757    26A      0.216142    27A      0.230577  
      28A      0.263191    29A      0.294804    30A      0.297501  
      31A      0.322102    32A      0.342710    33A      0.348186  
      34A      0.397453    35A      0.401895    36A      0.459909  
      37A      0.521697    38A      0.583828    39A      0.693329  
      40A      0.734053    41A      0.743445    42A      0.775214  
      43A      0.794785    44A      0.817842    45A      0.846701  
      46A      0.885178    47A      0.926173    48A      0.950273  
      49A      0.983655    50A      1.016724    51A      1.068115  
      52A      1.090114    53A      1.106951    54A      1.137179  
      55A      1.154196    56A      1.185629    57A      1.199657  
      58A      1.212441    59A      1.249584    60A      1.289675  
      61A      1.305184    62A      1.340787    63A      1.361733  
      64A      1.381102    65A      1.416535    66A      1.582717  
      67A      1.589427    68A      1.640468    69A      1.732028  
      70A      1.757788    71A      1.837496    72A      1.911237  
      73A      1.977273    74A      2.003883    75A      2.037162  
      76A      2.104925    77A      2.140167    78A      2.152973  
      79A      2.155997    80A      2.248961    81A      2.265591  
      82A      2.363074    83A      2.368149    84A      2.429783  
      85A      2.448188    86A      2.475650    87A      2.564591  
      88A      2.642075    89A      2.667877    90A      2.703985  
      91A      2.732388    92A      2.757489    93A      2.876488  
      94A      2.950740    95A      3.052791    96A      3.071925  
      97A      3.189648    98A      3.274432    99A      3.405508  
     100A      3.550896   101A      4.404165   102A      4.585155  
     103A      4.672015   104A      4.765731   105A      4.829372  
     106A      4.994691  

    Final Occupation by Irrep:
              A 
    DOCC [    24 ]

  Energy converged.

  @DF-RHF Final Energy:  -305.68266288761777

   => Energetics <=

    Nuclear Repulsion Energy =            259.0541599003518058
    One-Electron Energy =                -929.8156967513644986
    Two-Electron Energy =                 365.0788739633944715
    DFT Exchange-Correlation Energy =       0.0000000000000000
    Empirical Dispersion Energy =           0.0000000000000000
    PCM Polarization Energy =               0.0000000000000000
    EFP Energy =                            0.0000000000000000
    Total Energy =                       -305.6826628876182212

    Alert: EFP and PCM quantities not currently incorporated into SCF psivars.

Properties will be evaluated at   0.000000,   0.000000,   0.000000 Bohr
  ==> Properties <==


Properties computed using the SCF density matrix

  Nuclear Dipole Moment: (a.u.)
     X:    -9.5346      Y:     0.4569      Z:     1.7721

  Electronic Dipole Moment: (a.u.)
     X:     7.8212      Y:    -0.2880      Z:    -1.0588

  Dipole Moment: (a.u.)
     X:    -1.7134      Y:     0.1689      Z:     0.7133     Total:     1.8636

  Dipole Moment: (Debye)
     X:    -4.3549      Y:     0.4292      Z:     1.8131     Total:     4.7368


  Saving occupied orbitals to File 180.

*** tstop() called on cx1-1-4-4.cx1.hpc.ic.ac.uk at Tue Jul  5 16:38:55 2016
Module time:
	user time   =       5.85 seconds =       0.10 minutes
	system time =       0.05 seconds =       0.00 minutes
	total time  =          6 seconds =       0.10 minutes
Total time:
	user time   =       5.85 seconds =       0.10 minutes
	system time =       0.05 seconds =       0.00 minutes
	total time  =          6 seconds =       0.10 minutes


Properties will be evaluated at   0.000000,   0.000000,   0.000000 Bohr

Properties computed using the  density matrix

  Nuclear Dipole Moment: (a.u.)
     X:    -9.5346      Y:     0.4569      Z:     1.7721

  Electronic Dipole Moment: (a.u.)
     X:     7.8212      Y:    -0.2880      Z:    -1.0588

  Dipole Moment: (a.u.)
     X:    -1.7134      Y:     0.1689      Z:     0.7133     Total:     1.8636

  Dipole Moment: (Debye)
     X:    -4.3549      Y:     0.4292      Z:     1.8131     Total:     4.7368

  Quadrupole Moment: (Debye Ang)
    XX:   -42.9743     YY:   -34.8232     ZZ:   -37.5727
    XY:    -1.1677     XZ:     1.0488     YZ:    -0.6430

  Traceless Quadrupole Moment: (Debye Ang)
    XX:    -4.5175     YY:     3.6335     ZZ:     0.8840
    XY:    -1.1677     XZ:     1.0488     YZ:    -0.6430

  Mulliken Charges: (a.u.)
   Center  Symbol    Alpha    Beta     Spin     Total
       1     O     4.26757  4.26757  0.00000 -0.53515
       2     C     2.60829  2.60829  0.00000  0.78342
       3     C     3.22807  3.22807  0.00000 -0.45615
       4     O     4.29793  4.29793  0.00000 -0.59585
       5     C     3.28243  3.28243  0.00000 -0.56485
       6     H     0.38868  0.38868  0.00000  0.22264
       7     H     0.39875  0.39875  0.00000  0.20249
       8     H     0.40839  0.40839  0.00000  0.18321
       9     H     0.41327  0.41327  0.00000  0.17346
      10     H     0.40174  0.40174  0.00000  0.19653
      11     C     3.10655  3.10655  0.00000 -0.21309
      12     H     0.40058  0.40058  0.00000  0.19884
      13     H     0.40152  0.40152  0.00000  0.19696
      14     H     0.39623  0.39623  0.00000  0.20754

   Total alpha = 24.00000, Total beta = 24.00000, Total charge =  0.00000


*** PSI4 exiting successfully. Buy a developer a beer!
