    -----------------------------------------------------------------------
          Psi4: An Open-Source Ab Initio Electronic Structure Package
                              Psi4 (no tag) Driver

                          Git: Rev {detached?}  

    J. M. Turney, A. C. Simmonett, R. M. Parrish, E. G. Hohenstein,
    F. A. Evangelista, J. T. Fermann, B. J. Mintz, L. A. Burns, J. J. Wilke,
    M. L. Abrams, N. J. Russ, M. L. Leininger, C. L. Janssen, E. T. Seidl,
    W. D. Allen, H. F. Schaefer, R. A. King, E. F. Valeev, C. D. Sherrill,
    and T. D. Crawford, WIREs Comput. Mol. Sci. 2, 556-565 (2012)
    (doi: 10.1002/wcms.93)

                         Additional Contributions by
    A. E. DePrince, M. Saitow, U. Bozkaya, A. Yu. Sokolov
    -----------------------------------------------------------------------


    Psi4 started on: Tue Jul 26 13:33:48 2016

    Process ID:  12171
    PSI4DATADIR: /export131/home/mjharvey/miniconda3/share
    Memory level set to 256.000 MB

  ==> Input File <==

--------------------------------------------------------------------------
set {
	reference rhf
	basis 6-31G*
}


set_num_threads( 24 )
memory 2 gb

molecule MOL {
0 1

H	 -0.433897	 -1.982170	 -0.182935
C	 -1.319886	 -1.763883	 0.381114
C	 -1.224516	 -1.150904	 1.538115
H	 -2.271162	 -2.058036	 -0.022756
O	 -0.058873	 -1.105489	 2.235090
H	 -2.051852	 -0.635012	 1.991545
C	 1.122280	 -0.938099	 1.529193
C	 1.575007	 -2.228300	 0.883472
H	 1.928985	 -0.573371	 2.155427
H	 0.937284	 -0.221590	 0.743120
F	 0.516023	 -2.913006	 0.476399
F	 2.338925	 -2.006426	 -0.172989
F	 2.253173	 -2.987911	 1.717973

	symmetry c1
}
set optking {
	frozen_dihedral = ("
		11 8 7 9,
		3 5 7 9,
		6 3 2 1
	")
}

ee = energy('scf')
oeprop('DIPOLE', 'QUADRUPOLE', 'MULLIKEN_CHARGES')
f=open( 'psi4out.xyz', 'w' )
f.write( "13  " )
f.write( str(ee) + "\n" )
f.write( MOL.save_string_xyz() )
f.close()
--------------------------------------------------------------------------

  Memory set to   2.000 GiB by Python script.

*** tstart() called on cx1b.hpc.ic.ac.uk
*** at Tue Jul 26 13:33:48 2016


         ---------------------------------------------------------
                                   SCF
            by Justin Turney, Rob Parrish, and Andy Simmonett
                              RHF Reference
                       24 Threads,   2000 MiB Core
         ---------------------------------------------------------

  ==> Geometry <==

    Molecular point group: c1
    Full point group: C1

    Geometry (in Angstrom), charge = 0, multiplicity = 1:

       Center              X                  Y                   Z               Mass       
    ------------   -----------------  -----------------  -----------------  -----------------
           H         -1.195891996796    -0.027097591730    -1.221240855016     1.007825032070
           C         -2.081880996796     0.191189408270    -0.657191855016    12.000000000000
           C         -1.986510996796     0.804168408270     0.499809144984    12.000000000000
           H         -3.033156996796    -0.102963591730    -1.061061855016     1.007825032070
           O         -0.820867996796     0.849583408270     1.196784144984    15.994914619560
           H         -2.813846996796     1.320060408270     0.953239144984     1.007825032070
           C          0.360285003204     1.016973408270     0.490887144984    12.000000000000
           C          0.813012003204    -0.273227591730    -0.154833855016    12.000000000000
           H          1.166990003204     1.381701408270     1.117121144984     1.007825032070
           H          0.175289003204     1.733482408270    -0.295185855016     1.007825032070
           F         -0.245971996796    -0.957933591730    -0.561906855016    18.998403224000
           F          1.576930003204    -0.051353591730    -1.211294855016    18.998403224000
           F          1.491178003204    -1.032838591730     0.679667144984    18.998403224000

  Running in c1 symmetry.

  Rotational constants: A =      0.12682  B =      0.05569  C =      0.04904 [cm^-1]
  Rotational constants: A =   3801.98454  B =   1669.40135  C =   1470.16135 [MHz]
  Nuclear repulsion =  432.838194161938134

  Charge       = 0
  Multiplicity = 1
  Electrons    = 64
  Nalpha       = 32
  Nbeta        = 32

  ==> Algorithm <==

  SCF Algorithm Type is DF.
  DIIS enabled.
  MOM disabled.
  Fractional occupation disabled.
  Guess Type is CORE.
  Energy threshold   = 1.00e-06
  Density threshold  = 1.00e-06
  Integral threshold = 0.00e+00

  ==> Primary Basis <==

  Basis Set: 6-31G*
    Number of shells: 58
    Number of basis function: 130
    Number of Cartesian functions: 130
    Spherical Harmonics?: false
    Max angular momentum: 2

  ==> Pre-Iterations <==

   -------------------------------------------------------
    Irrep   Nso     Nmo     Nalpha   Nbeta   Ndocc  Nsocc
   -------------------------------------------------------
     A        130     130       0       0       0       0
   -------------------------------------------------------
    Total     130     130      32      32      32       0
   -------------------------------------------------------

 OEINTS: Overlap, kinetic, potential, dipole, and quadrupole integrals
         stored in file 35.

  ==> Integral Setup <==

  ==> DFJK: Density-Fitted J/K Matrices <==

    J tasked:                  Yes
    K tasked:                  Yes
    wK tasked:                  No
    OpenMP threads:             24
    Integrals threads:          24
    Memory (MB):              1430
    Algorithm:                Core
    Integral Cache:           NONE
    Schwarz Cutoff:          1E-12
    Fitting Condition:       1E-12

   => Auxiliary Basis Set <=

  Basis Set: 
    Number of shells: 237
    Number of basis function: 773
    Number of Cartesian functions: 773
    Spherical Harmonics?: false
    Max angular momentum: 3

  Minimum eigenvalue in the overlap matrix is 1.7374257699E-03.
  Using Symmetric Orthogonalization.
  SCF Guess: Core (One-Electron) Hamiltonian.

  ==> Iterations <==

                           Total Energy        Delta E     RMS |[F,P]|

   @DF-RHF iter   1:  -443.87163820463803   -4.43872e+02   7.59774e-02 
   @DF-RHF iter   2:  -232.54566992756082    2.11326e+02   1.05365e-01 DIIS
   @DF-RHF iter   3:  -492.66005302120658   -2.60114e+02   4.20347e-02 DIIS
   @DF-RHF iter   4:  -426.82801122474672    6.58320e+01   6.60446e-02 DIIS
   @DF-RHF iter   5:  -522.90636923589500   -9.60784e+01   1.88814e-02 DIIS
   @DF-RHF iter   6:  -527.09295409675087   -4.18658e+00   7.29764e-03 DIIS
   @DF-RHF iter   7:  -527.43994370742689   -3.46990e-01   1.44087e-03 DIIS
   @DF-RHF iter   8:  -527.45558167416539   -1.56380e-02   4.99646e-04 DIIS
   @DF-RHF iter   9:  -527.45802704819084   -2.44537e-03   2.18526e-04 DIIS
   @DF-RHF iter  10:  -527.45845297134542   -4.25923e-04   1.11865e-04 DIIS
   @DF-RHF iter  11:  -527.45860404664268   -1.51075e-04   2.60270e-05 DIIS
   @DF-RHF iter  12:  -527.45861446111121   -1.04145e-05   8.91931e-06 DIIS
   @DF-RHF iter  13:  -527.45861597881253   -1.51770e-06   3.85822e-06 DIIS
   @DF-RHF iter  14:  -527.45861622573489   -2.46922e-07   1.10752e-06 DIIS
   @DF-RHF iter  15:  -527.45861625777957   -3.20447e-08   3.45674e-07 DIIS

  ==> Post-Iterations <==

    Orbital Energies (a.u.)
    -----------------------

    Doubly Occupied:                                                      

       1A    -26.350988     2A    -26.345448     3A    -26.344735  
       4A    -20.598369     5A    -11.507205     6A    -11.315533  
       7A    -11.282641     8A    -11.198754     9A     -1.751634  
      10A     -1.654164    11A     -1.644814    12A     -1.430917  
      13A     -1.078485    14A     -1.017455    15A     -0.948064  
      16A     -0.842451    17A     -0.839683    18A     -0.816690  
      19A     -0.798036    20A     -0.729771    21A     -0.719662  
      22A     -0.704087    23A     -0.679924    24A     -0.668218  
      25A     -0.653554    26A     -0.641251    27A     -0.636891  
      28A     -0.598917    29A     -0.529182    30A     -0.510177  
      31A     -0.482925    32A     -0.339841  

    Virtual:                                                              

      33A      0.187471    34A      0.252416    35A      0.262141  
      36A      0.290061    37A      0.297836    38A      0.325836  
      39A      0.364577    40A      0.411445    41A      0.423920  
      42A      0.456309    43A      0.482987    44A      0.510661  
      45A      0.534646    46A      0.686223    47A      0.714625  
      48A      0.733936    49A      0.764024    50A      0.778895  
      51A      0.791295    52A      0.811402    53A      0.819570  
      54A      0.887326    55A      0.903334    56A      0.937644  
      57A      0.960795    58A      1.093577    59A      1.115683  
      60A      1.129212    61A      1.146894    62A      1.174051  
      63A      1.224971    64A      1.241906    65A      1.285164  
      66A      1.315599    67A      1.348535    68A      1.376838  
      69A      1.390380    70A      1.426562    71A      1.447740  
      72A      1.489310    73A      1.574531    74A      1.610270  
      75A      1.627891    76A      1.643456    77A      1.653761  
      78A      1.671178    79A      1.725879    80A      1.757078  
      81A      1.779574    82A      1.839299    83A      1.883226  
      84A      1.914277    85A      1.956077    86A      1.986244  
      87A      2.050068    88A      2.089099    89A      2.105503  
      90A      2.132323    91A      2.138920    92A      2.183893  
      93A      2.263430    94A      2.273224    95A      2.298717  
      96A      2.318185    97A      2.338365    98A      2.361240  
      99A      2.391866   100A      2.405237   101A      2.428180  
     102A      2.436336   103A      2.494042   104A      2.525225  
     105A      2.596644   106A      2.609377   107A      2.685569  
     108A      2.732511   109A      2.760616   110A      2.830195  
     111A      2.864591   112A      2.883746   113A      3.054851  
     114A      3.073126   115A      3.143440   116A      3.169405  
     117A      3.217258   118A      3.332035   119A      3.404100  
     120A      3.429641   121A      3.442089   122A      3.465908  
     123A      4.370257   124A      4.572022   125A      4.638638  
     126A      4.765062   127A      4.910430   128A      4.995975  
     129A      5.197431   130A      5.916464  

    Final Occupation by Irrep:
              A 
    DOCC [    32 ]

  Energy converged.

  @DF-RHF Final Energy:  -527.45861625777957

   => Energetics <=

    Nuclear Repulsion Energy =            432.8381941619381337
    One-Electron Energy =               -1589.2726293292193986
    Two-Electron Energy =                 628.9758189095017542
    DFT Exchange-Correlation Energy =       0.0000000000000000
    Empirical Dispersion Energy =           0.0000000000000000
    PCM Polarization Energy =               0.0000000000000000
    EFP Energy =                            0.0000000000000000
    Total Energy =                       -527.4586162577794539

    Alert: EFP and PCM quantities not currently incorporated into SCF psivars.

Properties will be evaluated at   0.000000,   0.000000,   0.000000 Bohr
  ==> Properties <==


Properties computed using the SCF density matrix

  Nuclear Dipole Moment: (a.u.)
     X:    -8.0104      Y:     5.9665      Z:     0.5619

  Electronic Dipole Moment: (a.u.)
     X:     8.0252      Y:    -5.3121      Z:    -0.7456

  Dipole Moment: (a.u.)
     X:     0.0148      Y:     0.6544      Z:    -0.1836     Total:     0.6799

  Dipole Moment: (Debye)
     X:     0.0377      Y:     1.6634      Z:    -0.4668     Total:     1.7281


  Saving occupied orbitals to File 180.

*** tstop() called on cx1b.hpc.ic.ac.uk at Tue Jul 26 13:33:54 2016
Module time:
	user time   =      65.88 seconds =       1.10 minutes
	system time =       2.88 seconds =       0.05 minutes
	total time  =          6 seconds =       0.10 minutes
Total time:
	user time   =      65.88 seconds =       1.10 minutes
	system time =       2.88 seconds =       0.05 minutes
	total time  =          6 seconds =       0.10 minutes


Properties will be evaluated at   0.000000,   0.000000,   0.000000 Bohr

Properties computed using the  density matrix

  Nuclear Dipole Moment: (a.u.)
     X:    -8.0104      Y:     5.9665      Z:     0.5619

  Electronic Dipole Moment: (a.u.)
     X:     8.0252      Y:    -5.3121      Z:    -0.7456

  Dipole Moment: (a.u.)
     X:     0.0148      Y:     0.6544      Z:    -0.1836     Total:     0.6799

  Dipole Moment: (Debye)
     X:     0.0377      Y:     1.6634      Z:    -0.4668     Total:     1.7281

  Quadrupole Moment: (Debye Ang)
    XX:   -42.8955     YY:   -43.8256     ZZ:   -46.8639
    XY:     1.2188     XZ:     1.5005     YZ:     1.0548

  Traceless Quadrupole Moment: (Debye Ang)
    XX:     1.6328     YY:     0.7028     ZZ:    -2.3356
    XY:     1.2188     XZ:     1.5005     YZ:     1.0548

  Mulliken Charges: (a.u.)
   Center  Symbol    Alpha    Beta     Spin     Total
       1     H     0.38321  0.38321  0.00000  0.23358
       2     C     3.23748  3.23748  0.00000 -0.47495
       3     C     2.92256  2.92256  0.00000  0.15488
       4     H     0.40842  0.40842  0.00000  0.18316
       5     O     4.30312  4.30312  0.00000 -0.60625
       6     H     0.39934  0.39934  0.00000  0.20132
       7     C     3.07110  3.07110  0.00000 -0.14220
       8     C     2.44861  2.44861  0.00000  1.10278
       9     H     0.38944  0.38944  0.00000  0.22113
      10     H     0.40269  0.40269  0.00000  0.19463
      11     F     4.67701  4.67701  0.00000 -0.35401
      12     F     4.68200  4.68200  0.00000 -0.36399
      13     F     4.67504  4.67504  0.00000 -0.35008

   Total alpha = 32.00000, Total beta = 32.00000, Total charge = -0.00000


*** PSI4 exiting successfully. Buy a developer a beer!
