    -----------------------------------------------------------------------
          Psi4: An Open-Source Ab Initio Electronic Structure Package
                              Psi4 (no tag) Driver

                          Git: Rev {detached?}  

    J. M. Turney, A. C. Simmonett, R. M. Parrish, E. G. Hohenstein,
    F. A. Evangelista, J. T. Fermann, B. J. Mintz, L. A. Burns, J. J. Wilke,
    M. L. Abrams, N. J. Russ, M. L. Leininger, C. L. Janssen, E. T. Seidl,
    W. D. Allen, H. F. Schaefer, R. A. King, E. F. Valeev, C. D. Sherrill,
    and T. D. Crawford, WIREs Comput. Mol. Sci. 2, 556-565 (2012)
    (doi: 10.1002/wcms.93)

                         Additional Contributions by
    A. E. DePrince, M. Saitow, U. Bozkaya, A. Yu. Sokolov
    -----------------------------------------------------------------------


    Psi4 started on: Tue Jul  5 16:27:13 2016

    Process ID:  30786
    PSI4DATADIR: /export131/home/mjharvey/miniconda3/share
    Memory level set to 256.000 MB

  ==> Input File <==

--------------------------------------------------------------------------
set {
	reference rhf
	basis 6-31G*
}


set_num_threads( 1 )
memory 2 gb

molecule MOL {
0 1

H	 1.725800	 0.004109	 -2.035476
C	 1.149701	 0.002704	 -1.126377
N	 1.839433	 0.007882	 -0.000000
C	 -0.232811	 -0.007412	 -1.183199
C	 1.149701	 0.002704	 1.126377
H	 -0.729586	 -0.014427	 -2.136767
C	 -0.959294	 -0.010728	 -0.000000
H	 1.725800	 0.004109	 2.035476
C	 -0.232811	 -0.007412	 1.183199
C	 -2.467700	 0.007701	 0.000000
H	 -0.729586	 -0.014427	 2.136767
H	 -2.867176	 -0.485483	 -0.878495
H	 -2.867176	 -0.485484	 0.878495
H	 -2.834300	 1.030338	 0.000000

	symmetry c1
}
ee = energy('scf')
oeprop('DIPOLE', 'QUADRUPOLE', 'MULLIKEN_CHARGES')
oeprop('GRID_ESP')
f=open( 'psi4out.xyz', 'w' )
f.write( "14  " )
f.write( str(ee) + "\n" )
f.write( MOL.save_string_xyz() )
f.close()
--------------------------------------------------------------------------

  Memory set to   2.000 GiB by Python script.

*** tstart() called on cx1-1-1-4.cx1.hpc.ic.ac.uk
*** at Tue Jul  5 16:27:14 2016


         ---------------------------------------------------------
                                   SCF
            by Justin Turney, Rob Parrish, and Andy Simmonett
                              RHF Reference
                        1 Threads,   2000 MiB Core
         ---------------------------------------------------------

  ==> Geometry <==

    Molecular point group: c1
    Full point group: C1

    Geometry (in Angstrom), charge = 0, multiplicity = 1:

       Center              X                  Y                   Z               Mass       
    ------------   -----------------  -----------------  -----------------  -----------------
           H          1.725676794250     0.004107986309    -2.035476000000     1.007825032070
           C          1.149577794250     0.002702986309    -1.126377000000    12.000000000000
           N          1.839309794250     0.007880986309    -0.000000000000    14.003074004780
           C         -0.232934205750    -0.007413013691    -1.183199000000    12.000000000000
           C          1.149577794250     0.002702986309     1.126377000000    12.000000000000
           H         -0.729709205750    -0.014428013691    -2.136767000000     1.007825032070
           C         -0.959417205750    -0.010729013691    -0.000000000000    12.000000000000
           H          1.725676794250     0.004107986309     2.035476000000     1.007825032070
           C         -0.232934205750    -0.007413013691     1.183199000000    12.000000000000
           C         -2.467823205750     0.007699986309    -0.000000000000    12.000000000000
           H         -0.729709205750    -0.014428013691     2.136767000000     1.007825032070
           H         -2.867299205750    -0.485484013691    -0.878495000000     1.007825032070
           H         -2.867299205750    -0.485485013691     0.878495000000     1.007825032070
           H         -2.834423205750     1.030336986309    -0.000000000000     1.007825032070

  Running in c1 symmetry.

  Rotational constants: A =      0.19901  B =      0.08522  C =      0.06033 [cm^-1]
  Rotational constants: A =   5966.12950  B =   2554.82261  C =   1808.65794 [MHz]
  Nuclear repulsion =  273.839161307043753

  Charge       = 0
  Multiplicity = 1
  Electrons    = 50
  Nalpha       = 25
  Nbeta        = 25

  ==> Algorithm <==

  SCF Algorithm Type is DF.
  DIIS enabled.
  MOM disabled.
  Fractional occupation disabled.
  Guess Type is CORE.
  Energy threshold   = 1.00e-06
  Density threshold  = 1.00e-06
  Integral threshold = 0.00e+00

  ==> Primary Basis <==

  Basis Set: 6-31G*
    Number of shells: 56
    Number of basis function: 119
    Number of Cartesian functions: 119
    Spherical Harmonics?: false
    Max angular momentum: 2

  ==> Pre-Iterations <==

   -------------------------------------------------------
    Irrep   Nso     Nmo     Nalpha   Nbeta   Ndocc  Nsocc
   -------------------------------------------------------
     A        119     119       0       0       0       0
   -------------------------------------------------------
    Total     119     119      25      25      25       0
   -------------------------------------------------------

 OEINTS: Overlap, kinetic, potential, dipole, and quadrupole integrals
         stored in file 35.

  ==> Integral Setup <==

  ==> DFJK: Density-Fitted J/K Matrices <==

    J tasked:                  Yes
    K tasked:                  Yes
    wK tasked:                  No
    OpenMP threads:              1
    Integrals threads:           1
    Memory (MB):              1430
    Algorithm:                Core
    Integral Cache:           NONE
    Schwarz Cutoff:          1E-12
    Fitting Condition:       1E-12

   => Auxiliary Basis Set <=

  Basis Set: 
    Number of shells: 231
    Number of basis function: 742
    Number of Cartesian functions: 742
    Spherical Harmonics?: false
    Max angular momentum: 3

  Minimum eigenvalue in the overlap matrix is 7.3856988214E-04.
  Using Symmetric Orthogonalization.
  SCF Guess: Core (One-Electron) Hamiltonian.

  ==> Iterations <==

                           Total Energy        Delta E     RMS |[F,P]|

   @DF-RHF iter   1:  -223.51076073623483   -2.23511e+02   6.98135e-02 
   @DF-RHF iter   2:  -167.93957101646731    5.55712e+01   6.04254e-02 DIIS
   @DF-RHF iter   3:  -239.00698860695371   -7.10674e+01   5.75358e-02 DIIS
   @DF-RHF iter   4:  -271.11776959611194   -3.21108e+01   3.44475e-02 DIIS
   @DF-RHF iter   5:  -284.89802905432060   -1.37803e+01   1.08675e-02 DIIS
   @DF-RHF iter   6:  -285.60930510748943   -7.11276e-01   3.94711e-03 DIIS
   @DF-RHF iter   7:  -285.70223512910519   -9.29300e-02   1.80816e-03 DIIS
   @DF-RHF iter   8:  -285.73133891414972   -2.91038e-02   5.24874e-04 DIIS
   @DF-RHF iter   9:  -285.73408407546157   -2.74516e-03   1.40143e-04 DIIS
   @DF-RHF iter  10:  -285.73427546085571   -1.91385e-04   5.38203e-05 DIIS
   @DF-RHF iter  11:  -285.73432167939978   -4.62185e-05   1.22729e-05 DIIS
   @DF-RHF iter  12:  -285.73432421239153   -2.53299e-06   3.81785e-06 DIIS
   @DF-RHF iter  13:  -285.73432461652209   -4.04131e-07   2.49153e-06 DIIS
   @DF-RHF iter  14:  -285.73432477640898   -1.59887e-07   9.72653e-07 DIIS

  ==> Post-Iterations <==

    Orbital Energies (a.u.)
    -----------------------

    Doubly Occupied:                                                      

       1A    -15.555421     2A    -11.265240     3A    -11.265223  
       4A    -11.260898     5A    -11.233288     6A    -11.230647  
       7A    -11.230618     8A     -1.259674     9A     -1.107265  
      10A     -1.029611    11A     -0.969282    12A     -0.855353  
      13A     -0.821814    14A     -0.694632    15A     -0.669449  
      16A     -0.646411    17A     -0.592709    18A     -0.590392  
      19A     -0.560031    20A     -0.545121    21A     -0.528040  
      22A     -0.505080    23A     -0.406171    24A     -0.365238  
      25A     -0.341536  

    Virtual:                                                              

      26A      0.130910    27A      0.142814    28A      0.241650  
      29A      0.265854    30A      0.280551    31A      0.303330  
      32A      0.319902    33A      0.332863    34A      0.337251  
      35A      0.379294    36A      0.385253    37A      0.451692  
      38A      0.498218    39A      0.520066    40A      0.524679  
      41A      0.650171    42A      0.688662    43A      0.697945  
      44A      0.729135    45A      0.759076    46A      0.771977  
      47A      0.797229    48A      0.812404    49A      0.823754  
      50A      0.832467    51A      0.889703    52A      0.903902  
      53A      0.917892    54A      0.950307    55A      0.967169  
      56A      0.973236    57A      1.008285    58A      1.095328  
      59A      1.099166    60A      1.116608    61A      1.118535  
      62A      1.135362    63A      1.150275    64A      1.177337  
      65A      1.183289    66A      1.221507    67A      1.227052  
      68A      1.248426    69A      1.321481    70A      1.359516  
      71A      1.403922    72A      1.413597    73A      1.470130  
      74A      1.513534    75A      1.585105    76A      1.630073  
      77A      1.697820    78A      1.715103    79A      1.742325  
      80A      1.765587    81A      1.795466    82A      1.815914  
      83A      1.965266    84A      2.102457    85A      2.133109  
      86A      2.148202    87A      2.172334    88A      2.197785  
      89A      2.204993    90A      2.327399    91A      2.367582  
      92A      2.445665    93A      2.479225    94A      2.494251  
      95A      2.538051    96A      2.556883    97A      2.618338  
      98A      2.623519    99A      2.660458   100A      2.686669  
     101A      2.719731   102A      2.780156   103A      2.910788  
     104A      2.924409   105A      3.027303   106A      3.071943  
     107A      3.074911   108A      3.151147   109A      3.221534  
     110A      3.231698   111A      3.466034   112A      3.810548  
     113A      4.477011   114A      4.532850   115A      4.582207  
     116A      4.640317   117A      4.743652   118A      4.754608  
     119A      5.064714  

    Final Occupation by Irrep:
              A 
    DOCC [    25 ]

  Energy converged.

  @DF-RHF Final Energy:  -285.73432477640898

   => Energetics <=

    Nuclear Repulsion Energy =            273.8391613070437529
    One-Electron Energy =                -928.0887196039639093
    Two-Electron Energy =                 368.5152335205106624
    DFT Exchange-Correlation Energy =       0.0000000000000000
    Empirical Dispersion Energy =           0.0000000000000000
    PCM Polarization Energy =               0.0000000000000000
    EFP Energy =                            0.0000000000000000
    Total Energy =                       -285.7343247764095509

    Alert: EFP and PCM quantities not currently incorporated into SCF psivars.

Properties will be evaluated at   0.000000,   0.000000,   0.000000 Bohr
  ==> Properties <==


Properties computed using the SCF density matrix

  Nuclear Dipole Moment: (a.u.)
     X:    -6.1712      Y:     0.0363      Z:     0.0000

  Electronic Dipole Moment: (a.u.)
     X:     5.1016      Y:    -0.0263      Z:    -0.0000

  Dipole Moment: (a.u.)
     X:    -1.0696      Y:     0.0100      Z:    -0.0000     Total:     1.0696

  Dipole Moment: (Debye)
     X:    -2.7187      Y:     0.0254      Z:    -0.0000     Total:     2.7188


  Saving occupied orbitals to File 180.

*** tstop() called on cx1-1-1-4.cx1.hpc.ic.ac.uk at Tue Jul  5 16:27:27 2016
Module time:
	user time   =      12.91 seconds =       0.22 minutes
	system time =       0.06 seconds =       0.00 minutes
	total time  =         13 seconds =       0.22 minutes
Total time:
	user time   =      12.91 seconds =       0.22 minutes
	system time =       0.06 seconds =       0.00 minutes
	total time  =         13 seconds =       0.22 minutes


Properties will be evaluated at   0.000000,   0.000000,   0.000000 Bohr

Properties computed using the  density matrix

  Nuclear Dipole Moment: (a.u.)
     X:    -6.1712      Y:     0.0363      Z:     0.0000

  Electronic Dipole Moment: (a.u.)
     X:     5.1016      Y:    -0.0263      Z:    -0.0000

  Dipole Moment: (a.u.)
     X:    -1.0696      Y:     0.0100      Z:    -0.0000     Total:     1.0696

  Dipole Moment: (Debye)
     X:    -2.7187      Y:     0.0254      Z:    -0.0000     Total:     2.7188

  Quadrupole Moment: (Debye Ang)
    XX:   -44.2675     YY:   -44.0979     ZZ:   -35.8005
    XY:    -0.0823     XZ:     0.0000     YZ:    -0.0000

  Traceless Quadrupole Moment: (Debye Ang)
    XX:    -2.8788     YY:    -2.7093     ZZ:     5.5881
    XY:    -0.0823     XZ:     0.0000     YZ:    -0.0000

  Mulliken Charges: (a.u.)
   Center  Symbol    Alpha    Beta     Spin     Total
       1     H     0.39996  0.39996  0.00000  0.20007
       2     C     2.96398  2.96398  0.00000  0.07204
       3     N     3.76231  3.76231  0.00000 -0.52461
       4     C     3.14024  3.14024  0.00000 -0.28048
       5     C     2.96398  2.96398  0.00000  0.07204
       6     H     0.39836  0.39836  0.00000  0.20328
       7     C     2.95357  2.95357  0.00000  0.09287
       8     H     0.39996  0.39996  0.00000  0.20007
       9     C     3.14024  3.14024  0.00000 -0.28048
      10     C     3.25600  3.25600  0.00000 -0.51200
      11     H     0.39836  0.39836  0.00000  0.20328
      12     H     0.40914  0.40914  0.00000  0.18171
      13     H     0.40914  0.40914  0.00000  0.18171
      14     H     0.40476  0.40476  0.00000  0.19049

   Total alpha = 25.00000, Total beta = 25.00000, Total charge =  0.00000



Properties will be evaluated at   0.000000,   0.000000,   0.000000 Bohr

Properties computed using the  density matrix


 Electrostatic potential computed on the grid and written to grid_esp.dat

*** PSI4 exiting successfully. Buy a developer a beer!
