    -----------------------------------------------------------------------
          Psi4: An Open-Source Ab Initio Electronic Structure Package
                              Psi4 (no tag) Driver

                          Git: Rev {detached?}  

    J. M. Turney, A. C. Simmonett, R. M. Parrish, E. G. Hohenstein,
    F. A. Evangelista, J. T. Fermann, B. J. Mintz, L. A. Burns, J. J. Wilke,
    M. L. Abrams, N. J. Russ, M. L. Leininger, C. L. Janssen, E. T. Seidl,
    W. D. Allen, H. F. Schaefer, R. A. King, E. F. Valeev, C. D. Sherrill,
    and T. D. Crawford, WIREs Comput. Mol. Sci. 2, 556-565 (2012)
    (doi: 10.1002/wcms.93)

                         Additional Contributions by
    A. E. DePrince, M. Saitow, U. Bozkaya, A. Yu. Sokolov
    -----------------------------------------------------------------------


    Psi4 started on: Tue Jul  5 16:27:18 2016

    Process ID:  17798
    PSI4DATADIR: /export131/home/mjharvey/miniconda3/share
    Memory level set to 256.000 MB

  ==> Input File <==

--------------------------------------------------------------------------
set {
	reference rhf
	basis 6-31G*
}


set_num_threads( 1 )
memory 2 gb

molecule MOL {
0 1

H	 -1.395148	 -1.279591	 0.432354
O	 -1.422729	 -0.573567	 -0.196946
C	 -0.731407	 0.539437	 0.309156
C	 0.680193	 0.672443	 -0.251532
H	 -1.319765	 1.404033	 0.030086
H	 -0.700012	 0.506517	 1.397677
C	 0.752091	 0.528005	 -1.771951
H	 1.079875	 1.638374	 0.043217
H	 1.304879	 -0.086399	 0.214801
H	 0.196828	 1.315991	 -2.271908
H	 1.777501	 0.588093	 -2.121077
H	 0.349335	 -0.428032	 -2.097594

	symmetry c1
}
set optking {
	frozen_dihedral = ("
		8 4 3 2
	")
}

ee = energy('scf')
oeprop('DIPOLE', 'QUADRUPOLE', 'MULLIKEN_CHARGES')
f=open( 'psi4out.xyz', 'w' )
f.write( "12  " )
f.write( str(ee) + "\n" )
f.write( MOL.save_string_xyz() )
f.close()
--------------------------------------------------------------------------

  Memory set to   2.000 GiB by Python script.

*** tstart() called on cx1-1-3-4.cx1.hpc.ic.ac.uk
*** at Tue Jul  5 16:27:18 2016


         ---------------------------------------------------------
                                   SCF
            by Justin Turney, Rob Parrish, and Andy Simmonett
                              RHF Reference
                        1 Threads,   2000 MiB Core
         ---------------------------------------------------------

  ==> Geometry <==

    Molecular point group: c1
    Full point group: C1

    Geometry (in Angstrom), charge = 0, multiplicity = 1:

       Center              X                  Y                   Z               Mass       
    ------------   -----------------  -----------------  -----------------  -----------------
           H         -1.177984664413    -1.535880034286     0.900716985502     1.007825032070
           O         -1.205565664413    -0.829856034286     0.271416985502    15.994914619560
           C         -0.514243664413     0.283147965714     0.777518985502    12.000000000000
           C          0.897356335587     0.416153965714     0.216830985502    12.000000000000
           H         -1.102601664413     1.147743965714     0.498448985502     1.007825032070
           H         -0.482848664413     0.250227965714     1.866039985502     1.007825032070
           C          0.969254335587     0.271715965714    -1.303588014498    12.000000000000
           H          1.297038335587     1.382084965714     0.511579985502     1.007825032070
           H          1.522042335587    -0.342688034286     0.683163985502     1.007825032070
           H          0.413991335587     1.059701965714    -1.803545014498     1.007825032070
           H          1.994664335587     0.331803965714    -1.652714014498     1.007825032070
           H          0.566498335587    -0.684321034286    -1.629231014498     1.007825032070

  Running in c1 symmetry.

  Rotational constants: A =      0.46858  B =      0.17533  C =      0.14392 [cm^-1]
  Rotational constants: A =  14047.55555  B =   5256.39710  C =   4314.68914 [MHz]
  Nuclear repulsion =  133.166489531795463

  Charge       = 0
  Multiplicity = 1
  Electrons    = 34
  Nalpha       = 17
  Nbeta        = 17

  ==> Algorithm <==

  SCF Algorithm Type is DF.
  DIIS enabled.
  MOM disabled.
  Fractional occupation disabled.
  Guess Type is CORE.
  Energy threshold   = 1.00e-06
  Density threshold  = 1.00e-06
  Integral threshold = 0.00e+00

  ==> Primary Basis <==

  Basis Set: 6-31G*
    Number of shells: 40
    Number of basis function: 76
    Number of Cartesian functions: 76
    Spherical Harmonics?: false
    Max angular momentum: 2

  ==> Pre-Iterations <==

   -------------------------------------------------------
    Irrep   Nso     Nmo     Nalpha   Nbeta   Ndocc  Nsocc
   -------------------------------------------------------
     A         76      76       0       0       0       0
   -------------------------------------------------------
    Total      76      76      17      17      17       0
   -------------------------------------------------------

 OEINTS: Overlap, kinetic, potential, dipole, and quadrupole integrals
         stored in file 35.

  ==> Integral Setup <==

  ==> DFJK: Density-Fitted J/K Matrices <==

    J tasked:                  Yes
    K tasked:                  Yes
    wK tasked:                  No
    OpenMP threads:              1
    Integrals threads:           1
    Memory (MB):              1430
    Algorithm:                Core
    Integral Cache:           NONE
    Schwarz Cutoff:          1E-12
    Fitting Condition:       1E-12

   => Auxiliary Basis Set <=

  Basis Set: 
    Number of shells: 168
    Number of basis function: 524
    Number of Cartesian functions: 524
    Spherical Harmonics?: false
    Max angular momentum: 3

  Minimum eigenvalue in the overlap matrix is 5.0578841676E-03.
  Using Symmetric Orthogonalization.
  SCF Guess: Core (One-Electron) Hamiltonian.

  ==> Iterations <==

                           Total Energy        Delta E     RMS |[F,P]|

   @DF-RHF iter   1:  -155.98658686073966   -1.55987e+02   8.72935e-02 
   @DF-RHF iter   2:  -122.90437990489781    3.30822e+01   7.67436e-02 DIIS
   @DF-RHF iter   3:  -162.26728788211906   -3.93629e+01   6.76723e-02 DIIS
   @DF-RHF iter   4:  -192.12738193776184   -2.98601e+01   1.81632e-02 DIIS
   @DF-RHF iter   5:  -193.05781375125926   -9.30432e-01   3.95186e-03 DIIS
   @DF-RHF iter   6:  -193.10451093441023   -4.66972e-02   9.87416e-04 DIIS
   @DF-RHF iter   7:  -193.10783758231437   -3.32665e-03   2.45341e-04 DIIS
   @DF-RHF iter   8:  -193.10811979242695   -2.82210e-04   7.20116e-05 DIIS
   @DF-RHF iter   9:  -193.10814540838518   -2.56160e-05   2.10446e-05 DIIS
   @DF-RHF iter  10:  -193.10814730943426   -1.90105e-06   7.40535e-06 DIIS
   @DF-RHF iter  11:  -193.10814750794853   -1.98514e-07   2.17133e-06 DIIS
   @DF-RHF iter  12:  -193.10814752926788   -2.13194e-08   4.46646e-07 DIIS

  ==> Post-Iterations <==

    Orbital Energies (a.u.)
    -----------------------

    Doubly Occupied:                                                      

       1A    -20.553444     2A    -11.268089     3A    -11.215455  
       4A    -11.203172     5A     -1.360752     6A     -1.045022  
       7A     -0.919168     8A     -0.805603     9A     -0.693321  
      10A     -0.640814    11A     -0.606299    12A     -0.564945  
      13A     -0.528305    14A     -0.511938    15A     -0.481841  
      16A     -0.465661    17A     -0.427726  

    Virtual:                                                              

      18A      0.215882    19A      0.265720    20A      0.293337  
      21A      0.298080    22A      0.322041    23A      0.327778  
      24A      0.342208    25A      0.362717    26A      0.397254  
      27A      0.426166    28A      0.455422    29A      0.721860  
      30A      0.731378    31A      0.767890    32A      0.784333  
      33A      0.827000    34A      0.916705    35A      0.939932  
      36A      0.976758    37A      1.043729    38A      1.087986  
      39A      1.137800    40A      1.158186    41A      1.161719  
      42A      1.197531    43A      1.209636    44A      1.226128  
      45A      1.240926    46A      1.259950    47A      1.279175  
      48A      1.340821    49A      1.462337    50A      1.559568  
      51A      1.699379    52A      1.724359    53A      1.819820  
      54A      1.856038    55A      1.966263    56A      2.053748  
      57A      2.078290    58A      2.174247    59A      2.290281  
      60A      2.313338    61A      2.386356    62A      2.467874  
      63A      2.554757    64A      2.597780    65A      2.634301  
      66A      2.706299    67A      2.751456    68A      2.784166  
      69A      2.870306    70A      3.001121    71A      3.054772  
      72A      3.212945    73A      4.180026    74A      4.592016  
      75A      4.741124    76A      4.910096  

    Final Occupation by Irrep:
              A 
    DOCC [    17 ]

  Energy converged.

  @DF-RHF Final Energy:  -193.10814752926788

   => Energetics <=

    Nuclear Repulsion Energy =            133.1664895317954631
    One-Electron Energy =                -525.9662172888456553
    Two-Electron Energy =                 199.6915802277821683
    DFT Exchange-Correlation Energy =       0.0000000000000000
    Empirical Dispersion Energy =           0.0000000000000000
    PCM Polarization Energy =               0.0000000000000000
    EFP Energy =                            0.0000000000000000
    Total Energy =                       -193.1081475292679954

    Alert: EFP and PCM quantities not currently incorporated into SCF psivars.

Properties will be evaluated at   0.000000,   0.000000,   0.000000 Bohr
  ==> Properties <==


Properties computed using the SCF density matrix

  Nuclear Dipole Moment: (a.u.)
     X:     2.8355      Y:     1.5041      Z:    -0.5851

  Electronic Dipole Moment: (a.u.)
     X:    -2.5264      Y:    -1.5424      Z:     1.2254

  Dipole Moment: (a.u.)
     X:     0.3091      Y:    -0.0383      Z:     0.6402     Total:     0.7120

  Dipole Moment: (Debye)
     X:     0.7856      Y:    -0.0974      Z:     1.6273     Total:     1.8096


  Saving occupied orbitals to File 180.

*** tstop() called on cx1-1-3-4.cx1.hpc.ic.ac.uk at Tue Jul  5 16:27:22 2016
Module time:
	user time   =       3.42 seconds =       0.06 minutes
	system time =       0.04 seconds =       0.00 minutes
	total time  =          4 seconds =       0.07 minutes
Total time:
	user time   =       3.42 seconds =       0.06 minutes
	system time =       0.04 seconds =       0.00 minutes
	total time  =          4 seconds =       0.07 minutes


Properties will be evaluated at   0.000000,   0.000000,   0.000000 Bohr

Properties computed using the  density matrix

  Nuclear Dipole Moment: (a.u.)
     X:     2.8355      Y:     1.5041      Z:    -0.5851

  Electronic Dipole Moment: (a.u.)
     X:    -2.5264      Y:    -1.5424      Z:     1.2254

  Dipole Moment: (a.u.)
     X:     0.3091      Y:    -0.0383      Z:     0.6402     Total:     0.7120

  Dipole Moment: (Debye)
     X:     0.7856      Y:    -0.0974      Z:     1.6273     Total:     1.8096

  Quadrupole Moment: (Debye Ang)
    XX:   -28.8613     YY:   -24.1272     ZZ:   -25.0867
    XY:    -0.1086     XZ:    -1.4479     YZ:    -2.1166

  Traceless Quadrupole Moment: (Debye Ang)
    XX:    -2.8362     YY:     1.8979     ZZ:     0.9384
    XY:    -0.1086     XZ:    -1.4479     YZ:    -2.1166

  Mulliken Charges: (a.u.)
   Center  Symbol    Alpha    Beta     Spin     Total
       1     H     0.28060  0.28060  0.00000  0.43881
       2     O     4.36933  4.36933  0.00000 -0.73866
       3     C     2.99892  2.99892  0.00000  0.00216
       4     C     3.16132  3.16132  0.00000 -0.32264
       5     H     0.41969  0.41969  0.00000  0.16062
       6     H     0.42943  0.42943  0.00000  0.14115
       7     C     3.23929  3.23929  0.00000 -0.47859
       8     H     0.42300  0.42300  0.00000  0.15400
       9     H     0.42589  0.42589  0.00000  0.14823
      10     H     0.42228  0.42228  0.00000  0.15543
      11     H     0.42194  0.42194  0.00000  0.15611
      12     H     0.40831  0.40831  0.00000  0.18338

   Total alpha = 17.00000, Total beta = 17.00000, Total charge = -0.00000


*** PSI4 exiting successfully. Buy a developer a beer!
