    -----------------------------------------------------------------------
          Psi4: An Open-Source Ab Initio Electronic Structure Package
                              Psi4 (no tag) Driver

                          Git: Rev {detached?}  

    J. M. Turney, A. C. Simmonett, R. M. Parrish, E. G. Hohenstein,
    F. A. Evangelista, J. T. Fermann, B. J. Mintz, L. A. Burns, J. J. Wilke,
    M. L. Abrams, N. J. Russ, M. L. Leininger, C. L. Janssen, E. T. Seidl,
    W. D. Allen, H. F. Schaefer, R. A. King, E. F. Valeev, C. D. Sherrill,
    and T. D. Crawford, WIREs Comput. Mol. Sci. 2, 556-565 (2012)
    (doi: 10.1002/wcms.93)

                         Additional Contributions by
    A. E. DePrince, M. Saitow, U. Bozkaya, A. Yu. Sokolov
    -----------------------------------------------------------------------


    Psi4 started on: Tue Jul  5 17:16:35 2016

    Process ID:  29041
    PSI4DATADIR: /export131/home/mjharvey/miniconda3/share
    Memory level set to 256.000 MB

  ==> Input File <==

--------------------------------------------------------------------------
set {
	reference rhf
	basis 6-31G*
}


set_num_threads( 1 )
memory 2 gb

molecule MOL {
0 1

H	 -3.855507	 -1.396950	 1.310901
C	 -2.783801	 -1.419700	 1.223082
C	 -2.041380	 -2.263260	 2.035710
C	 -2.149469	 -0.605652	 0.297942
H	 -2.534578	 -2.894075	 2.752784
C	 -0.663419	 -2.291954	 1.922209
H	 -2.726631	 0.047612	 -0.331134
C	 -0.770219	 -0.632700	 0.182570
H	 -0.072895	 -2.938422	 2.542720
C	 -0.023295	 -1.477045	 0.995556
H	 -0.275185	 -0.004460	 -0.531977
C	 1.463013	 -1.545621	 0.912827
O	 1.907201	 -1.706187	 -0.324719
O	 2.186483	 -1.465459	 1.855707
C	 3.301954	 -1.563889	 -0.527413
H	 3.574167	 -1.883633	 -1.522631
H	 3.771924	 -2.194556	 0.210991
H	 3.601471	 -0.535331	 -0.388568

	symmetry c1
}
set optking {
	frozen_dihedral = ("
		12 13 15 16,
		10 12 13 15
	")
}

ee = energy('scf')
oeprop('DIPOLE', 'QUADRUPOLE', 'MULLIKEN_CHARGES')
f=open( 'psi4out.xyz', 'w' )
f.write( "18  " )
f.write( str(ee) + "\n" )
f.write( MOL.save_string_xyz() )
f.close()
--------------------------------------------------------------------------

  Memory set to   2.000 GiB by Python script.

*** tstart() called on cx1-3-5-2.cx1.hpc.ic.ac.uk
*** at Tue Jul  5 17:16:35 2016


         ---------------------------------------------------------
                                   SCF
            by Justin Turney, Rob Parrish, and Andy Simmonett
                              RHF Reference
                        1 Threads,   2000 MiB Core
         ---------------------------------------------------------

  ==> Geometry <==

    Molecular point group: c1
    Full point group: C1

    Geometry (in Angstrom), charge = 0, multiplicity = 1:

       Center              X                  Y                   Z               Mass       
    ------------   -----------------  -----------------  -----------------  -----------------
           H         -4.024361777795     0.104090508143     0.479805649183     1.007825032070
           C         -2.952655777795     0.081340508143     0.391986649183    12.000000000000
           C         -2.210234777795    -0.762219491857     1.204614649183    12.000000000000
           C         -2.318323777795     0.895388508143    -0.533153350817    12.000000000000
           H         -2.703432777795    -1.393034491857     1.921688649183     1.007825032070
           C         -0.832273777795    -0.790913491857     1.091113649183    12.000000000000
           H         -2.895485777795     1.548652508143    -1.162229350817     1.007825032070
           C         -0.939073777795     0.868340508143    -0.648525350817    12.000000000000
           H         -0.241749777795    -1.437381491857     1.711624649183     1.007825032070
           C         -0.192149777795     0.023995508143     0.164460649183    12.000000000000
           H         -0.444039777795     1.496580508143    -1.363072350817     1.007825032070
           C          1.294158222205    -0.044580491857     0.081731649183    12.000000000000
           O          1.738346222205    -0.205146491857    -1.155814350817    15.994914619560
           O          2.017628222205     0.035581508143     1.024611649183    15.994914619560
           C          3.133099222205    -0.062848491857    -1.358508350817    12.000000000000
           H          3.405312222205    -0.382592491857    -2.353726350817     1.007825032070
           H          3.603069222205    -0.693515491857    -0.620104350817     1.007825032070
           H          3.432616222205     0.965709508143    -1.219663350817     1.007825032070

  Running in c1 symmetry.

  Rotational constants: A =      0.11852  B =      0.02752  C =      0.02377 [cm^-1]
  Rotational constants: A =   3553.20113  B =    825.00801  C =    712.47018 [MHz]
  Nuclear repulsion =  492.252690421285990

  Charge       = 0
  Multiplicity = 1
  Electrons    = 72
  Nalpha       = 36
  Nbeta        = 36

  ==> Algorithm <==

  SCF Algorithm Type is DF.
  DIIS enabled.
  MOM disabled.
  Fractional occupation disabled.
  Guess Type is CORE.
  Energy threshold   = 1.00e-06
  Density threshold  = 1.00e-06
  Integral threshold = 0.00e+00

  ==> Primary Basis <==

  Basis Set: 6-31G*
    Number of shells: 76
    Number of basis function: 166
    Number of Cartesian functions: 166
    Spherical Harmonics?: false
    Max angular momentum: 2

  ==> Pre-Iterations <==

   -------------------------------------------------------
    Irrep   Nso     Nmo     Nalpha   Nbeta   Ndocc  Nsocc
   -------------------------------------------------------
     A        166     166       0       0       0       0
   -------------------------------------------------------
    Total     166     166      36      36      36       0
   -------------------------------------------------------

 OEINTS: Overlap, kinetic, potential, dipole, and quadrupole integrals
         stored in file 35.

  ==> Integral Setup <==

  ==> DFJK: Density-Fitted J/K Matrices <==

    J tasked:                  Yes
    K tasked:                  Yes
    wK tasked:                  No
    OpenMP threads:              1
    Integrals threads:           1
    Memory (MB):              1430
    Algorithm:                Core
    Integral Cache:           NONE
    Schwarz Cutoff:          1E-12
    Fitting Condition:       1E-12

   => Auxiliary Basis Set <=

  Basis Set: 
    Number of shells: 312
    Number of basis function: 1010
    Number of Cartesian functions: 1010
    Spherical Harmonics?: false
    Max angular momentum: 3

  Minimum eigenvalue in the overlap matrix is 4.3517615683E-04.
  Using Symmetric Orthogonalization.
  SCF Guess: Core (One-Electron) Hamiltonian.

  ==> Iterations <==

                           Total Energy        Delta E     RMS |[F,P]|

   @DF-RHF iter   1:  -346.32834138322420   -3.46328e+02   6.61033e-02 
   @DF-RHF iter   2:  -302.77978664284632    4.35486e+01   5.67476e-02 DIIS
   @DF-RHF iter   3:  -392.54069152252220   -8.97609e+01   4.93670e-02 DIIS
   @DF-RHF iter   4:  -422.88825530708317   -3.03476e+01   3.88330e-02 DIIS
   @DF-RHF iter   5:  -419.26182557882606    3.62643e+00   3.48389e-02 DIIS
   @DF-RHF iter   6:  -456.83577818841599   -3.75740e+01   5.97304e-03 DIIS
   @DF-RHF iter   7:  -457.21228284482146   -3.76505e-01   3.33796e-03 DIIS
   @DF-RHF iter   8:  -457.33275236236699   -1.20470e-01   6.79289e-04 DIIS
   @DF-RHF iter   9:  -457.33928229129577   -6.52993e-03   3.12865e-04 DIIS
   @DF-RHF iter  10:  -457.34102719838876   -1.74491e-03   1.02858e-04 DIIS
   @DF-RHF iter  11:  -457.34128741041087   -2.60212e-04   4.33486e-05 DIIS
   @DF-RHF iter  12:  -457.34133581657278   -4.84062e-05   1.39085e-05 DIIS
   @DF-RHF iter  13:  -457.34134150195877   -5.68539e-06   4.11154e-06 DIIS
   @DF-RHF iter  14:  -457.34134222583992   -7.23881e-07   2.16384e-06 DIIS
   @DF-RHF iter  15:  -457.34134243187663   -2.06037e-07   8.29058e-07 DIIS

  ==> Post-Iterations <==

    Orbital Energies (a.u.)
    -----------------------

    Doubly Occupied:                                                      

       1A    -20.607526     2A    -20.547630     3A    -11.379837  
       4A    -11.282319     5A    -11.249687     6A    -11.245840  
       7A    -11.243490     8A    -11.243080     9A    -11.239619  
      10A    -11.238793    11A     -1.473574    12A     -1.364830  
      13A     -1.166494    14A     -1.048850    15A     -1.026329  
      16A     -0.978307    17A     -0.861064    18A     -0.837704  
      19A     -0.778579    20A     -0.738107    21A     -0.684733  
      22A     -0.680087    23A     -0.674805    24A     -0.632400  
      25A     -0.628563    26A     -0.598047    27A     -0.593427  
      28A     -0.551978    29A     -0.530320    30A     -0.512099  
      31A     -0.508144    32A     -0.501734    33A     -0.457682  
      34A     -0.445408    35A     -0.343461    36A     -0.342551  

    Virtual:                                                              

      37A      0.115861    38A      0.138389    39A      0.219607  
      40A      0.234334    41A      0.261432    42A      0.289005  
      43A      0.294651    44A      0.312804    45A      0.325373  
      46A      0.329754    47A      0.332242    48A      0.339957  
      49A      0.367274    50A      0.431834    51A      0.467836  
      52A      0.472471    53A      0.510557    54A      0.512971  
      55A      0.556091    56A      0.584226    57A      0.666724  
      58A      0.729098    59A      0.740053    60A      0.740867  
      61A      0.743849    62A      0.770081    63A      0.776852  
      64A      0.791109    65A      0.804065    66A      0.816450  
      67A      0.821173    68A      0.833044    69A      0.838814  
      70A      0.863724    71A      0.879156    72A      0.897254  
      73A      0.910589    74A      0.945219    75A      0.973645  
      76A      0.998454    77A      1.012685    78A      1.084753  
      79A      1.107384    80A      1.109935    81A      1.111444  
      82A      1.113403    83A      1.133559    84A      1.140832  
      85A      1.152046    86A      1.156407    87A      1.192851  
      88A      1.206406    89A      1.215694    90A      1.238896  
      91A      1.265034    92A      1.298580    93A      1.340998  
      94A      1.347172    95A      1.363643    96A      1.391389  
      97A      1.411544    98A      1.434503    99A      1.451257  
     100A      1.494816   101A      1.514254   102A      1.632175  
     103A      1.666657   104A      1.678803   105A      1.697002  
     106A      1.741785   107A      1.752530   108A      1.761614  
     109A      1.770596   110A      1.782995   111A      1.827386  
     112A      1.919747   113A      1.953870   114A      1.981417  
     115A      2.068391   116A      2.091990   117A      2.102484  
     118A      2.159603   119A      2.176261   120A      2.183923  
     121A      2.232307   122A      2.249718   123A      2.319493  
     124A      2.343209   125A      2.361801   126A      2.392018  
     127A      2.403663   128A      2.424473   129A      2.447585  
     130A      2.464515   131A      2.465296   132A      2.492482  
     133A      2.519044   134A      2.603129   135A      2.616836  
     136A      2.630578   137A      2.640725   138A      2.672248  
     139A      2.714705   140A      2.793646   141A      2.862637  
     142A      2.915475   143A      2.929133   144A      3.000629  
     145A      3.019050   146A      3.048253   147A      3.099785  
     148A      3.113725   149A      3.131791   150A      3.179016  
     151A      3.197372   152A      3.332593   153A      3.374734  
     154A      3.528904   155A      3.574117   156A      3.835760  
     157A      4.425992   158A      4.514561   159A      4.528349  
     160A      4.534392   161A      4.649275   162A      4.657158  
     163A      4.727292   164A      4.801788   165A      4.887573  
     166A      5.157476  

    Final Occupation by Irrep:
              A 
    DOCC [    36 ]

  Energy converged.

  @DF-RHF Final Energy:  -457.34134243187663

   => Energetics <=

    Nuclear Repulsion Energy =            492.2526904212859904
    One-Electron Energy =               -1598.7141297102887165
    Two-Electron Energy =                 649.1200968571251906
    DFT Exchange-Correlation Energy =       0.0000000000000000
    Empirical Dispersion Energy =           0.0000000000000000
    PCM Polarization Energy =               0.0000000000000000
    EFP Energy =                            0.0000000000000000
    Total Energy =                       -457.3413424318775924

    Alert: EFP and PCM quantities not currently incorporated into SCF psivars.

Properties will be evaluated at   0.000000,   0.000000,   0.000000 Bohr
  ==> Properties <==


Properties computed using the SCF density matrix

  Nuclear Dipole Moment: (a.u.)
     X:     0.1417      Y:     0.1947      Z:    -2.4434

  Electronic Dipole Moment: (a.u.)
     X:    -0.5598      Y:    -0.1742      Z:     1.7373

  Dipole Moment: (a.u.)
     X:    -0.4181      Y:     0.0205      Z:    -0.7061     Total:     0.8208

  Dipole Moment: (Debye)
     X:    -1.0626      Y:     0.0521      Z:    -1.7946     Total:     2.0863


  Saving occupied orbitals to File 180.

*** tstop() called on cx1-3-5-2.cx1.hpc.ic.ac.uk at Tue Jul  5 17:16:59 2016
Module time:
	user time   =      23.31 seconds =       0.39 minutes
	system time =       0.23 seconds =       0.00 minutes
	total time  =         24 seconds =       0.40 minutes
Total time:
	user time   =      23.31 seconds =       0.39 minutes
	system time =       0.23 seconds =       0.00 minutes
	total time  =         24 seconds =       0.40 minutes


Properties will be evaluated at   0.000000,   0.000000,   0.000000 Bohr

Properties computed using the  density matrix

  Nuclear Dipole Moment: (a.u.)
     X:     0.1417      Y:     0.1947      Z:    -2.4434

  Electronic Dipole Moment: (a.u.)
     X:    -0.5598      Y:    -0.1742      Z:     1.7373

  Dipole Moment: (a.u.)
     X:    -0.4181      Y:     0.0205      Z:    -0.7061     Total:     0.8208

  Dipole Moment: (Debye)
     X:    -1.0626      Y:     0.0521      Z:    -1.7946     Total:     2.0863

  Quadrupole Moment: (Debye Ang)
    XX:   -48.9861     YY:   -56.0824     ZZ:   -59.0155
    XY:    -0.5709     XZ:    -7.8541     YZ:    -5.0991

  Traceless Quadrupole Moment: (Debye Ang)
    XX:     5.7085     YY:    -1.3877     ZZ:    -4.3208
    XY:    -0.5709     XZ:    -7.8541     YZ:    -5.0991

  Mulliken Charges: (a.u.)
   Center  Symbol    Alpha    Beta     Spin     Total
       1     H     0.39594  0.39594  0.00000  0.20812
       2     C     3.09401  3.09401  0.00000 -0.18801
       3     C     3.10292  3.10292  0.00000 -0.20583
       4     C     3.10363  3.10363  0.00000 -0.20727
       5     H     0.39522  0.39522  0.00000  0.20956
       6     C     3.09441  3.09441  0.00000 -0.18882
       7     H     0.39574  0.39574  0.00000  0.20852
       8     C     3.09105  3.09105  0.00000 -0.18210
       9     H     0.38431  0.38431  0.00000  0.23138
      10     C     3.02810  3.02810  0.00000 -0.05620
      11     H     0.38910  0.38910  0.00000  0.22180
      12     C     2.62504  2.62504  0.00000  0.74992
      13     O     4.30130  4.30130  0.00000 -0.60261
      14     O     4.28235  4.28235  0.00000 -0.56470
      15     C     3.09646  3.09646  0.00000 -0.19291
      16     H     0.40611  0.40611  0.00000  0.18778
      17     H     0.40229  0.40229  0.00000  0.19542
      18     H     0.41203  0.41203  0.00000  0.17595

   Total alpha = 36.00000, Total beta = 36.00000, Total charge =  0.00000


*** PSI4 exiting successfully. Buy a developer a beer!
