    -----------------------------------------------------------------------
          Psi4: An Open-Source Ab Initio Electronic Structure Package
                              Psi4 (no tag) Driver

                          Git: Rev {detached?}  

    J. M. Turney, A. C. Simmonett, R. M. Parrish, E. G. Hohenstein,
    F. A. Evangelista, J. T. Fermann, B. J. Mintz, L. A. Burns, J. J. Wilke,
    M. L. Abrams, N. J. Russ, M. L. Leininger, C. L. Janssen, E. T. Seidl,
    W. D. Allen, H. F. Schaefer, R. A. King, E. F. Valeev, C. D. Sherrill,
    and T. D. Crawford, WIREs Comput. Mol. Sci. 2, 556-565 (2012)
    (doi: 10.1002/wcms.93)

                         Additional Contributions by
    A. E. DePrince, M. Saitow, U. Bozkaya, A. Yu. Sokolov
    -----------------------------------------------------------------------


    Psi4 started on: Tue Jul  5 16:29:21 2016

    Process ID:  17061
    PSI4DATADIR: /export131/home/mjharvey/miniconda3/share
    Memory level set to 256.000 MB

  ==> Input File <==

--------------------------------------------------------------------------
set {
	reference rhf
	basis 6-31G*
}


set_num_threads( 1 )
memory 2 gb

molecule MOL {
0 1

H	 1.766166	 0.764500	 1.169695
O	 0.979603	 0.231121	 1.229331
C	 0.489431	 0.077273	 0.000046
C	 -0.764129	 -0.759190	 0.000191
O	 1.008567	 0.558199	 -0.953774
C	 -2.038368	 0.075731	 -0.000248
H	 -0.717284	 -1.412404	 -0.866059
H	 -0.717458	 -1.411724	 0.866967
H	 -2.086483	 0.712501	 -0.875098
H	 -2.908485	 -0.571682	 -0.000042
H	 -2.086576	 0.713280	 0.874068

	symmetry c1
}
set optking {
	frozen_dihedral = ("
		1 2 3 5
	")
}

ee = energy('scf')
oeprop('DIPOLE', 'QUADRUPOLE', 'MULLIKEN_CHARGES')
f=open( 'psi4out.xyz', 'w' )
f.write( "11  " )
f.write( str(ee) + "\n" )
f.write( MOL.save_string_xyz() )
f.close()
--------------------------------------------------------------------------

  Memory set to   2.000 GiB by Python script.

*** tstart() called on cx1-3-15-3.cx1.hpc.ic.ac.uk
*** at Tue Jul  5 16:29:21 2016


         ---------------------------------------------------------
                                   SCF
            by Justin Turney, Rob Parrish, and Andy Simmonett
                              RHF Reference
                        1 Threads,   2000 MiB Core
         ---------------------------------------------------------

  ==> Geometry <==

    Molecular point group: c1
    Full point group: C1

    Geometry (in Angstrom), charge = 0, multiplicity = 1:

       Center              X                  Y                   Z               Mass       
    ------------   -----------------  -----------------  -----------------  -----------------
           H          1.803432916896     0.708637066250     1.094245185080     1.007825032070
           O          1.016869916896     0.175258066250     1.153881185080    15.994914619560
           C          0.526697916896     0.021410066250    -0.075403814920    12.000000000000
           C         -0.726862083104    -0.815052933750    -0.075258814920    12.000000000000
           O          1.045833916896     0.502336066250    -1.029223814920    15.994914619560
           C         -2.001101083104     0.019868066250    -0.075697814920    12.000000000000
           H         -0.680017083104    -1.468266933750    -0.941508814920     1.007825032070
           H         -0.680191083104    -1.467586933750     0.791517185080     1.007825032070
           H         -2.049216083104     0.656638066250    -0.950547814920     1.007825032070
           H         -2.871218083104    -0.627544933750    -0.075491814920     1.007825032070
           H         -2.049309083104     0.657417066250     0.798618185080     1.007825032070

  Running in c1 symmetry.

  Rotational constants: A =      0.29713  B =      0.12866  C =      0.10507 [cm^-1]
  Rotational constants: A =   8907.70363  B =   3857.11343  C =   3149.95794 [MHz]
  Nuclear repulsion =  179.640839922251644

  Charge       = 0
  Multiplicity = 1
  Electrons    = 40
  Nalpha       = 20
  Nbeta        = 20

  ==> Algorithm <==

  SCF Algorithm Type is DF.
  DIIS enabled.
  MOM disabled.
  Fractional occupation disabled.
  Guess Type is CORE.
  Energy threshold   = 1.00e-06
  Density threshold  = 1.00e-06
  Integral threshold = 0.00e+00

  ==> Primary Basis <==

  Basis Set: 6-31G*
    Number of shells: 42
    Number of basis function: 87
    Number of Cartesian functions: 87
    Spherical Harmonics?: false
    Max angular momentum: 2

  ==> Pre-Iterations <==

   -------------------------------------------------------
    Irrep   Nso     Nmo     Nalpha   Nbeta   Ndocc  Nsocc
   -------------------------------------------------------
     A         87      87       0       0       0       0
   -------------------------------------------------------
    Total      87      87      20      20      20       0
   -------------------------------------------------------

 OEINTS: Overlap, kinetic, potential, dipole, and quadrupole integrals
         stored in file 35.

  ==> Integral Setup <==

  ==> DFJK: Density-Fitted J/K Matrices <==

    J tasked:                  Yes
    K tasked:                  Yes
    wK tasked:                  No
    OpenMP threads:              1
    Integrals threads:           1
    Memory (MB):              1430
    Algorithm:                Core
    Integral Cache:           NONE
    Schwarz Cutoff:          1E-12
    Fitting Condition:       1E-12

   => Auxiliary Basis Set <=

  Basis Set: 
    Number of shells: 174
    Number of basis function: 555
    Number of Cartesian functions: 555
    Spherical Harmonics?: false
    Max angular momentum: 3

  Minimum eigenvalue in the overlap matrix is 3.7327023611E-03.
  Using Symmetric Orthogonalization.
  SCF Guess: Core (One-Electron) Hamiltonian.

  ==> Iterations <==

                           Total Energy        Delta E     RMS |[F,P]|

   @DF-RHF iter   1:  -217.25714776163608   -2.17257e+02   8.22293e-02 
   @DF-RHF iter   2:  -154.69532325874525    6.25618e+01   9.26419e-02 DIIS
   @DF-RHF iter   3:  -250.45487966309685   -9.57596e+01   3.81112e-02 DIIS
   @DF-RHF iter   4:  -237.90021415785617    1.25547e+01   6.32163e-02 DIIS
   @DF-RHF iter   5:  -266.52781346122123   -2.86276e+01   8.72879e-03 DIIS
   @DF-RHF iter   6:  -266.76543532897159   -2.37622e-01   4.68781e-03 DIIS
   @DF-RHF iter   7:  -266.82203322076100   -5.65979e-02   2.05140e-03 DIIS
   @DF-RHF iter   8:  -266.84056125817801   -1.85280e-02   7.32441e-04 DIIS
   @DF-RHF iter   9:  -266.84306703469554   -2.50578e-03   2.45718e-04 DIIS
   @DF-RHF iter  10:  -266.84330522786468   -2.38193e-04   9.42847e-05 DIIS
   @DF-RHF iter  11:  -266.84336045281083   -5.52249e-05   2.16103e-05 DIIS
   @DF-RHF iter  12:  -266.84336356616183   -3.11335e-06   5.77142e-06 DIIS
   @DF-RHF iter  13:  -266.84336383461755   -2.68456e-07   1.73566e-06 DIIS
   @DF-RHF iter  14:  -266.84336387028128   -3.56637e-08   6.48838e-07 DIIS

  ==> Post-Iterations <==

    Orbital Energies (a.u.)
    -----------------------

    Doubly Occupied:                                                      

       1A    -20.614396     2A    -20.550669     3A    -11.381193  
       4A    -11.242219     5A    -11.230973     6A     -1.475278  
       7A     -1.365777     8A     -1.068595     9A     -0.916378  
      10A     -0.812520    11A     -0.702793    12A     -0.685674  
      13A     -0.640823    14A     -0.614364    15A     -0.594465  
      16A     -0.543730    17A     -0.530630    18A     -0.509193  
      19A     -0.475542    20A     -0.441025  

    Virtual:                                                              

      21A      0.186181    22A      0.230207    23A      0.263459  
      24A      0.293099    25A      0.296047    26A      0.320561  
      27A      0.328104    28A      0.383229    29A      0.438585  
      30A      0.493203    31A      0.545937    32A      0.720604  
      33A      0.728627    34A      0.734744    35A      0.794440  
      36A      0.835984    37A      0.870412    38A      0.949409  
      39A      0.958608    40A      0.989750    41A      1.058490  
      42A      1.083257    43A      1.097964    44A      1.142874  
      45A      1.155616    46A      1.195754    47A      1.211106  
      48A      1.229804    49A      1.237702    50A      1.253734  
      51A      1.340518    52A      1.355165    53A      1.369290  
      54A      1.509182    55A      1.626608    56A      1.661986  
      57A      1.693994    58A      1.854824    59A      1.889084  
      60A      1.939804    61A      2.013367    62A      2.055900  
      63A      2.079004    64A      2.133651    65A      2.149333  
      66A      2.230175    67A      2.250761    68A      2.290726  
      69A      2.368485    70A      2.447091    71A      2.580332  
      72A      2.613592    73A      2.646232    74A      2.683506  
      75A      2.765873    76A      2.865026    77A      2.968934  
      78A      3.063358    79A      3.105128    80A      3.226773  
      81A      3.370930    82A      3.476718    83A      4.264923  
      84A      4.511446    85A      4.574935    86A      4.729753  
      87A      4.965373  

    Final Occupation by Irrep:
              A 
    DOCC [    20 ]

  Energy converged.

  @DF-RHF Final Energy:  -266.84336387028128

   => Energetics <=

    Nuclear Repulsion Energy =            179.6408399222516437
    One-Electron Energy =                -720.1759114344085901
    Two-Electron Energy =                 273.6917076418757233
    DFT Exchange-Correlation Energy =       0.0000000000000000
    Empirical Dispersion Energy =           0.0000000000000000
    PCM Polarization Energy =               0.0000000000000000
    EFP Energy =                            0.0000000000000000
    Total Energy =                       -266.8433638702812232

    Alert: EFP and PCM quantities not currently incorporated into SCF psivars.

Properties will be evaluated at   0.000000,   0.000000,   0.000000 Bohr
  ==> Properties <==


Properties computed using the SCF density matrix

  Nuclear Dipole Moment: (a.u.)
     X:    -6.1085      Y:    -1.4411      Z:     0.6726

  Electronic Dipole Moment: (a.u.)
     X:     5.7585      Y:     1.2048      Z:    -0.1037

  Dipole Moment: (a.u.)
     X:    -0.3500      Y:    -0.2363      Z:     0.5689     Total:     0.7085

  Dipole Moment: (Debye)
     X:    -0.8896      Y:    -0.6006      Z:     1.4460     Total:     1.8009


  Saving occupied orbitals to File 180.

*** tstop() called on cx1-3-15-3.cx1.hpc.ic.ac.uk at Tue Jul  5 16:29:25 2016
Module time:
	user time   =       3.28 seconds =       0.05 minutes
	system time =       0.03 seconds =       0.00 minutes
	total time  =          4 seconds =       0.07 minutes
Total time:
	user time   =       3.28 seconds =       0.05 minutes
	system time =       0.03 seconds =       0.00 minutes
	total time  =          4 seconds =       0.07 minutes


Properties will be evaluated at   0.000000,   0.000000,   0.000000 Bohr

Properties computed using the  density matrix

  Nuclear Dipole Moment: (a.u.)
     X:    -6.1085      Y:    -1.4411      Z:     0.6726

  Electronic Dipole Moment: (a.u.)
     X:     5.7585      Y:     1.2048      Z:    -0.1037

  Dipole Moment: (a.u.)
     X:    -0.3500      Y:    -0.2363      Z:     0.5689     Total:     0.7085

  Dipole Moment: (Debye)
     X:    -0.8896      Y:    -0.6006      Z:     1.4460     Total:     1.8009

  Quadrupole Moment: (Debye Ang)
    XX:   -27.1366     YY:   -28.8589     ZZ:   -34.0812
    XY:     1.0939     XZ:     3.5916     YZ:     2.5256

  Traceless Quadrupole Moment: (Debye Ang)
    XX:     2.8889     YY:     1.1667     ZZ:    -4.0556
    XY:     1.0939     XZ:     3.5916     YZ:     2.5256

  Mulliken Charges: (a.u.)
   Center  Symbol    Alpha    Beta     Spin     Total
       1     H     0.26829  0.26829  0.00000  0.46343
       2     O     4.34676  4.34676  0.00000 -0.69352
       3     C     2.63267  2.63267  0.00000  0.73466
       4     C     3.19985  3.19985  0.00000 -0.39970
       5     O     4.27767  4.27767  0.00000 -0.55533
       6     C     3.24896  3.24896  0.00000 -0.49792
       7     H     0.39865  0.39865  0.00000  0.20271
       8     H     0.40094  0.40094  0.00000  0.19811
       9     H     0.40569  0.40569  0.00000  0.18862
      10     H     0.41032  0.41032  0.00000  0.17935
      11     H     0.41021  0.41021  0.00000  0.17959

   Total alpha = 20.00000, Total beta = 20.00000, Total charge = -0.00000


*** PSI4 exiting successfully. Buy a developer a beer!
