    -----------------------------------------------------------------------
          Psi4: An Open-Source Ab Initio Electronic Structure Package
                              Psi4 (no tag) Driver

                          Git: Rev {detached?}  

    J. M. Turney, A. C. Simmonett, R. M. Parrish, E. G. Hohenstein,
    F. A. Evangelista, J. T. Fermann, B. J. Mintz, L. A. Burns, J. J. Wilke,
    M. L. Abrams, N. J. Russ, M. L. Leininger, C. L. Janssen, E. T. Seidl,
    W. D. Allen, H. F. Schaefer, R. A. King, E. F. Valeev, C. D. Sherrill,
    and T. D. Crawford, WIREs Comput. Mol. Sci. 2, 556-565 (2012)
    (doi: 10.1002/wcms.93)

                         Additional Contributions by
    A. E. DePrince, M. Saitow, U. Bozkaya, A. Yu. Sokolov
    -----------------------------------------------------------------------


    Psi4 started on: Tue Jul  5 16:39:40 2016

    Process ID:  30587
    PSI4DATADIR: /export131/home/mjharvey/miniconda3/share
    Memory level set to 256.000 MB

  ==> Input File <==

--------------------------------------------------------------------------
set {
	reference rhf
	basis 6-31G*
}


set_num_threads( 1 )
memory 2 gb

molecule MOL {
0 1

H	 -3.881361	 0.686036	 -0.112494
O	 -3.032409	 1.013790	 -0.372560
C	 -2.026376	 0.340750	 0.341611
C	 -0.673256	 0.843270	 -0.132153
H	 -2.132423	 0.523541	 1.409449
H	 -2.099787	 -0.734576	 0.183693
C	 0.486613	 -0.083066	 0.235839
H	 -0.715586	 0.970948	 -1.210718
H	 -0.508072	 1.829858	 0.297090
C	 0.765248	 -0.120712	 1.739421
H	 1.378736	 0.236967	 -0.292564
H	 0.264762	 -1.091045	 -0.112873
C	 1.446297	 1.148314	 2.250711
H	 -0.170518	 -0.267562	 2.274673
H	 1.387866	 -0.982475	 1.972133
H	 0.831797	 2.024275	 2.063706
H	 1.629342	 1.094331	 3.319601
H	 2.402341	 1.305563	 1.759016

	symmetry c1
}
set optking {
	frozen_dihedral = ("
		14 10 7 11,
		10 7 4 8,
		1 2 3 4
	")
}

ee = energy('scf')
oeprop('DIPOLE', 'QUADRUPOLE', 'MULLIKEN_CHARGES')
f=open( 'psi4out.xyz', 'w' )
f.write( "18  " )
f.write( str(ee) + "\n" )
f.write( MOL.save_string_xyz() )
f.close()
--------------------------------------------------------------------------

  Memory set to   2.000 GiB by Python script.

*** tstart() called on cx1-3-2-3.cx1.hpc.ic.ac.uk
*** at Tue Jul  5 16:39:40 2016


         ---------------------------------------------------------
                                   SCF
            by Justin Turney, Rob Parrish, and Andy Simmonett
                              RHF Reference
                        1 Threads,   2000 MiB Core
         ---------------------------------------------------------

  ==> Geometry <==

    Molecular point group: c1
    Full point group: C1

    Geometry (in Angstrom), charge = 0, multiplicity = 1:

       Center              X                  Y                   Z               Mass       
    ------------   -----------------  -----------------  -----------------  -----------------
           H         -3.312090825781     0.147967627965    -0.781218846602     1.007825032070
           O         -2.463138825781     0.475721627965    -1.041284846602    15.994914619560
           C         -1.457105825781    -0.197318372035    -0.327113846602    12.000000000000
           C         -0.103985825781     0.305201627965    -0.800877846602    12.000000000000
           H         -1.563152825781    -0.014527372035     0.740724153398     1.007825032070
           H         -1.530516825781    -1.272644372035    -0.485031846602     1.007825032070
           C          1.055883174219    -0.621134372035    -0.432885846602    12.000000000000
           H         -0.146315825781     0.432879627965    -1.879442846602     1.007825032070
           H          0.061198174219     1.291789627965    -0.371634846602     1.007825032070
           C          1.334518174219    -0.658780372035     1.070696153398    12.000000000000
           H          1.948006174219    -0.301101372035    -0.961288846602     1.007825032070
           H          0.834032174219    -1.629113372035    -0.781597846602     1.007825032070
           C          2.015567174219     0.610245627965     1.581986153398    12.000000000000
           H          0.398752174219    -0.805630372035     1.605948153398     1.007825032070
           H          1.957136174219    -1.520543372035     1.303408153398     1.007825032070
           H          1.401067174219     1.486206627965     1.394981153398     1.007825032070
           H          2.198612174219     0.556262627965     2.650876153398     1.007825032070
           H          2.971611174219     0.767494627965     1.090291153398     1.007825032070

  Running in c1 symmetry.

  Rotational constants: A =      0.25767  B =      0.05072  C =      0.04874 [cm^-1]
  Rotational constants: A =   7724.87519  B =   1520.51208  C =   1461.17798 [MHz]
  Nuclear repulsion =  252.615423055366733

  Charge       = 0
  Multiplicity = 1
  Electrons    = 50
  Nalpha       = 25
  Nbeta        = 25

  ==> Algorithm <==

  SCF Algorithm Type is DF.
  DIIS enabled.
  MOM disabled.
  Fractional occupation disabled.
  Guess Type is CORE.
  Energy threshold   = 1.00e-06
  Density threshold  = 1.00e-06
  Integral threshold = 0.00e+00

  ==> Primary Basis <==

  Basis Set: 6-31G*
    Number of shells: 60
    Number of basis function: 114
    Number of Cartesian functions: 114
    Spherical Harmonics?: false
    Max angular momentum: 2

  ==> Pre-Iterations <==

   -------------------------------------------------------
    Irrep   Nso     Nmo     Nalpha   Nbeta   Ndocc  Nsocc
   -------------------------------------------------------
     A        114     114       0       0       0       0
   -------------------------------------------------------
    Total     114     114      25      25      25       0
   -------------------------------------------------------

 OEINTS: Overlap, kinetic, potential, dipole, and quadrupole integrals
         stored in file 35.

  ==> Integral Setup <==

  ==> DFJK: Density-Fitted J/K Matrices <==

    J tasked:                  Yes
    K tasked:                  Yes
    wK tasked:                  No
    OpenMP threads:              1
    Integrals threads:           1
    Memory (MB):              1430
    Algorithm:                Core
    Integral Cache:           NONE
    Schwarz Cutoff:          1E-12
    Fitting Condition:       1E-12

   => Auxiliary Basis Set <=

  Basis Set: 
    Number of shells: 252
    Number of basis function: 786
    Number of Cartesian functions: 786
    Spherical Harmonics?: false
    Max angular momentum: 3

  Minimum eigenvalue in the overlap matrix is 3.9990689489E-03.
  Using Symmetric Orthogonalization.
  SCF Guess: Core (One-Electron) Hamiltonian.

  ==> Iterations <==

                           Total Energy        Delta E     RMS |[F,P]|

   @DF-RHF iter   1:  -209.61743635162404   -2.09617e+02   7.26323e-02 
   @DF-RHF iter   2:  -108.16003801008563    1.01457e+02   8.93780e-02 DIIS
   @DF-RHF iter   3:  -229.83164296762195   -1.21672e+02   4.32717e-02 DIIS
   @DF-RHF iter   4:  -178.06858089270813    5.17631e+01   7.31688e-02 DIIS
   @DF-RHF iter   5:  -243.21108757278702   -6.51425e+01   4.34865e-02 DIIS
   @DF-RHF iter   6:  -270.66823744556405   -2.74571e+01   9.12288e-03 DIIS
   @DF-RHF iter   7:  -271.05523251061538   -3.86995e-01   4.76992e-03 DIIS
   @DF-RHF iter   8:  -271.17015591417612   -1.14923e-01   5.90899e-04 DIIS
   @DF-RHF iter   9:  -271.17395656845099   -3.80065e-03   1.67098e-04 DIIS
   @DF-RHF iter  10:  -271.17428807194017   -3.31503e-04   5.61026e-05 DIIS
   @DF-RHF iter  11:  -271.17432028081635   -3.22089e-05   1.35338e-05 DIIS
   @DF-RHF iter  12:  -271.17432252806259   -2.24725e-06   4.19833e-06 DIIS
   @DF-RHF iter  13:  -271.17432271280325   -1.84741e-07   1.83430e-06 DIIS
   @DF-RHF iter  14:  -271.17432274034479   -2.75415e-08   4.80445e-07 DIIS

  ==> Post-Iterations <==

    Orbital Energies (a.u.)
    -----------------------

    Doubly Occupied:                                                      

       1A    -20.552035     2A    -11.266898     3A    -11.216791  
       4A    -11.215294     5A    -11.210137     6A    -11.209293  
       7A     -1.358404     8A     -1.084043     9A     -1.005554  
      10A     -0.915345    11A     -0.840778    12A     -0.770506  
      13A     -0.697701    14A     -0.654295    15A     -0.618226  
      16A     -0.604464    17A     -0.579682    18A     -0.538183  
      19A     -0.524916    20A     -0.519556    21A     -0.492850  
      22A     -0.461853    23A     -0.458250    24A     -0.453360  
      25A     -0.429999  

    Virtual:                                                              

      26A      0.224714    27A      0.230568    28A      0.262838  
      29A      0.275490    30A      0.290433    31A      0.305765  
      32A      0.319659    33A      0.325967    34A      0.343138  
      35A      0.357915    36A      0.360558    37A      0.393027  
      38A      0.407605    39A      0.430883    40A      0.440203  
      41A      0.469396    42A      0.474694    43A      0.708580  
      44A      0.721856    45A      0.733648    46A      0.752307  
      47A      0.768534    48A      0.811779    49A      0.841014  
      50A      0.909701    51A      0.925792    52A      0.946708  
      53A      0.964688    54A      0.975565    55A      1.005879  
      56A      1.088193    57A      1.126403    58A      1.135146  
      59A      1.140206    60A      1.159298    61A      1.163591  
      62A      1.187654    63A      1.188528    64A      1.193457  
      65A      1.219090    66A      1.249606    67A      1.261401  
      68A      1.263887    69A      1.267848    70A      1.293546  
      71A      1.297547    72A      1.365956    73A      1.439662  
      74A      1.510293    75A      1.664259    76A      1.671800  
      77A      1.728231    78A      1.814045    79A      1.842211  
      80A      1.886855    81A      1.905348    82A      1.994623  
      83A      2.043756    84A      2.113091    85A      2.155897  
      86A      2.187361    87A      2.244370    88A      2.245822  
      89A      2.295806    90A      2.310296    91A      2.368358  
      92A      2.421009    93A      2.444093    94A      2.464152  
      95A      2.582809    96A      2.606005    97A      2.670237  
      98A      2.698533    99A      2.726395   100A      2.746846  
     101A      2.810411   102A      2.826169   103A      2.879146  
     104A      2.930782   105A      2.980488   106A      3.045900  
     107A      3.123558   108A      3.270120   109A      4.205989  
     110A      4.564170   111A      4.660414   112A      4.800833  
     113A      4.912114   114A      4.969183  

    Final Occupation by Irrep:
              A 
    DOCC [    25 ]

  Energy converged.

  @DF-RHF Final Energy:  -271.17432274034479

   => Energetics <=

    Nuclear Repulsion Energy =            252.6154230553667333
    One-Electron Energy =                -868.2226700551000249
    Two-Electron Energy =                 344.4329242593885283
    DFT Exchange-Correlation Energy =       0.0000000000000000
    Empirical Dispersion Energy =           0.0000000000000000
    PCM Polarization Energy =               0.0000000000000000
    EFP Energy =                            0.0000000000000000
    Total Energy =                       -271.1743227403447918

    Alert: EFP and PCM quantities not currently incorporated into SCF psivars.

Properties will be evaluated at   0.000000,   0.000000,   0.000000 Bohr
  ==> Properties <==


Properties computed using the SCF density matrix

  Nuclear Dipole Moment: (a.u.)
     X:     4.8802      Y:    -0.8048      Z:     3.3005

  Electronic Dipole Moment: (a.u.)
     X:    -4.9665      Y:     0.3164      Z:    -2.8558

  Dipole Moment: (a.u.)
     X:    -0.0863      Y:    -0.4885      Z:     0.4448     Total:     0.6662

  Dipole Moment: (Debye)
     X:    -0.2192      Y:    -1.2415      Z:     1.1305     Total:     1.6934


  Saving occupied orbitals to File 180.

*** tstop() called on cx1-3-2-3.cx1.hpc.ic.ac.uk at Tue Jul  5 16:39:50 2016
Module time:
	user time   =       8.94 seconds =       0.15 minutes
	system time =       0.06 seconds =       0.00 minutes
	total time  =         10 seconds =       0.17 minutes
Total time:
	user time   =       8.94 seconds =       0.15 minutes
	system time =       0.06 seconds =       0.00 minutes
	total time  =         10 seconds =       0.17 minutes


Properties will be evaluated at   0.000000,   0.000000,   0.000000 Bohr

Properties computed using the  density matrix

  Nuclear Dipole Moment: (a.u.)
     X:     4.8802      Y:    -0.8048      Z:     3.3005

  Electronic Dipole Moment: (a.u.)
     X:    -4.9665      Y:     0.3164      Z:    -2.8558

  Dipole Moment: (a.u.)
     X:    -0.0863      Y:    -0.4885      Z:     0.4448     Total:     0.6662

  Dipole Moment: (Debye)
     X:    -0.2192      Y:    -1.2415      Z:     1.1305     Total:     1.6934

  Quadrupole Moment: (Debye Ang)
    XX:   -35.8628     YY:   -41.2328     ZZ:   -42.3447
    XY:     3.0010     XZ:    -2.8201     YZ:     1.3942

  Traceless Quadrupole Moment: (Debye Ang)
    XX:     3.9506     YY:    -1.4193     ZZ:    -2.5313
    XY:     3.0010     XZ:    -2.8201     YZ:     1.3942

  Mulliken Charges: (a.u.)
   Center  Symbol    Alpha    Beta     Spin     Total
       1     H     0.28123  0.28123  0.00000  0.43755
       2     O     4.37240  4.37240  0.00000 -0.74480
       3     C     2.98974  2.98974  0.00000  0.02052
       4     C     3.16490  3.16490  0.00000 -0.32981
       5     H     0.43167  0.43167  0.00000  0.13666
       6     H     0.43304  0.43304  0.00000  0.13392
       7     C     3.16208  3.16208  0.00000 -0.32416
       8     H     0.40888  0.40888  0.00000  0.18225
       9     H     0.41636  0.41636  0.00000  0.16729
      10     C     3.15666  3.15666  0.00000 -0.31331
      11     H     0.41837  0.41837  0.00000  0.16326
      12     H     0.42117  0.42117  0.00000  0.15767
      13     C     3.24076  3.24076  0.00000 -0.48152
      14     H     0.42319  0.42319  0.00000  0.15362
      15     H     0.41984  0.41984  0.00000  0.16033
      16     H     0.41980  0.41980  0.00000  0.16040
      17     H     0.41902  0.41902  0.00000  0.16197
      18     H     0.42091  0.42091  0.00000  0.15819

   Total alpha = 25.00000, Total beta = 25.00000, Total charge =  0.00000


*** PSI4 exiting successfully. Buy a developer a beer!
