
    -----------------------------------------------------------------------
          Psi4: An Open-Source Ab Initio Electronic Structure Package
                               Psi4 1.1 release

                         Git: Rev {HEAD} add49b9 


    R. M. Parrish, L. A. Burns, D. G. A. Smith, A. C. Simmonett,
    A. E. DePrince III, E. G. Hohenstein, U. Bozkaya, A. Yu. Sokolov,
    R. Di Remigio, R. M. Richard, J. F. Gonthier, A. M. James,
    H. R. McAlexander, A. Kumar, M. Saitow, X. Wang, B. P. Pritchard,
    P. Verma, H. F. Schaefer III, K. Patkowski, R. A. King, E. F. Valeev,
    F. A. Evangelista, J. M. Turney, T. D. Crawford, and C. D. Sherrill,
    J. Chem. Theory Comput. in press (2017).
    (doi: 10.1021/acs.jctc.7b00174)

    -----------------------------------------------------------------------


    Psi4 started on: Monday, 04 September 2017 12:36PM

    Process ID:  10703
    PSIDATADIR: /home/raimis/opt/miniconda3/envs/htmd/share/psi4
    Memory:     500.0 MiB
    Threads:    1
    
  ==> Input File <==

--------------------------------------------------------------------------
set_num_threads( 8 )
memory 2.000000 gb

set { reference rks }
set { basis 6-31G* }

molecule MOL {
    1 1
    noreorient
    nocom
    symmetry c1
    C    0.000000   0.000000  -0.170000
    C    0.007000   1.210000   0.523000
    C    0.000000   1.205000   1.904000
    C    0.000000   0.000000   2.592000
    C    0.000000  -1.205000   1.904000
    C   -0.007000  -1.210000   0.523000
    C    0.000000   0.000000  -1.643000
    H   -0.019000   2.146000  -0.006000
    H   -0.011000   2.134000   2.442000
    H    0.000000   0.000000   3.666000
    H    0.011000  -2.134000   2.442000
    H    0.019000  -2.146000  -0.006000
    N   -0.741000  -0.864000  -2.296000
    N    0.741000   0.864000  -2.296000
    H    0.721000   0.947000  -3.291000
    H    1.404000   1.427000  -1.808000
    H   -1.404000  -1.427000  -1.808000
    H   -0.721000  -0.947000  -3.291000
}

set optking { dynamic_level = 1 }

energy, wfn = optimize('B3LYP-D3', return_wfn=True)

import os
os.chdir(os.environ['HTMD_PSI4_WORKDIR'])

oeprop(wfn, 'DIPOLE', 'QUADRUPOLE', 'MULLIKEN_CHARGES')

with open('psi4out.xyz', 'w') as f:
    f.write('18 ' )
    f.write('%.12f\n' % energy)
    f.write(MOL.save_string_xyz())
--------------------------------------------------------------------------
  Threads set to 8 by Python driver.

  Memory set to   1.863 GiB by Python driver.
gradient() will perform analytic gradient computation.

*** tstart() called on computer03
*** at Mon Sep  4 12:36:25 2017

   => Loading Basis Set <=

    Name: 6-31G*
    Role: ORBITAL
    Keyword: BASIS
    atoms 1-7         entry C          line   102 file /home/raimis/opt/miniconda3/envs/htmd/share/psi4/basis/6-31gs.gbs 
    atoms 8-12, 15-18 entry H          line    35 file /home/raimis/opt/miniconda3/envs/htmd/share/psi4/basis/6-31gs.gbs 
    atoms 13-14       entry N          line   119 file /home/raimis/opt/miniconda3/envs/htmd/share/psi4/basis/6-31gs.gbs 


         ---------------------------------------------------------
                                   SCF
            by Justin Turney, Rob Parrish, and Andy Simmonett
                              RKS Reference
                        8 Threads,   1907 MiB Core
         ---------------------------------------------------------

  ==> Geometry <==

    Molecular point group: c1
    Full point group: C2

    Geometry (in Angstrom), charge = 1, multiplicity = 1:

       Center              X                  Y                   Z               Mass       
    ------------   -----------------  -----------------  -----------------  -----------------
           C          0.000000000000     0.000000000000    -0.170000000000    12.000000000000
           C          0.007000000000     1.210000000000     0.523000000000    12.000000000000
           C          0.000000000000     1.205000000000     1.904000000000    12.000000000000
           C          0.000000000000     0.000000000000     2.592000000000    12.000000000000
           C          0.000000000000    -1.205000000000     1.904000000000    12.000000000000
           C         -0.007000000000    -1.210000000000     0.523000000000    12.000000000000
           C          0.000000000000     0.000000000000    -1.643000000000    12.000000000000
           H         -0.019000000000     2.146000000000    -0.006000000000     1.007825032070
           H         -0.011000000000     2.134000000000     2.442000000000     1.007825032070
           H          0.000000000000     0.000000000000     3.666000000000     1.007825032070
           H          0.011000000000    -2.134000000000     2.442000000000     1.007825032070
           H          0.019000000000    -2.146000000000    -0.006000000000     1.007825032070
           N         -0.741000000000    -0.864000000000    -2.296000000000    14.003074004780
           N          0.741000000000     0.864000000000    -2.296000000000    14.003074004780
           H          0.721000000000     0.947000000000    -3.291000000000     1.007825032070
           H          1.404000000000     1.427000000000    -1.808000000000     1.007825032070
           H         -1.404000000000    -1.427000000000    -1.808000000000     1.007825032070
           H         -0.721000000000    -0.947000000000    -3.291000000000     1.007825032070

  Running in c1 symmetry.

  Rotational constants: A =      0.12426  B =      0.03981  C =      0.03185 [cm^-1]
  Rotational constants: A =   3725.10382  B =   1193.37082  C =    954.82880 [MHz]
  Nuclear repulsion =  420.120078751939900

  Charge       = 1
  Multiplicity = 1
  Electrons    = 64
  Nalpha       = 32
  Nbeta        = 32

  ==> Algorithm <==

  SCF Algorithm Type is DF.
  DIIS enabled.
  MOM disabled.
  Fractional occupation disabled.
  Guess Type is SAD.
  Energy threshold   = 1.00e-08
  Density threshold  = 1.00e-08
  Integral threshold = 0.00e+00

  ==> Primary Basis <==

  Basis Set: 6-31G*
    Blend: 6-31G*
    Number of shells: 72
    Number of basis function: 153
    Number of Cartesian functions: 153
    Spherical Harmonics?: false
    Max angular momentum: 2

  ==> DFT Potential <==

   => B3LYP Composite Functional <= 

    B3LYP Hybrid-GGA Exchange-Correlation Functional (VWN1-RPA)

    P.J. Stephens et. al., J. Phys. Chem., 98, 11623-11627, 1994

    Points   =           5000
    Deriv    =              1
    GGA      =           TRUE
    Meta     =          FALSE

    X_LRC        =          FALSE
    X_Hybrid     =           TRUE
    X_Alpha      =   2.000000E-01
    X_Omega      =   0.000000E+00
    C_LRC        =          FALSE
    C_Hybrid     =          FALSE
    C_Alpha      =   0.000000E+00
    C_Omega      =   0.000000E+00

   => Exchange Functionals <=

    0.8000    B3_X
    0.2000      HF 

   => Correlation Functionals <=

    0.1900 VWN3RPA_C
    0.8100   LYP_C

   => Molecular Quadrature <=

    Radial Scheme    =       TREUTLER
    Pruning Scheme   =           FLAT
    Nuclear Scheme   =       TREUTLER

    BS radius alpha  =              1
    Pruning alpha    =              1
    Radial Points    =             75
    Spherical Points =            302
    Total Points     =         396923
    Total Blocks     =            351
    Max Points       =           4982
    Max Functions    =            151

   => -D3ZERO: Empirical Dispersion <=

    Grimme's -D3 (zero-damping) Dispersion Correction
    Grimme S.; Antony J.; Ehrlich S.; Krieg H. (2010), J. Chem. Phys., 132: 154104

        S6 =   1.000000E+00
        S8 =   1.703000E+00
       SR6 =   1.261000E+00
    ALPHA6 =   1.400000E+01

   => Loading Basis Set <=

    Name: (6-31G* AUX)
    Role: JKFIT
    Keyword: DF_BASIS_SCF
    atoms 1-7         entry C          line   120 file /home/raimis/opt/miniconda3/envs/htmd/share/psi4/basis/cc-pvdz-jkfit.gbs 
    atoms 8-12, 15-18 entry H          line    50 file /home/raimis/opt/miniconda3/envs/htmd/share/psi4/basis/cc-pvdz-jkfit.gbs 
    atoms 13-14       entry N          line   170 file /home/raimis/opt/miniconda3/envs/htmd/share/psi4/basis/cc-pvdz-jkfit.gbs 

  ==> Pre-Iterations <==

   -------------------------------------------------------
    Irrep   Nso     Nmo     Nalpha   Nbeta   Ndocc  Nsocc
   -------------------------------------------------------
     A        153     153       0       0       0       0
   -------------------------------------------------------
    Total     153     153      32      32      32       0
   -------------------------------------------------------

  ==> Integral Setup <==

  ==> DFJK: Density-Fitted J/K Matrices <==

    J tasked:                  Yes
    K tasked:                  Yes
    wK tasked:                  No
    OpenMP threads:              8
    Integrals threads:           8
    Memory (MB):              1430
    Algorithm:                Core
    Integral Cache:           NONE
    Schwarz Cutoff:          1E-12
    Fitting Condition:       1E-12

   => Auxiliary Basis Set <=

  Basis Set: (6-31G* AUX)
    Blend: CC-PVDZ-JKFIT
    Number of shells: 297
    Number of basis function: 954
    Number of Cartesian functions: 954
    Spherical Harmonics?: false
    Max angular momentum: 3

  Minimum eigenvalue in the overlap matrix is 4.4624514024E-04.
  Using Symmetric Orthogonalization.

  SCF Guess: Superposition of Atomic Densities via on-the-fly atomic UHF.

  ==> Iterations <==

                           Total Energy        Delta E     RMS |[F,P]|

   @DF-RKS iter   0:  -380.26633434810174   -3.80266e+02   7.08893e-02 
   @DF-RKS iter   1:  -381.09675377476998   -8.30419e-01   8.74719e-03 
   @DF-RKS iter   2:  -381.02833776464462    6.84160e-02   8.51468e-03 DIIS
   @DF-RKS iter   3:  -381.46009013529869   -4.31752e-01   1.29787e-03 DIIS
   @DF-RKS iter   4:  -381.46568684863968   -5.59671e-03   6.43159e-04 DIIS
   @DF-RKS iter   5:  -381.46753292838775   -1.84608e-03   2.35385e-04 DIIS
   @DF-RKS iter   6:  -381.46780310361066   -2.70175e-04   7.40772e-05 DIIS
   @DF-RKS iter   7:  -381.46781892094521   -1.58173e-05   1.34637e-05 DIIS
   @DF-RKS iter   8:  -381.46781936558483   -4.44640e-07   4.86143e-06 DIIS
   @DF-RKS iter   9:  -381.46781943365721   -6.80724e-08   6.87475e-07 DIIS
   @DF-RKS iter  10:  -381.46781943435445   -6.97241e-10   5.40502e-07 DIIS
   @DF-RKS iter  11:  -381.46781943523678   -8.82324e-10   6.21150e-08 DIIS
   @DF-RKS iter  12:  -381.46781943524087   -4.09273e-12   3.88925e-08 DIIS
   @DF-RKS iter  13:  -381.46781943524525   -4.37694e-12   6.90463e-09 DIIS

  ==> Post-Iterations <==

    Orbital Energies (a.u.)
    -----------------------

    Doubly Occupied:                                                      

       1A    -14.567597     2A    -14.567589     3A    -10.495441  
       4A    -10.369991     5A    -10.350985     6A    -10.350975  
       7A    -10.337093     8A    -10.335327     9A    -10.335231  
      10A     -1.195653    11A     -1.101543    12A     -1.018995  
      13A     -0.929052    14A     -0.904802    15A     -0.850966  
      16A     -0.793191    17A     -0.778149    18A     -0.748330  
      19A     -0.737070    20A     -0.695586    21A     -0.673233  
      22A     -0.624458    23A     -0.623229    24A     -0.590604  
      25A     -0.580082    26A     -0.575116    27A     -0.521765  
      28A     -0.504565    29A     -0.498239    30A     -0.476848  
      31A     -0.412019    32A     -0.406164  

    Virtual:                                                              

      33A     -0.210791    34A     -0.154583    35A     -0.128726  
      36A     -0.105256    37A     -0.061893    38A     -0.059707  
      39A     -0.035945    40A     -0.029617    41A      0.012116  
      42A      0.023461    43A      0.024770    44A      0.060426  
      45A      0.067954    46A      0.089117    47A      0.134846  
      48A      0.157709    49A      0.160620    50A      0.164313  
      51A      0.203913    52A      0.248056    53A      0.299872  
      54A      0.348099    55A      0.353686    56A      0.387426  
      57A      0.392375    58A      0.396999    59A      0.427023  
      60A      0.427377    61A      0.447495    62A      0.451817  
      63A      0.455900    64A      0.474530    65A      0.474757  
      66A      0.478671    67A      0.485231    68A      0.518129  
      69A      0.526406    70A      0.535338    71A      0.539596  
      72A      0.587589    73A      0.607048    74A      0.656069  
      75A      0.662197    76A      0.689109    77A      0.694818  
      78A      0.712553    79A      0.721798    80A      0.726032  
      81A      0.745482    82A      0.773565    83A      0.781749  
      84A      0.804949    85A      0.816524    86A      0.834504  
      87A      0.856725    88A      0.944535    89A      0.967443  
      90A      0.998888    91A      1.006409    92A      1.035446  
      93A      1.068073    94A      1.081476    95A      1.150442  
      96A      1.175840    97A      1.226524    98A      1.276308  
      99A      1.298210   100A      1.315252   101A      1.321670  
     102A      1.345771   103A      1.359406   104A      1.365861  
     105A      1.437914   106A      1.451031   107A      1.472953  
     108A      1.609941   109A      1.634225   110A      1.663788  
     111A      1.677127   112A      1.755087   113A      1.772471  
     114A      1.814449   115A      1.844657   116A      1.882861  
     117A      1.915712   118A      1.926939   119A      1.975487  
     120A      1.992283   121A      2.005893   122A      2.032225  
     123A      2.048210   124A      2.088995   125A      2.140264  
     126A      2.145397   127A      2.163517   128A      2.234073  
     129A      2.240171   130A      2.279017   131A      2.374304  
     132A      2.380890   133A      2.448239   134A      2.471254  
     135A      2.512973   136A      2.538851   137A      2.578848  
     138A      2.601404   139A      2.621223   140A      2.644216  
     141A      2.752236   142A      2.914338   143A      2.997254  
     144A      3.301382   145A      3.656379   146A      3.667167  
     147A      3.924198   148A      3.958330   149A      3.970472  
     150A      4.060426   151A      4.181169   152A      4.263624  
     153A      4.559945  

    Final Occupation by Irrep:
              A 
    DOCC [    32 ]

  Energy converged.

  @DF-RKS Final Energy:  -381.46781943524525

   => Energetics <=

    Nuclear Repulsion Energy =            420.1200787519399000
    One-Electron Energy =               -1335.2705432562700025
    Two-Electron Energy =                 578.1842334315037988
    DFT Exchange-Correlation Energy =     -44.4896542524189513
    Empirical Dispersion Energy =          -0.0119341100000000
    PCM Polarization Energy =               0.0000000000000000
    EFP Energy =                            0.0000000000000000
    Total Energy =                       -381.4678194352453033



Properties will be evaluated at   0.000000,   0.000000,   0.000000 Bohr

Properties computed using the SCF density matrix

  Nuclear Dipole Moment: (a.u.)
     X:    -0.0000      Y:    -0.0000      Z:    -0.0113

  Electronic Dipole Moment: (a.u.)
     X:    -0.0000      Y:    -0.0000      Z:    -2.3091

  Dipole Moment: (a.u.)
     X:    -0.0000      Y:    -0.0000      Z:    -2.3204     Total:     2.3204

  Dipole Moment: (Debye)
     X:    -0.0000      Y:    -0.0000      Z:    -5.8979     Total:     5.8979


*** tstop() called on computer03 at Mon Sep  4 12:37:25 2017
Module time:
	user time   =      92.59 seconds =       1.54 minutes
	system time =       1.37 seconds =       0.02 minutes
	total time  =         60 seconds =       1.00 minutes
Total time:
	user time   =      92.59 seconds =       1.54 minutes
	system time =       1.37 seconds =       0.02 minutes
	total time  =         60 seconds =       1.00 minutes

*** tstart() called on computer03
*** at Mon Sep  4 12:37:25 2017


         ------------------------------------------------------------
                                   SCF GRAD                          
                          Rob Parrish, Justin Turney,                
                       Andy Simmonett, and Alex Sokolov              
         ------------------------------------------------------------

  ==> Geometry <==

    Molecular point group: c1
    Full point group: C2

    Geometry (in Angstrom), charge = 1, multiplicity = 1:

       Center              X                  Y                   Z               Mass       
    ------------   -----------------  -----------------  -----------------  -----------------
           C          0.000000000000     0.000000000000    -0.170000000000    12.000000000000
           C          0.007000000000     1.210000000000     0.523000000000    12.000000000000
           C          0.000000000000     1.205000000000     1.904000000000    12.000000000000
           C          0.000000000000     0.000000000000     2.592000000000    12.000000000000
           C          0.000000000000    -1.205000000000     1.904000000000    12.000000000000
           C         -0.007000000000    -1.210000000000     0.523000000000    12.000000000000
           C          0.000000000000     0.000000000000    -1.643000000000    12.000000000000
           H         -0.019000000000     2.146000000000    -0.006000000000     1.007825032070
           H         -0.011000000000     2.134000000000     2.442000000000     1.007825032070
           H          0.000000000000     0.000000000000     3.666000000000     1.007825032070
           H          0.011000000000    -2.134000000000     2.442000000000     1.007825032070
           H          0.019000000000    -2.146000000000    -0.006000000000     1.007825032070
           N         -0.741000000000    -0.864000000000    -2.296000000000    14.003074004780
           N          0.741000000000     0.864000000000    -2.296000000000    14.003074004780
           H          0.721000000000     0.947000000000    -3.291000000000     1.007825032070
           H          1.404000000000     1.427000000000    -1.808000000000     1.007825032070
           H         -1.404000000000    -1.427000000000    -1.808000000000     1.007825032070
           H         -0.721000000000    -0.947000000000    -3.291000000000     1.007825032070

  Nuclear repulsion =  420.120078751939900

  ==> Basis Set <==

  Basis Set: 6-31G*
    Blend: 6-31G*
    Number of shells: 72
    Number of basis function: 153
    Number of Cartesian functions: 153
    Spherical Harmonics?: false
    Max angular momentum: 2

  ==> DFJKGrad: Density-Fitted SCF Gradients <==

    Gradient:                    1
    J tasked:                  Yes
    K tasked:                  Yes
    wK tasked:                  No
    OpenMP threads:              8
    Integrals threads:           8
    Memory (MB):              1430
    Schwarz Cutoff:          0E+00
    Fitting Condition:       1E-12

   => Auxiliary Basis Set <=

  Basis Set: (6-31G* AUX)
    Blend: CC-PVDZ-JKFIT
    Number of shells: 297
    Number of basis function: 954
    Number of Cartesian functions: 954
    Spherical Harmonics?: false
    Max angular momentum: 3

  ==> DFT Potential <==

   => B3LYP Composite Functional <= 

    B3LYP Hybrid-GGA Exchange-Correlation Functional (VWN1-RPA)

    P.J. Stephens et. al., J. Phys. Chem., 98, 11623-11627, 1994

    Points   =           5000
    Deriv    =              1
    GGA      =           TRUE
    Meta     =          FALSE

    X_LRC        =          FALSE
    X_Hybrid     =           TRUE
    X_Alpha      =   2.000000E-01
    X_Omega      =   0.000000E+00
    C_LRC        =          FALSE
    C_Hybrid     =          FALSE
    C_Alpha      =   0.000000E+00
    C_Omega      =   0.000000E+00

   => Exchange Functionals <=

    0.8000    B3_X
    0.2000      HF 

   => Correlation Functionals <=

    0.1900 VWN3RPA_C
    0.8100   LYP_C

   => Molecular Quadrature <=

    Radial Scheme    =       TREUTLER
    Pruning Scheme   =           FLAT
    Nuclear Scheme   =       TREUTLER

    BS radius alpha  =              1
    Pruning alpha    =              1
    Radial Points    =             75
    Spherical Points =            302
    Total Points     =         396923
    Total Blocks     =            351
    Max Points       =           4982
    Max Functions    =            151


  -Total Gradient:
     Atom            X                  Y                   Z
    ------   -----------------  -----------------  -----------------
       1        0.000000003332    -0.000000027927     0.011471002143
       2       -0.001318065990    -0.003469588529     0.001559836226
       3       -0.000253044483    -0.001090518589    -0.001626688675
       4       -0.000000000237     0.000000014508    -0.002909829959
       5        0.000253044162     0.001090511296    -0.001626682362
       6        0.001318064179     0.003469598314     0.001559825254
       7        0.000000007602     0.000000030938    -0.019489942352
       8        0.000537978603    -0.006767991290     0.004310325043
       9        0.000145865078    -0.007359493671    -0.004084403095
      10        0.000000000060    -0.000000002569    -0.008552428118
      11       -0.000145864757     0.007359491473    -0.004084406535
      12       -0.000537977911     0.006767989357     0.004310330780
      13        0.002573723020     0.004779865737     0.002517454383
      14       -0.002573727391    -0.004779871859     0.002517462683
      15       -0.000009506991    -0.002056782061     0.013859833675
      16       -0.008957856823    -0.007543400802    -0.006807798344
      17        0.008957852060     0.007543395860    -0.006807794453
      18        0.000009506487     0.002056779815     0.013859830568


*** tstop() called on computer03 at Mon Sep  4 12:37:37 2017
Module time:
	user time   =      23.86 seconds =       0.40 minutes
	system time =       0.38 seconds =       0.01 minutes
	total time  =         12 seconds =       0.20 minutes
Total time:
	user time   =     116.63 seconds =       1.94 minutes
	system time =       1.77 seconds =       0.03 minutes
	total time  =         72 seconds =       1.20 minutes

			-----------------------------------------
			 OPTKING 2.0: for geometry optimizations 
			  - R.A. King,  Bethel University        
			-----------------------------------------
	At level 1: Red. Int., RFO, no backsteps, dynamic trust

	Internal coordinates to be generated automatically.
	Detected frag 1 with atoms:  1 2 3 4 5 6 7 8 9 10 11 12 13 14 15 16 17 18
	---Fragment 1 Bond Connectivity---
	 1 : 2 6 7
	 2 : 1 3 8
	 3 : 2 4 9
	 4 : 3 5 10
	 5 : 4 6 11
	 6 : 1 5 12
	 7 : 1 13 14
	 8 : 2
	 9 : 3
	 10 : 4
	 11 : 5
	 12 : 6
	 13 : 7 17 18
	 14 : 7 15 16
	 15 : 14
	 16 : 14
	 17 : 13
	 18 : 13

	---Fragment 1 Geometry and Gradient---
	 C           0.0000000000        0.0000000000       -0.3212534426
	 C           0.0132280829        2.2865686208        0.9883267675
	 C           0.0000000000        2.2771199901        3.5980385570
	 C           0.0000000000        0.0000000000        4.8981701364
	 C           0.0000000000       -2.2771199901        3.5980385570
	 C          -0.0132280829       -2.2865686208        0.9883267675
	 C           0.0000000000        0.0000000000       -3.1048200363
	 H          -0.0359047965        4.0553522812       -0.0113383568
	 H          -0.0207869875        4.0326755676        4.6147112165
	 H           0.0000000000        0.0000000000        6.9277360032
	 H           0.0207869875       -4.0326755676        4.6147112165
	 H           0.0359047965       -4.0553522812       -0.0113383568
	 N          -1.4002870645       -1.6327233788       -4.3388112011
	 N           1.4002870645        1.6327233788       -4.3388112011
	 H           1.3624925418        1.7895706478       -6.2190887033
	 H           2.6531754906        2.6966391916       -3.4166248483
	 H          -2.6531754906       -2.6966391916       -3.4166248483
	 H          -1.3624925418       -1.7895706478       -6.2190887033
	             0.0000000033       -0.0000000279        0.0114710021
	            -0.0013180660       -0.0034695885        0.0015598362
	            -0.0002530445       -0.0010905186       -0.0016266887
	            -0.0000000002        0.0000000145       -0.0029098300
	             0.0002530442        0.0010905113       -0.0016266824
	             0.0013180642        0.0034695983        0.0015598253
	             0.0000000076        0.0000000309       -0.0194899424
	             0.0005379786       -0.0067679913        0.0043103250
	             0.0001458651       -0.0073594937       -0.0040844031
	             0.0000000001       -0.0000000026       -0.0085524281
	            -0.0001458648        0.0073594915       -0.0040844065
	            -0.0005379779        0.0067679894        0.0043103308
	             0.0025737230        0.0047798657        0.0025174544
	            -0.0025737274       -0.0047798719        0.0025174627
	            -0.0000095070       -0.0020567821        0.0138598337
	            -0.0089578568       -0.0075434008       -0.0068077983
	             0.0089578521        0.0075433959       -0.0068077945
	             0.0000095065        0.0020567798        0.0138598306

	Previous optimization step data not found.  Starting new optimization.

	---Fragment 1 Intrafragment Coordinates---
	 - Coordinate -           - BOHR/RAD -       - ANG/DEG -
	 R(1,2)           =         2.635066	       1.394417
	 R(1,6)           =         2.635066	       1.394417
	 R(1,7)           =         2.783567	       1.473000
	 R(2,3)           =         2.609762	       1.381027
	 R(2,8)           =         2.032324	       1.075459
	 R(3,4)           =         2.622140	       1.387577
	 R(3,9)           =         2.028800	       1.073595
	 R(4,5)           =         2.622140	       1.387577
	 R(4,10)          =         2.029566	       1.074000
	 R(5,6)           =         2.609762	       1.381027
	 R(5,11)          =         2.028800	       1.073595
	 R(6,12)          =         2.032324	       1.075459
	 R(7,13)          =         2.479783	       1.312245
	 R(7,14)          =         2.479783	       1.312245
	 R(13,17)         =         1.884695	       0.997337
	 R(13,18)         =         1.887187	       0.998656
	 R(14,15)         =         1.887187	       0.998656
	 R(14,16)         =         1.884695	       0.997337
	 B(1,2,3)         =         2.087257	     119.590997
	 B(1,2,8)         =         2.106730	     120.706715
	 B(1,6,5)         =         2.087257	     119.590997
	 B(1,6,12)        =         2.106730	     120.706715
	 B(1,7,13)        =         2.091650	     119.842706
	 B(1,7,14)        =         2.091650	     119.842706
	 B(2,1,6)         =         2.101358	     120.398940
	 B(2,1,7)         =         2.090914	     119.800530
	 B(2,3,4)         =         2.093198	     119.931413
	 B(2,3,9)         =         2.092121	     119.869715
	 B(3,2,8)         =         2.088518	     119.663270
	 B(3,4,5)         =         2.104016	     120.551211
	 B(3,4,10)        =         2.089585	     119.724395
	 B(4,3,9)         =         2.097850	     120.197979
	 B(4,5,6)         =         2.093198	     119.931413
	 B(4,5,11)        =         2.097850	     120.197979
	 B(5,4,10)        =         2.089585	     119.724395
	 B(5,6,12)        =         2.088518	     119.663270
	 B(6,1,7)         =         2.090914	     119.800530
	 B(6,5,11)        =         2.092121	     119.869715
	 B(7,13,17)       =         2.098525	     120.236644
	 B(7,13,18)       =         2.140297	     122.630005
	 B(7,14,15)       =         2.140297	     122.630005
	 B(7,14,16)       =         2.098525	     120.236644
	 B(13,7,14)       =         2.099886	     120.314587
	 B(15,14,16)      =         2.041943	     116.994691
	 B(17,13,18)      =         2.041943	     116.994691
	 D(1,2,3,4)       =         0.011570	       0.662908
	 D(1,2,3,9)       =        -3.124036	    -178.994101
	 D(1,6,5,4)       =         0.011570	       0.662908
	 D(1,6,5,11)      =        -3.124036	    -178.994101
	 D(1,7,13,17)     =         0.159376	       9.131566
	 D(1,7,13,18)     =        -3.059202	    -175.279378
	 D(1,7,14,15)     =        -3.059202	    -175.279378
	 D(1,7,14,16)     =         0.159376	       9.131566
	 D(2,1,6,5)       =        -0.005805	      -0.332590
	 D(2,1,6,12)      =        -3.107613	    -178.053087
	 D(2,1,7,13)      =        -2.438466	    -139.713785
	 D(2,1,7,14)      =         0.703127	      40.286215
	 D(2,3,4,5)       =        -0.005849	      -0.335113
	 D(2,3,4,10)      =         3.135744	     179.664887
	 D(3,2,1,6)       =        -0.005805	      -0.332590
	 D(3,2,1,7)       =         3.135788	     179.667410
	 D(3,4,5,6)       =        -0.005849	      -0.335113
	 D(3,4,5,11)      =         3.129738	     179.320758
	 D(4,3,2,8)       =         3.113797	     178.407437
	 D(4,5,6,12)      =         3.113797	     178.407437
	 D(5,4,3,9)       =         3.129738	     179.320758
	 D(5,6,1,7)       =         3.135788	     179.667410
	 D(6,1,2,8)       =        -3.107613	    -178.053087
	 D(6,1,7,13)      =         0.703127	      40.286215
	 D(6,1,7,14)      =        -2.438466	    -139.713785
	 D(6,5,4,10)      =         3.135744	     179.664887
	 D(7,1,2,8)       =         0.033980	       1.946913
	 D(7,1,6,12)      =         0.033980	       1.946913
	 D(8,2,3,9)       =        -0.021809	      -1.249572
	 D(9,3,4,10)      =        -0.011855	      -0.679242
	 D(10,4,5,11)     =        -0.011855	      -0.679242
	 D(11,5,6,12)     =        -0.021809	      -1.249572
	 D(13,7,14,15)    =         0.082390	       4.720622
	 D(13,7,14,16)    =        -2.982217	    -170.868434
	 D(14,7,13,17)    =        -2.982217	    -170.868434
	 D(14,7,13,18)    =         0.082390	       4.720622

	Current energy   :      -381.4678194352

	Generating empirical Hessian (Schlegel '84) for each fragment.
	Taking RFO optimization step.
	Going to follow RFO solution 1.
	Using RFO vector 1.
	Norm of target step-size    0.13734
	Projected energy change by RFO approximation:        -0.0058024348

	Back-transformation to cartesian coordinates...
	Could not converge backtransformation.
	Using first guess instead.

	--- Internal Coordinate Step in ANG or DEG, aJ/ANG or AJ/DEG ---
	 ---------------------------------------------------------------------------
	   Coordinate                Previous        Force       Change         New 
	   ----------                --------       ------       ------       ------
	    1 R(1,2)          =      1.394417     0.091414     0.012599     1.407016
	    2 R(1,6)          =      1.394417     0.091414     0.012599     1.407016
	    3 R(1,7)          =      1.473000    -0.002814    -0.000503     1.472497
	    4 R(2,3)          =      1.381027     0.094256     0.012239     1.393265
	    5 R(2,8)          =      1.075459     0.066109     0.011481     1.086941
	    6 R(3,4)          =      1.387577     0.088460     0.011901     1.399477
	    7 R(3,9)          =      1.073595     0.069336     0.012003     1.085597
	    8 R(4,5)          =      1.387577     0.088460     0.011900     1.399477
	    9 R(4,10)         =      1.074000     0.070450     0.012137     1.086137
	   10 R(5,6)          =      1.381027     0.094256     0.012239     1.393265
	   11 R(5,11)         =      1.073595     0.069336     0.012003     1.085597
	   12 R(6,12)         =      1.075459     0.066109     0.011481     1.086941
	   13 R(7,13)         =      1.312245     0.170946     0.017355     1.329600
	   14 R(7,14)         =      1.312245     0.170946     0.017355     1.329600
	   15 R(13,17)        =      0.997337     0.111581     0.014968     1.012306
	   16 R(13,18)        =      0.998656     0.115188     0.015384     1.014040
	   17 R(14,15)        =      0.998656     0.115188     0.015384     1.014040
	   18 R(14,16)        =      0.997337     0.111581     0.014969     1.012306
	   19 B(1,2,3)        =    119.590997    -0.000015    -0.054056   119.536941
	   20 B(1,2,8)        =    120.706715    -0.000025    -0.124874   120.581841
	   21 B(1,6,5)        =    119.590997    -0.000015    -0.054055   119.536942
	   22 B(1,6,12)       =    120.706715    -0.000025    -0.124877   120.581838
	   23 B(1,7,13)       =    119.842706    -0.000106    -0.315520   119.527186
	   24 B(1,7,14)       =    119.842706    -0.000106    -0.315522   119.527184
	   25 B(2,1,6)        =    120.398940    -0.000002     0.004202   120.403141
	   26 B(2,1,7)        =    119.800530     0.000001    -0.002097   119.798433
	   27 B(2,3,4)        =    119.931413     0.000034     0.109323   120.040736
	   28 B(2,3,9)        =    119.869715    -0.000029    -0.112477   119.757238
	   29 B(3,2,8)        =    119.663270     0.000040     0.166190   119.829460
	   30 B(3,4,5)        =    120.551211    -0.000036    -0.113809   120.437401
	   31 B(3,4,10)       =    119.724395     0.000018     0.056904   119.781299
	   32 B(4,3,9)        =    120.197979    -0.000005     0.001828   120.199807
	   33 B(4,5,6)        =    119.931413     0.000034     0.109322   120.040735
	   34 B(4,5,11)       =    120.197979    -0.000005     0.001827   120.199806
	   35 B(5,4,10)       =    119.724395     0.000018     0.056906   119.781300
	   36 B(5,6,12)       =    119.663270     0.000040     0.166191   119.829461
	   37 B(6,1,7)        =    119.800530     0.000001    -0.002105   119.798425
	   38 B(6,5,11)       =    119.869715    -0.000029    -0.112475   119.757240
	   39 B(7,13,17)      =    120.236644    -0.000060    -0.243494   119.993150
	   40 B(7,13,18)      =    122.630005     0.000092     0.429628   123.059633
	   41 B(7,14,15)      =    122.630005     0.000092     0.429629   123.059634
	   42 B(7,14,16)      =    120.236644    -0.000060    -0.243494   119.993150
	   43 B(13,7,14)      =    120.314587     0.000212     0.631042   120.945629
	   44 B(15,14,16)     =    116.994691    -0.000030    -0.148232   116.846459
	   45 B(17,13,18)     =    116.994691    -0.000030    -0.148232   116.846459
	   46 D(1,2,3,4)      =      0.662908    -0.000000    -0.063912     0.598996
	   47 D(1,2,3,9)      =   -178.994101     0.000001     0.133769  -178.860332
	   48 D(1,6,5,4)      =      0.662908    -0.000000    -0.063912     0.598996
	   49 D(1,6,5,11)     =   -178.994101     0.000001     0.133769  -178.860332
	   50 D(1,7,13,17)    =      9.131566    -0.000000    -0.009327     9.122239
	   51 D(1,7,13,18)    =   -175.279378     0.000006     0.634547  -174.644831
	   52 D(1,7,14,15)    =   -175.279378     0.000006     0.634552  -174.644826
	   53 D(1,7,14,16)    =      9.131566    -0.000000    -0.009326     9.122240
	   54 D(2,1,6,5)      =     -0.332590     0.000000     0.032604    -0.299987
	   55 D(2,1,6,12)     =   -178.053087     0.000003     0.373923  -177.679163
	   56 D(2,1,7,13)     =   -139.713785    -0.000010    -2.305364  -142.019149
	   57 D(2,1,7,14)     =     40.286215    -0.000010    -2.305366    37.980848
	   58 D(2,3,4,5)      =     -0.335113     0.000000     0.032039    -0.303073
	   59 D(2,3,4,10)     =    179.664887     0.000000     0.032039   179.696927
	   60 D(3,2,1,6)      =     -0.332590     0.000000     0.032603    -0.299987
	   61 D(3,2,1,7)      =    179.667410     0.000000     0.032606   179.700016
	   62 D(3,4,5,6)      =     -0.335113     0.000000     0.032040    -0.303073
	   63 D(3,4,5,11)     =    179.320758    -0.000001    -0.166919   179.153840
	   64 D(4,3,2,8)      =    178.407437    -0.000003    -0.409292   177.998145
	   65 D(4,5,6,12)     =    178.407437    -0.000003    -0.409292   177.998144
	   66 D(5,4,3,9)      =    179.320758    -0.000001    -0.166919   179.153840
	   67 D(5,6,1,7)      =    179.667410     0.000000     0.032600   179.700010
	   68 D(6,1,2,8)      =   -178.053087     0.000003     0.373923  -177.679164
	   69 D(6,1,7,13)     =     40.286215    -0.000010    -2.305360    37.980854
	   70 D(6,1,7,14)     =   -139.713785    -0.000010    -2.305363  -142.019148
	   71 D(6,5,4,10)     =    179.664887     0.000000     0.032040   179.696927
	   72 D(7,1,2,8)      =      1.946913     0.000003     0.373926     2.320839
	   73 D(7,1,6,12)     =      1.946913     0.000003     0.373920     2.320834
	   74 D(8,2,3,9)      =     -1.249572    -0.000002    -0.211610    -1.461182
	   75 D(9,3,4,10)     =     -0.679242    -0.000001    -0.166919    -0.846160
	   76 D(10,4,5,11)    =     -0.679242    -0.000001    -0.166919    -0.846160
	   77 D(11,5,6,12)    =     -1.249572    -0.000002    -0.211611    -1.461183
	   78 D(13,7,14,15)   =      4.720622     0.000006     0.634549     5.355171
	   79 D(13,7,14,16)   =   -170.868434    -0.000000    -0.009329  -170.877763
	   80 D(14,7,13,17)   =   -170.868434    -0.000000    -0.009324  -170.877758
	   81 D(14,7,13,18)   =      4.720622     0.000006     0.634550     5.355171
	 ---------------------------------------------------------------------------
	Successfully symmetrized geometry.

  ==> Convergence Check <==

  Measures of convergence in internal coordinates in au.
  Criteria marked as inactive (o), active & met (*), and active & unmet ( ).
  --------------------------------------------------------------------------------------------- ~
   Step     Total Energy     Delta E     MAX Force     RMS Force      MAX Disp      RMS Disp    ~
  --------------------------------------------------------------------------------------------- ~
    Convergence Criteria    1.00e-06 *    3.00e-04 *             o    1.20e-03 *             o  ~
  --------------------------------------------------------------------------------------------- ~
      1    -381.46781944   -3.81e+02      2.07e-02      5.80e-03 o    4.02e-02      1.53e-02 o  ~
  ---------------------------------------------------------------------------------------------

	Writing optimization data to binary file.
	Structure for next step:
	Cartesian Geometry (in Angstrom)
	    C    -0.0000000348   0.0000000529  -0.1783687085
	    C     0.0262926710   1.2206955450   0.5208479175
	    C     0.0198106872   1.2144833141   1.9140843477
	    C     0.0000000113  -0.0000000187   2.6091916328
	    C    -0.0198106893  -1.2144833107   1.9140843056
	    C    -0.0262927148  -1.2206954687   0.5208478843
	    C     0.0000000062  -0.0000000298  -1.6508657283
	    H     0.0087475380   2.1658157458  -0.0156970049
	    H     0.0212866575   2.1545093364   2.4571042505
	    H     0.0000000304  -0.0000000253   3.6953283527
	    H    -0.0212866404  -2.1545093461   2.4571041855
	    H    -0.0087475872  -2.1658156285  -0.0156971144
	    N    -0.7314343644  -0.8963556204  -2.3061408918
	    N     0.7314343927   0.8963555513  -2.3061409163
	    H     0.7106371651   0.9963264228  -3.3150263116
	    H     1.3872397061   1.4801724488  -1.8023149675
	    H    -1.3872397264  -1.4801724535  -1.8023149522
	    H    -0.7106371082  -0.9963265153  -3.3150262810
			--------------------------
			 OPTKING Finished Execution 
			--------------------------

    Structure for next step:
    Molecular point group: c1
    Full point group: C1

    Geometry (in Angstrom), charge = 1, multiplicity = 1:

    C           -0.000000034768     0.000000052949    -0.178368708540
    C            0.026292671003     1.220695545035     0.520847917459
    C            0.019810687153     1.214483314086     1.914084347685
    C            0.000000011294    -0.000000018691     2.609191632787
    C           -0.019810689322    -1.214483310723     1.914084305577
    C           -0.026292714779    -1.220695468710     0.520847884277
    C            0.000000006222    -0.000000029845    -1.650865728328
    H            0.008747538011     2.165815745750    -0.015697004902
    H            0.021286657488     2.154509336425     2.457104250512
    H            0.000000030361    -0.000000025296     3.695328352677
    H           -0.021286640401    -2.154509346051     2.457104185457
    H           -0.008747587183    -2.165815628497    -0.015697114422
    N           -0.731434364391    -0.896355620433    -2.306140891775
    N            0.731434392660     0.896355551251    -2.306140916301
    H            0.710637165065     0.996326422814    -3.315026311579
    H            1.387239706145     1.480172448750    -1.802314967453
    H           -1.387239726385    -1.480172453545    -1.802314952155
    H           -0.710637108174    -0.996326515271    -3.315026280978

gradient() will perform analytic gradient computation.

*** tstart() called on computer03
*** at Mon Sep  4 12:37:37 2017

   => Loading Basis Set <=

    Name: 6-31G*
    Role: ORBITAL
    Keyword: BASIS
    atoms 1-7         entry C          line   102 file /home/raimis/opt/miniconda3/envs/htmd/share/psi4/basis/6-31gs.gbs 
    atoms 8-12, 15-18 entry H          line    35 file /home/raimis/opt/miniconda3/envs/htmd/share/psi4/basis/6-31gs.gbs 
    atoms 13-14       entry N          line   119 file /home/raimis/opt/miniconda3/envs/htmd/share/psi4/basis/6-31gs.gbs 


         ---------------------------------------------------------
                                   SCF
            by Justin Turney, Rob Parrish, and Andy Simmonett
                              RKS Reference
                        8 Threads,   1907 MiB Core
         ---------------------------------------------------------

  ==> Geometry <==

    Molecular point group: c1
    Full point group: C1

    Geometry (in Angstrom), charge = 1, multiplicity = 1:

       Center              X                  Y                   Z               Mass       
    ------------   -----------------  -----------------  -----------------  -----------------
           C         -0.000000034768     0.000000052949    -0.178368708540    12.000000000000
           C          0.026292671003     1.220695545035     0.520847917459    12.000000000000
           C          0.019810687153     1.214483314086     1.914084347685    12.000000000000
           C          0.000000011294    -0.000000018691     2.609191632787    12.000000000000
           C         -0.019810689322    -1.214483310723     1.914084305577    12.000000000000
           C         -0.026292714779    -1.220695468710     0.520847884277    12.000000000000
           C          0.000000006222    -0.000000029845    -1.650865728328    12.000000000000
           H          0.008747538011     2.165815745750    -0.015697004902     1.007825032070
           H          0.021286657488     2.154509336425     2.457104250512     1.007825032070
           H          0.000000030361    -0.000000025296     3.695328352677     1.007825032070
           H         -0.021286640401    -2.154509346051     2.457104185457     1.007825032070
           H         -0.008747587183    -2.165815628497    -0.015697114422     1.007825032070
           N         -0.731434364391    -0.896355620433    -2.306140891775    14.003074004780
           N          0.731434392660     0.896355551251    -2.306140916301    14.003074004780
           H          0.710637165065     0.996326422814    -3.315026311579     1.007825032070
           H          1.387239706145     1.480172448750    -1.802314967453     1.007825032070
           H         -1.387239726385    -1.480172453545    -1.802314952155     1.007825032070
           H         -0.710637108174    -0.996326515271    -3.315026280978     1.007825032070

  Running in c1 symmetry.

  Rotational constants: A =      0.12145  B =      0.03952  C =      0.03134 [cm^-1]
  Rotational constants: A =   3641.09116  B =   1184.77017  C =    939.66790 [MHz]
  Nuclear repulsion =  416.670995431008294

  Charge       = 1
  Multiplicity = 1
  Electrons    = 64
  Nalpha       = 32
  Nbeta        = 32

  ==> Algorithm <==

  SCF Algorithm Type is DF.
  DIIS enabled.
  MOM disabled.
  Fractional occupation disabled.
  Guess Type is READ.
  Energy threshold   = 1.00e-08
  Density threshold  = 1.00e-08
  Integral threshold = 0.00e+00

  ==> Primary Basis <==

  Basis Set: 6-31G*
    Blend: 6-31G*
    Number of shells: 72
    Number of basis function: 153
    Number of Cartesian functions: 153
    Spherical Harmonics?: false
    Max angular momentum: 2

  ==> DFT Potential <==

   => B3LYP Composite Functional <= 

    B3LYP Hybrid-GGA Exchange-Correlation Functional (VWN1-RPA)

    P.J. Stephens et. al., J. Phys. Chem., 98, 11623-11627, 1994

    Points   =           5000
    Deriv    =              1
    GGA      =           TRUE
    Meta     =          FALSE

    X_LRC        =          FALSE
    X_Hybrid     =           TRUE
    X_Alpha      =   2.000000E-01
    X_Omega      =   0.000000E+00
    C_LRC        =          FALSE
    C_Hybrid     =          FALSE
    C_Alpha      =   0.000000E+00
    C_Omega      =   0.000000E+00

   => Exchange Functionals <=

    0.8000    B3_X
    0.2000      HF 

   => Correlation Functionals <=

    0.1900 VWN3RPA_C
    0.8100   LYP_C

   => Molecular Quadrature <=

    Radial Scheme    =       TREUTLER
    Pruning Scheme   =           FLAT
    Nuclear Scheme   =       TREUTLER

    BS radius alpha  =              1
    Pruning alpha    =              1
    Radial Points    =             75
    Spherical Points =            302
    Total Points     =         396964
    Total Blocks     =            366
    Max Points       =           4863
    Max Functions    =            150

   => -D3ZERO: Empirical Dispersion <=

    Grimme's -D3 (zero-damping) Dispersion Correction
    Grimme S.; Antony J.; Ehrlich S.; Krieg H. (2010), J. Chem. Phys., 132: 154104

        S6 =   1.000000E+00
        S8 =   1.703000E+00
       SR6 =   1.261000E+00
    ALPHA6 =   1.400000E+01

   => Loading Basis Set <=

    Name: (6-31G* AUX)
    Role: JKFIT
    Keyword: DF_BASIS_SCF
    atoms 1-7         entry C          line   120 file /home/raimis/opt/miniconda3/envs/htmd/share/psi4/basis/cc-pvdz-jkfit.gbs 
    atoms 8-12, 15-18 entry H          line    50 file /home/raimis/opt/miniconda3/envs/htmd/share/psi4/basis/cc-pvdz-jkfit.gbs 
    atoms 13-14       entry N          line   170 file /home/raimis/opt/miniconda3/envs/htmd/share/psi4/basis/cc-pvdz-jkfit.gbs 

  Reading orbitals from file 180, no projection.

  ==> Pre-Iterations <==

   -------------------------------------------------------
    Irrep   Nso     Nmo     Nalpha   Nbeta   Ndocc  Nsocc
   -------------------------------------------------------
     A        153     153       0       0       0       0
   -------------------------------------------------------
    Total     153     153      32      32      32       0
   -------------------------------------------------------

  ==> Integral Setup <==

  ==> DFJK: Density-Fitted J/K Matrices <==

    J tasked:                  Yes
    K tasked:                  Yes
    wK tasked:                  No
    OpenMP threads:              8
    Integrals threads:           8
    Memory (MB):              1430
    Algorithm:                Core
    Integral Cache:           NONE
    Schwarz Cutoff:          1E-12
    Fitting Condition:       1E-12

   => Auxiliary Basis Set <=

  Basis Set: (6-31G* AUX)
    Blend: CC-PVDZ-JKFIT
    Number of shells: 297
    Number of basis function: 954
    Number of Cartesian functions: 954
    Spherical Harmonics?: false
    Max angular momentum: 3

  Minimum eigenvalue in the overlap matrix is 4.9024392474E-04.
  Using Symmetric Orthogonalization.

  SCF Guess: Orbitals guess was supplied from a previous computation.

  ==> Iterations <==

                           Total Energy        Delta E     RMS |[F,P]|

   @DF-RKS iter   0:  -381.34896595362625   -3.81349e+02   1.31268e-03 
   @DF-RKS iter   1:  -381.46994092409926   -1.20975e-01   3.39363e-04 
   @DF-RKS iter   2:  -381.46965585981576    2.85064e-04   4.68705e-04 DIIS
   @DF-RKS iter   3:  -381.47037290740883   -7.17048e-04   1.08614e-04 DIIS
   @DF-RKS iter   4:  -381.47041365041304   -4.07430e-05   1.63703e-05 DIIS
   @DF-RKS iter   5:  -381.47041468220550   -1.03179e-06   5.28102e-06 DIIS
   @DF-RKS iter   6:  -381.47041476593478   -8.37293e-08   1.54226e-06 DIIS
   @DF-RKS iter   7:  -381.47041477256619   -6.63141e-09   2.13433e-07 DIIS
   @DF-RKS iter   8:  -381.47041477267169   -1.05501e-10   1.19757e-07 DIIS
   @DF-RKS iter   9:  -381.47041477271426   -4.25757e-11   1.44075e-08 DIIS
   @DF-RKS iter  10:  -381.47041477271438   -1.13687e-13   6.05650e-09 DIIS

  ==> Post-Iterations <==

    Orbital Energies (a.u.)
    -----------------------

    Doubly Occupied:                                                      

       1A    -14.569026     2A    -14.569019     3A    -10.497992  
       4A    -10.373200     5A    -10.355825     6A    -10.355816  
       7A    -10.342457     8A    -10.340338     9A    -10.340271  
      10A     -1.183725    11A     -1.093069    12A     -1.013229  
      13A     -0.925450    14A     -0.901328    15A     -0.845550  
      16A     -0.785318    17A     -0.773240    18A     -0.742344  
      19A     -0.732148    20A     -0.689421    21A     -0.668022  
      22A     -0.624487    23A     -0.617661    24A     -0.586693  
      25A     -0.578111    26A     -0.572536    27A     -0.517656  
      28A     -0.504695    29A     -0.497872    30A     -0.473535  
      31A     -0.410845    32A     -0.404936  

    Virtual:                                                              

      33A     -0.215167    34A     -0.157524    35A     -0.130126  
      36A     -0.107979    37A     -0.067810    38A     -0.062170  
      39A     -0.038860    40A     -0.035478    41A      0.007385  
      42A      0.019539    43A      0.021037    44A      0.055922  
      45A      0.061945    46A      0.082187    47A      0.126866  
      48A      0.150931    49A      0.155425    50A      0.157471  
      51A      0.199473    52A      0.243049    53A      0.297899  
      54A      0.347494    55A      0.355348    56A      0.380953  
      57A      0.388103    58A      0.397540    59A      0.422342  
      60A      0.422430    61A      0.442765    62A      0.447288  
      63A      0.452903    64A      0.471568    65A      0.472101  
      66A      0.475518    67A      0.485495    68A      0.510993  
      69A      0.528084    70A      0.531671    71A      0.539211  
      72A      0.588174    73A      0.606177    74A      0.655583  
      75A      0.655906    76A      0.682272    77A      0.686884  
      78A      0.704411    79A      0.716543    80A      0.717712  
      81A      0.740408    82A      0.770989    83A      0.775186  
      84A      0.800453    85A      0.810863    86A      0.831094  
      87A      0.849613    88A      0.941815    89A      0.962309  
      90A      0.994650    91A      1.001959    92A      1.027035  
      93A      1.055832    94A      1.073318    95A      1.144484  
      96A      1.170955    97A      1.222568    98A      1.273642  
      99A      1.286085   100A      1.306333   101A      1.320309  
     102A      1.342675   103A      1.360596   104A      1.374654  
     105A      1.442928   106A      1.454215   107A      1.470258  
     108A      1.602759   109A      1.620446   110A      1.655400  
     111A      1.667753   112A      1.736005   113A      1.754858  
     114A      1.792955   115A      1.825045   116A      1.858387  
     117A      1.901753   118A      1.906365   119A      1.957438  
     120A      1.974776   121A      1.996714   122A      2.015651  
     123A      2.043613   124A      2.065513   125A      2.120979  
     126A      2.131624   127A      2.149922   128A      2.217725  
     129A      2.222135   130A      2.264782   131A      2.349133  
     132A      2.367541   133A      2.442311   134A      2.452573  
     135A      2.488055   136A      2.517305   137A      2.549926  
     138A      2.587250   139A      2.601987   140A      2.630062  
     141A      2.736295   142A      2.884612   143A      2.978952  
     144A      3.256288   145A      3.636749   146A      3.658923  
     147A      3.912262   148A      3.947928   149A      3.963876  
     150A      4.055824   151A      4.174832   152A      4.257111  
     153A      4.544960  

    Final Occupation by Irrep:
              A 
    DOCC [    32 ]

  Energy converged.

  @DF-RKS Final Energy:  -381.47041477271438

   => Energetics <=

    Nuclear Repulsion Energy =            416.6709954310082935
    One-Electron Energy =               -1328.5675367673818528
    Two-Electron Energy =                 574.8378273418153412
    DFT Exchange-Correlation Energy =     -44.3997560681561936
    Empirical Dispersion Energy =          -0.0119447100000000
    PCM Polarization Energy =               0.0000000000000000
    EFP Energy =                            0.0000000000000000
    Total Energy =                       -381.4704147727143777



Properties will be evaluated at   0.000000,   0.000000,   0.000000 Bohr

Properties computed using the SCF density matrix

  Nuclear Dipole Moment: (a.u.)
     X:    -0.0000      Y:     0.0000      Z:    -0.0824

  Electronic Dipole Moment: (a.u.)
     X:     0.0000      Y:    -0.0000      Z:    -2.1988

  Dipole Moment: (a.u.)
     X:    -0.0000      Y:    -0.0000      Z:    -2.2812     Total:     2.2812

  Dipole Moment: (Debye)
     X:    -0.0000      Y:    -0.0000      Z:    -5.7982     Total:     5.7982


*** tstop() called on computer03 at Mon Sep  4 12:38:22 2017
Module time:
	user time   =      72.59 seconds =       1.21 minutes
	system time =       1.05 seconds =       0.02 minutes
	total time  =         45 seconds =       0.75 minutes
Total time:
	user time   =     189.76 seconds =       3.16 minutes
	system time =       2.85 seconds =       0.05 minutes
	total time  =        117 seconds =       1.95 minutes

*** tstart() called on computer03
*** at Mon Sep  4 12:38:22 2017


         ------------------------------------------------------------
                                   SCF GRAD                          
                          Rob Parrish, Justin Turney,                
                       Andy Simmonett, and Alex Sokolov              
         ------------------------------------------------------------

  ==> Geometry <==

    Molecular point group: c1
    Full point group: C1

    Geometry (in Angstrom), charge = 1, multiplicity = 1:

       Center              X                  Y                   Z               Mass       
    ------------   -----------------  -----------------  -----------------  -----------------
           C         -0.000000034768     0.000000052949    -0.178368708540    12.000000000000
           C          0.026292671003     1.220695545035     0.520847917459    12.000000000000
           C          0.019810687153     1.214483314086     1.914084347685    12.000000000000
           C          0.000000011294    -0.000000018691     2.609191632787    12.000000000000
           C         -0.019810689322    -1.214483310723     1.914084305577    12.000000000000
           C         -0.026292714779    -1.220695468710     0.520847884277    12.000000000000
           C          0.000000006222    -0.000000029845    -1.650865728328    12.000000000000
           H          0.008747538011     2.165815745750    -0.015697004902     1.007825032070
           H          0.021286657488     2.154509336425     2.457104250512     1.007825032070
           H          0.000000030361    -0.000000025296     3.695328352677     1.007825032070
           H         -0.021286640401    -2.154509346051     2.457104185457     1.007825032070
           H         -0.008747587183    -2.165815628497    -0.015697114422     1.007825032070
           N         -0.731434364391    -0.896355620433    -2.306140891775    14.003074004780
           N          0.731434392660     0.896355551251    -2.306140916301    14.003074004780
           H          0.710637165065     0.996326422814    -3.315026311579     1.007825032070
           H          1.387239706145     1.480172448750    -1.802314967453     1.007825032070
           H         -1.387239726385    -1.480172453545    -1.802314952155     1.007825032070
           H         -0.710637108174    -0.996326515271    -3.315026280978     1.007825032070

  Nuclear repulsion =  416.670995431008294

  ==> Basis Set <==

  Basis Set: 6-31G*
    Blend: 6-31G*
    Number of shells: 72
    Number of basis function: 153
    Number of Cartesian functions: 153
    Spherical Harmonics?: false
    Max angular momentum: 2

  ==> DFJKGrad: Density-Fitted SCF Gradients <==

    Gradient:                    1
    J tasked:                  Yes
    K tasked:                  Yes
    wK tasked:                  No
    OpenMP threads:              8
    Integrals threads:           8
    Memory (MB):              1430
    Schwarz Cutoff:          0E+00
    Fitting Condition:       1E-12

   => Auxiliary Basis Set <=

  Basis Set: (6-31G* AUX)
    Blend: CC-PVDZ-JKFIT
    Number of shells: 297
    Number of basis function: 954
    Number of Cartesian functions: 954
    Spherical Harmonics?: false
    Max angular momentum: 3

  ==> DFT Potential <==

   => B3LYP Composite Functional <= 

    B3LYP Hybrid-GGA Exchange-Correlation Functional (VWN1-RPA)

    P.J. Stephens et. al., J. Phys. Chem., 98, 11623-11627, 1994

    Points   =           5000
    Deriv    =              1
    GGA      =           TRUE
    Meta     =          FALSE

    X_LRC        =          FALSE
    X_Hybrid     =           TRUE
    X_Alpha      =   2.000000E-01
    X_Omega      =   0.000000E+00
    C_LRC        =          FALSE
    C_Hybrid     =          FALSE
    C_Alpha      =   0.000000E+00
    C_Omega      =   0.000000E+00

   => Exchange Functionals <=

    0.8000    B3_X
    0.2000      HF 

   => Correlation Functionals <=

    0.1900 VWN3RPA_C
    0.8100   LYP_C

   => Molecular Quadrature <=

    Radial Scheme    =       TREUTLER
    Pruning Scheme   =           FLAT
    Nuclear Scheme   =       TREUTLER

    BS radius alpha  =              1
    Pruning alpha    =              1
    Radial Points    =             75
    Spherical Points =            302
    Total Points     =         396964
    Total Blocks     =            366
    Max Points       =           4863
    Max Functions    =            150


  -Total Gradient:
     Atom            X                  Y                   Z
    ------   -----------------  -----------------  -----------------
       1       -0.000000009020    -0.000000151152     0.002615470838
       2       -0.000587193082     0.000219283798    -0.001604191509
       3       -0.000029140347     0.000710989996     0.000729664648
       4       -0.000000000068    -0.000000029153     0.000882020177
       5        0.000029140658    -0.000710999184     0.000729606775
       6        0.000587196935    -0.000219258573    -0.001604162722
       7       -0.000000002039     0.000000054151    -0.004519320649
       8        0.000366580239     0.000335374295    -0.000254772406
       9       -0.000037749128     0.000261548806     0.000195779161
      10       -0.000000000011     0.000000002637     0.000361239698
      11        0.000037749129    -0.000261511644     0.000195758468
      12       -0.000366582163    -0.000335320458    -0.000254746573
      13       -0.000767412478    -0.000241896824     0.001821749040
      14        0.000767405780     0.000241896821     0.001821736098
      15        0.000394909408     0.000165951316    -0.000438440213
      16        0.000319260610     0.000864653785    -0.000131095615
      17       -0.000319244598    -0.000864638804    -0.000131106191
      18       -0.000394909822    -0.000165949807    -0.000438434611


*** tstop() called on computer03 at Mon Sep  4 12:38:33 2017
Module time:
	user time   =      22.92 seconds =       0.38 minutes
	system time =       0.36 seconds =       0.01 minutes
	total time  =         11 seconds =       0.18 minutes
Total time:
	user time   =     212.79 seconds =       3.55 minutes
	system time =       3.21 seconds =       0.05 minutes
	total time  =        128 seconds =       2.13 minutes

			-----------------------------------------
			 OPTKING 2.0: for geometry optimizations 
			  - R.A. King,  Bethel University        
			-----------------------------------------
	At level 1: Red. Int., RFO, no backsteps, dynamic trust

	Previous internal coordinate definitions found.
	---Fragment 1 Geometry and Gradient---
	 C          -0.0000000657        0.0000001001       -0.3370680098
	 C           0.0496859475        2.3067802718        0.9842599209
	 C           0.0374367732        2.2950408566        3.6170952124
	 C           0.0000000213       -0.0000000353        4.9306576142
	 C          -0.0374367773       -2.2950408502        3.6170951328
	 C          -0.0496860302       -2.3067801275        0.9842598582
	 C           0.0000000118       -0.0000000564       -3.1196841087
	 H           0.0165304512        4.0927986138       -0.0296630404
	 H           0.0402259529        4.0714325966        4.6432541134
	 H           0.0000000574       -0.0000000478        6.9831585576
	 H          -0.0402259206       -4.0714326148        4.6432539905
	 H          -0.0165305441       -4.0927983922       -0.0296632473
	 N          -1.3822106329       -1.6938666403       -4.3579747093
	 N           1.3822106863        1.6938665096       -4.3579747557
	 H           1.3429096218        1.8827840781       -6.2644918522
	 H           2.6215031253        2.7971205576       -3.4058816937
	 H          -2.6215031635       -2.7971205666       -3.4058816648
	 H          -1.3429095143       -1.8827842528       -6.2644917944
	            -0.0000000090       -0.0000001512        0.0026154708
	            -0.0005871931        0.0002192838       -0.0016041915
	            -0.0000291403        0.0007109900        0.0007296646
	            -0.0000000001       -0.0000000292        0.0008820202
	             0.0000291407       -0.0007109992        0.0007296068
	             0.0005871969       -0.0002192586       -0.0016041627
	            -0.0000000020        0.0000000542       -0.0045193206
	             0.0003665802        0.0003353743       -0.0002547724
	            -0.0000377491        0.0002615488        0.0001957792
	            -0.0000000000        0.0000000026        0.0003612397
	             0.0000377491       -0.0002615116        0.0001957585
	            -0.0003665822       -0.0003353205       -0.0002547466
	            -0.0007674125       -0.0002418968        0.0018217490
	             0.0007674058        0.0002418968        0.0018217361
	             0.0003949094        0.0001659513       -0.0004384402
	             0.0003192606        0.0008646538       -0.0001310956
	            -0.0003192446       -0.0008646388       -0.0001311062
	            -0.0003949098       -0.0001659498       -0.0004384346

	---Fragment 1 Intrafragment Coordinates---
	 - Coordinate -           - BOHR/RAD -       - ANG/DEG -
	 R(1,2)           =         2.658874	       1.407016
	 R(1,6)           =         2.658874	       1.407016
	 R(1,7)           =         2.782616	       1.472497
	 R(2,3)           =         2.632890	       1.393265
	 R(2,8)           =         2.054021	       1.086941
	 R(3,4)           =         2.644629	       1.399477
	 R(3,9)           =         2.051482	       1.085597
	 R(4,5)           =         2.644629	       1.399477
	 R(4,10)          =         2.052501	       1.086137
	 R(5,6)           =         2.632890	       1.393265
	 R(5,11)          =         2.051482	       1.085597
	 R(6,12)          =         2.054021	       1.086941
	 R(7,13)          =         2.512579	       1.329600
	 R(7,14)          =         2.512579	       1.329600
	 R(13,17)         =         1.912981	       1.012306
	 R(13,18)         =         1.916257	       1.014040
	 R(14,15)         =         1.916257	       1.014040
	 R(14,16)         =         1.912981	       1.012306
	 B(1,2,3)         =         2.086313	     119.536941
	 B(1,2,8)         =         2.104550	     120.581841
	 B(1,6,5)         =         2.086313	     119.536942
	 B(1,6,12)        =         2.104550	     120.581838
	 B(1,7,13)        =         2.086143	     119.527186
	 B(1,7,14)        =         2.086143	     119.527184
	 B(2,1,6)         =         2.101431	     120.403141
	 B(2,1,7)         =         2.090877	     119.798433
	 B(2,3,4)         =         2.095106	     120.040736
	 B(2,3,9)         =         2.090158	     119.757238
	 B(3,2,8)         =         2.091419	     119.829460
	 B(3,4,5)         =         2.102029	     120.437401
	 B(3,4,10)        =         2.090578	     119.781299
	 B(4,3,9)         =         2.097882	     120.199807
	 B(4,5,6)         =         2.095106	     120.040735
	 B(4,5,11)        =         2.097882	     120.199806
	 B(5,4,10)        =         2.090578	     119.781300
	 B(5,6,12)        =         2.091419	     119.829461
	 B(6,1,7)         =         2.090877	     119.798425
	 B(6,5,11)        =         2.090158	     119.757240
	 B(7,13,17)       =         2.094276	     119.993150
	 B(7,13,18)       =         2.147796	     123.059633
	 B(7,14,15)       =         2.147796	     123.059634
	 B(7,14,16)       =         2.094276	     119.993150
	 B(13,7,14)       =         2.110899	     120.945629
	 B(15,14,16)      =         2.039355	     116.846459
	 B(17,13,18)      =         2.039355	     116.846459
	 D(1,2,3,4)       =         0.010454	       0.598996
	 D(1,2,3,9)       =        -3.121702	    -178.860332
	 D(1,6,5,4)       =         0.010454	       0.598996
	 D(1,6,5,11)      =        -3.121702	    -178.860332
	 D(1,7,13,17)     =         0.159213	       9.122239
	 D(1,7,13,18)     =        -3.048127	    -174.644831
	 D(1,7,14,15)     =        -3.048127	    -174.644826
	 D(1,7,14,16)     =         0.159213	       9.122240
	 D(2,1,6,5)       =        -0.005236	      -0.299987
	 D(2,1,6,12)      =        -3.101086	    -177.679163
	 D(2,1,7,13)      =        -2.478702	    -142.019149
	 D(2,1,7,14)      =         0.662891	      37.980848
	 D(2,3,4,5)       =        -0.005290	      -0.303073
	 D(2,3,4,10)      =         3.136303	     179.696927
	 D(3,2,1,6)       =        -0.005236	      -0.299987
	 D(3,2,1,7)       =         3.136357	     179.700016
	 D(3,4,5,6)       =        -0.005290	      -0.303073
	 D(3,4,5,11)      =         3.126824	     179.153840
	 D(4,3,2,8)       =         3.106654	     177.998145
	 D(4,5,6,12)      =         3.106654	     177.998144
	 D(5,4,3,9)       =         3.126824	     179.153840
	 D(5,6,1,7)       =         3.136357	     179.700010
	 D(6,1,2,8)       =        -3.101086	    -177.679164
	 D(6,1,7,13)      =         0.662891	      37.980854
	 D(6,1,7,14)      =        -2.478702	    -142.019148
	 D(6,5,4,10)      =         3.136303	     179.696927
	 D(7,1,2,8)       =         0.040506	       2.320839
	 D(7,1,6,12)      =         0.040506	       2.320834
	 D(8,2,3,9)       =        -0.025502	      -1.461182
	 D(9,3,4,10)      =        -0.014768	      -0.846160
	 D(10,4,5,11)     =        -0.014768	      -0.846160
	 D(11,5,6,12)     =        -0.025502	      -1.461183
	 D(13,7,14,15)    =         0.093465	       5.355171
	 D(13,7,14,16)    =        -2.982380	    -170.877763
	 D(14,7,13,17)    =        -2.982379	    -170.877758
	 D(14,7,13,18)    =         0.093465	       5.355171

	Current energy   :      -381.4704147727

	Energy change for the previous step:
		Projected    :        -0.0058024348
		Actual       :        -0.0025953375

	Performing BFGS update.
	Previous computed or guess Hessian on step 1.
	Steps to be used in Hessian update: 1
	Taking RFO optimization step.
	Going to follow RFO solution 1.
	Using RFO vector 1.
	Norm of target step-size    0.04400
	Projected energy change by RFO approximation:        -0.0000024782

	Back-transformation to cartesian coordinates...
	Could not converge backtransformation.
	Using first guess instead.

	--- Internal Coordinate Step in ANG or DEG, aJ/ANG or AJ/DEG ---
	 ---------------------------------------------------------------------------
	   Coordinate                Previous        Force       Change         New 
	   ----------                --------       ------       ------       ------
	    1 R(1,2)          =      1.407016    -0.002065    -0.000002     1.407013
	    2 R(1,6)          =      1.407016    -0.002065    -0.000002     1.407013
	    3 R(1,7)          =      1.472497    -0.016526    -0.002837     1.469660
	    4 R(2,3)          =      1.393265    -0.012780    -0.001370     1.391895
	    5 R(2,8)          =      1.086941    -0.003385    -0.000350     1.086591
	    6 R(3,4)          =      1.399477    -0.010111    -0.001124     1.398353
	    7 R(3,9)          =      1.085597    -0.002678    -0.000232     1.085365
	    8 R(4,5)          =      1.399477    -0.010111    -0.001124     1.398353
	    9 R(4,10)         =      1.086137    -0.002987    -0.000279     1.085858
	   10 R(5,6)          =      1.393265    -0.012779    -0.001370     1.391895
	   11 R(5,11)         =      1.085597    -0.002677    -0.000232     1.085365
	   12 R(6,12)         =      1.086941    -0.003384    -0.000350     1.086591
	   13 R(7,13)         =      1.329600    -0.008682    -0.000505     1.329095
	   14 R(7,14)         =      1.329600    -0.008682    -0.000505     1.329095
	   15 R(13,17)        =      1.012306    -0.005280    -0.000392     1.011914
	   16 R(13,18)        =      1.014040    -0.003651    -0.000161     1.013879
	   17 R(14,15)        =      1.014040    -0.003651    -0.000161     1.013879
	   18 R(14,16)        =      1.012306    -0.005281    -0.000392     1.011914
	   19 B(1,2,3)        =    119.536941     0.000017     0.058437   119.595378
	   20 B(1,2,8)        =    120.581841    -0.000005    -0.024380   120.557461
	   21 B(1,6,5)        =    119.536942     0.000017     0.058438   119.595380
	   22 B(1,6,12)       =    120.581838    -0.000005    -0.024380   120.557458
	   23 B(1,7,13)       =    119.527186     0.000121     0.336554   119.863740
	   24 B(1,7,14)       =    119.527184     0.000121     0.336547   119.863731
	   25 B(2,1,6)        =    120.403141    -0.000053    -0.132727   120.270414
	   26 B(2,1,7)        =    119.798433     0.000027     0.066378   119.864811
	   27 B(2,3,4)        =    120.040736     0.000007     0.010530   120.051266
	   28 B(2,3,9)        =    119.757238    -0.000006    -0.020512   119.736726
	   29 B(3,2,8)        =    119.829460    -0.000013    -0.053414   119.776046
	   30 B(3,4,5)        =    120.437401     0.000006    -0.004542   120.432859
	   31 B(3,4,10)       =    119.781299    -0.000003     0.002273   119.783572
	   32 B(4,3,9)        =    120.199807    -0.000000     0.008984   120.208792
	   33 B(4,5,6)        =    120.040735     0.000007     0.010524   120.051259
	   34 B(4,5,11)       =    120.199806    -0.000000     0.008989   120.208796
	   35 B(5,4,10)       =    119.781300    -0.000003     0.002269   119.783569
	   36 B(5,6,12)       =    119.829461    -0.000013    -0.053415   119.776047
	   37 B(6,1,7)        =    119.798425     0.000027     0.066350   119.864775
	   38 B(6,5,11)       =    119.757240    -0.000006    -0.020511   119.736729
	   39 B(7,13,17)      =    119.993150    -0.000039    -0.185859   119.807291
	   40 B(7,13,18)      =    123.059633    -0.000007    -0.028218   123.031416
	   41 B(7,14,15)      =    123.059634    -0.000007    -0.028215   123.031419
	   42 B(7,14,16)      =    119.993150    -0.000039    -0.185860   119.807290
	   43 B(13,7,14)      =    120.945629    -0.000241    -0.673101   120.272529
	   44 B(15,14,16)     =    116.846459     0.000046     0.196664   117.043122
	   45 B(17,13,18)     =    116.846459     0.000046     0.196664   117.043123
	   46 D(1,2,3,4)      =      0.598996    -0.000000    -0.050049     0.548947
	   47 D(1,2,3,9)      =   -178.860332     0.000000     0.060236  -178.800096
	   48 D(1,6,5,4)      =      0.598996    -0.000000    -0.050049     0.548946
	   49 D(1,6,5,11)     =   -178.860332     0.000000     0.060236  -178.800096
	   50 D(1,7,13,17)    =      9.122239     0.000005     0.699416     9.821655
	   51 D(1,7,13,18)    =   -174.644831     0.000003     0.394935  -174.249896
	   52 D(1,7,14,15)    =   -174.644826     0.000003     0.394947  -174.249879
	   53 D(1,7,14,16)    =      9.122240     0.000005     0.699419     9.821659
	   54 D(2,1,6,5)      =     -0.299987     0.000000     0.025087    -0.274900
	   55 D(2,1,6,12)     =   -177.679163     0.000003     0.477589  -177.201574
	   56 D(2,1,7,13)     =   -142.019149    -0.000001    -0.495731  -142.514879
	   57 D(2,1,7,14)     =     37.980848    -0.000001    -0.495737    37.485111
	   58 D(2,3,4,5)      =     -0.303073     0.000000     0.025431    -0.277642
	   59 D(2,3,4,10)     =    179.696927     0.000000     0.025431   179.722358
	   60 D(3,2,1,6)      =     -0.299987     0.000000     0.025086    -0.274901
	   61 D(3,2,1,7)      =    179.700016     0.000000     0.025086   179.725102
	   62 D(3,4,5,6)      =     -0.303073     0.000000     0.025431    -0.277642
	   63 D(3,4,5,11)     =    179.153840    -0.000000    -0.085541   179.068299
	   64 D(4,3,2,8)      =    177.998145    -0.000003    -0.498234   177.499912
	   65 D(4,5,6,12)     =    177.998144    -0.000003    -0.498234   177.499910
	   66 D(5,4,3,9)      =    179.153840    -0.000000    -0.085540   179.068300
	   67 D(5,6,1,7)      =    179.700010     0.000000     0.025087   179.725098
	   68 D(6,1,2,8)      =   -177.679164     0.000003     0.477588  -177.201576
	   69 D(6,1,7,13)     =     37.980854    -0.000001    -0.495731    37.485123
	   70 D(6,1,7,14)     =   -142.019148    -0.000001    -0.495738  -142.514886
	   71 D(6,5,4,10)     =    179.696927     0.000000     0.025431   179.722359
	   72 D(7,1,2,8)      =      2.320839     0.000003     0.477587     2.798426
	   73 D(7,1,6,12)     =      2.320834     0.000003     0.477589     2.798423
	   74 D(8,2,3,9)      =     -1.461182    -0.000002    -0.387949    -1.849131
	   75 D(9,3,4,10)     =     -0.846160    -0.000000    -0.085540    -0.931700
	   76 D(10,4,5,11)    =     -0.846160    -0.000000    -0.085540    -0.931700
	   77 D(11,5,6,12)    =     -1.461183    -0.000002    -0.387949    -1.849132
	   78 D(13,7,14,15)   =      5.355171     0.000003     0.394941     5.750111
	   79 D(13,7,14,16)   =   -170.877763     0.000005     0.699412  -170.178350
	   80 D(14,7,13,17)   =   -170.877758     0.000005     0.699423  -170.178335
	   81 D(14,7,13,18)   =      5.355171     0.000003     0.394942     5.750113
	 ---------------------------------------------------------------------------
	Successfully symmetrized geometry.

  ==> Convergence Check <==

  Measures of convergence in internal coordinates in au.
  Criteria marked as inactive (o), active & met (*), and active & unmet ( ).
  ---------------------------------------------------------------------------------------------
   Step     Total Energy     Delta E     MAX Force     RMS Force      MAX Disp      RMS Disp   
  ---------------------------------------------------------------------------------------------
    Convergence Criteria    1.00e-06 *    3.00e-04 *             o    1.20e-03 *             o
  ---------------------------------------------------------------------------------------------
      2    -381.47041477   -2.60e-03      3.17e-03      6.48e-04 o    1.22e-02      4.90e-03 o  ~
  ---------------------------------------------------------------------------------------------

	Writing optimization data to binary file.
	Structure for next step:
	Cartesian Geometry (in Angstrom)
	    C     0.0000000014   0.0000002634  -0.1772294554
	    C     0.0302564447   1.2197909733   0.5233998809
	    C     0.0242891880   1.2133988740   1.9152678224
	    C    -0.0000000234  -0.0000000317   2.6098649837
	    C    -0.0242892212  -1.2133988663   1.9152677011
	    C    -0.0302564480  -1.2197906585   0.5233997054
	    C     0.0000000495  -0.0000000678  -1.6468891605
	    H     0.0080074454   2.1650711081  -0.0119779327
	    H     0.0278494331   2.1533357531   2.4579681447
	    H    -0.0000000285  -0.0000001083   3.6957225214
	    H    -0.0278494663  -2.1533358915   2.4579678902
	    H    -0.0080074120  -2.1650707420  -0.0119783715
	    N    -0.7238888094  -0.8969323562  -2.3086970036
	    N     0.7238888734   0.8969321254  -2.3086971801
	    H     0.6941414509   0.9956725924  -3.3173178322
	    H     1.3849671476   1.4775567672  -1.8088771548
	    H    -1.3849672370  -1.4775567879  -1.8088769118
	    H    -0.6941413883  -0.9956729466  -3.3173176473
			--------------------------
			 OPTKING Finished Execution 
			--------------------------

    Structure for next step:
    Molecular point group: c1
    Full point group: C1

    Geometry (in Angstrom), charge = 1, multiplicity = 1:

    C            0.000000001430     0.000000263407    -0.177229455413
    C            0.030256444741     1.219790973268     0.523399880856
    C            0.024289188035     1.213398874013     1.915267822418
    C           -0.000000023389    -0.000000031691     2.609864983722
    C           -0.024289221202    -1.213398866295     1.915267701096
    C           -0.030256448034    -1.219790658505     0.523399705413
    C            0.000000049518    -0.000000067760    -1.646889160500
    H            0.008007445423     2.165071108090    -0.011977932666
    H            0.027849433127     2.153335753060     2.457968144749
    H           -0.000000028545    -0.000000108328     3.695722521404
    H           -0.027849466331    -2.153335891517     2.457967890228
    H           -0.008007412046    -2.165070742011    -0.011978371504
    N           -0.723888809383    -0.896932356237    -2.308697003590
    N            0.723888873423     0.896932125358    -2.308697180056
    H            0.694141450944     0.995672592417    -3.317317832246
    H            1.384967147595     1.477556767246    -1.808877154766
    H           -1.384967236999    -1.477556787869    -1.808876911846
    H           -0.694141388307    -0.995672946644    -3.317317647299

gradient() will perform analytic gradient computation.

*** tstart() called on computer03
*** at Mon Sep  4 12:38:33 2017

   => Loading Basis Set <=

    Name: 6-31G*
    Role: ORBITAL
    Keyword: BASIS
    atoms 1-7         entry C          line   102 file /home/raimis/opt/miniconda3/envs/htmd/share/psi4/basis/6-31gs.gbs 
    atoms 8-12, 15-18 entry H          line    35 file /home/raimis/opt/miniconda3/envs/htmd/share/psi4/basis/6-31gs.gbs 
    atoms 13-14       entry N          line   119 file /home/raimis/opt/miniconda3/envs/htmd/share/psi4/basis/6-31gs.gbs 


         ---------------------------------------------------------
                                   SCF
            by Justin Turney, Rob Parrish, and Andy Simmonett
                              RKS Reference
                        8 Threads,   1907 MiB Core
         ---------------------------------------------------------

  ==> Geometry <==

    Molecular point group: c1
    Full point group: C1

    Geometry (in Angstrom), charge = 1, multiplicity = 1:

       Center              X                  Y                   Z               Mass       
    ------------   -----------------  -----------------  -----------------  -----------------
           C          0.000000001430     0.000000263407    -0.177229455413    12.000000000000
           C          0.030256444741     1.219790973268     0.523399880856    12.000000000000
           C          0.024289188035     1.213398874013     1.915267822418    12.000000000000
           C         -0.000000023389    -0.000000031691     2.609864983722    12.000000000000
           C         -0.024289221202    -1.213398866295     1.915267701096    12.000000000000
           C         -0.030256448034    -1.219790658505     0.523399705413    12.000000000000
           C          0.000000049518    -0.000000067760    -1.646889160500    12.000000000000
           H          0.008007445423     2.165071108090    -0.011977932666     1.007825032070
           H          0.027849433127     2.153335753060     2.457968144749     1.007825032070
           H         -0.000000028545    -0.000000108328     3.695722521404     1.007825032070
[...]
	 H          -2.6025111444       -2.8080759189       -3.4266713755
	 H          -1.2726022001       -1.9019516235       -6.2663258314
	             0.0000000041       -0.0000001841       -0.0000557293
	             0.0000077487        0.0000017148        0.0000142332
	            -0.0000083314        0.0000086605        0.0000025154
	            -0.0000000004       -0.0000000025        0.0000101298
	             0.0000083304       -0.0000086700        0.0000024361
	            -0.0000077507       -0.0000016777        0.0000142493
	             0.0000000148        0.0000000728        0.0000437632
	            -0.0000042435       -0.0000013953        0.0000019055
	             0.0000036220       -0.0000033747       -0.0000044774
	            -0.0000000005        0.0000000001       -0.0000041378
	            -0.0000036217        0.0000033915       -0.0000044922
	             0.0000042378        0.0000014501        0.0000019329
	            -0.0000408814       -0.0000035207       -0.0000379991
	             0.0000408697        0.0000035276       -0.0000380011
	            -0.0000103386       -0.0000025286        0.0000176779
	            -0.0000172107       -0.0000003301       -0.0000013218
	             0.0000172142        0.0000003370       -0.0000013253
	             0.0000103372        0.0000025292        0.0000176780

	---Fragment 1 Intrafragment Coordinates---
	 - Coordinate -           - BOHR/RAD -       - ANG/DEG -
	 R(1,2)           =         2.659795	       1.407503
	 R(1,6)           =         2.659795	       1.407503
	 R(1,7)           =         2.771981	       1.466869
	 R(2,3)           =         2.629180	       1.391302
	 R(2,8)           =         2.052974	       1.086387
	 R(3,4)           =         2.642391	       1.398293
	 R(3,9)           =         2.050622	       1.085142
	 R(4,5)           =         2.642391	       1.398293
	 R(4,10)          =         2.051580	       1.085649
	 R(5,6)           =         2.629180	       1.391302
	 R(5,11)          =         2.050622	       1.085142
	 R(6,12)          =         2.052974	       1.086387
	 R(7,13)          =         2.513452	       1.330061
	 R(7,14)          =         2.513452	       1.330061
	 R(13,17)         =         1.911599	       1.011575
	 R(13,18)         =         1.914850	       1.013295
	 R(14,15)         =         1.914850	       1.013295
	 R(14,16)         =         1.911599	       1.011575
	 B(1,2,3)         =         2.088380	     119.655338
	 B(1,2,8)         =         2.103396	     120.515710
	 B(1,6,5)         =         2.088380	     119.655338
	 B(1,6,12)        =         2.103396	     120.515710
	 B(1,7,13)        =         2.093264	     119.935177
	 B(1,7,14)        =         2.093264	     119.935175
	 B(2,1,6)         =         2.097220	     120.161836
	 B(2,1,7)         =         2.092983	     119.919087
	 B(2,3,4)         =         2.095279	     120.050667
	 B(2,3,9)         =         2.089718	     119.732038
	 B(3,2,8)         =         2.090149	     119.756741
	 B(3,4,5)         =         2.101793	     120.423876
	 B(3,4,10)        =         2.090696	     119.788063
	 B(4,3,9)         =         2.098136	     120.214335
	 B(4,5,6)         =         2.095279	     120.050666
	 B(4,5,11)        =         2.098136	     120.214336
	 B(5,4,10)        =         2.090696	     119.788062
	 B(5,6,12)        =         2.090149	     119.756741
	 B(6,1,7)         =         2.092983	     119.919077
	 B(6,5,11)        =         2.089718	     119.732038
	 B(7,13,17)       =         2.092411	     119.886342
	 B(7,13,18)       =         2.144860	     122.891433
	 B(7,14,15)       =         2.144860	     122.891434
	 B(7,14,16)       =         2.092411	     119.886342
	 B(13,7,14)       =         2.096658	     120.129649
	 B(15,14,16)      =         2.043399	     117.078165
	 B(17,13,18)      =         2.043399	     117.078165
	 D(1,2,3,4)       =         0.007799	       0.446838
	 D(1,2,3,9)       =        -3.122896	    -178.928774
	 D(1,6,5,4)       =         0.007799	       0.446842
	 D(1,6,5,11)      =        -3.122896	    -178.928773
	 D(1,7,13,17)     =         0.187844	      10.762690
	 D(1,7,13,18)     =        -3.032165	    -173.730269
	 D(1,7,14,15)     =        -3.032165	    -173.730253
	 D(1,7,14,16)     =         0.187845	      10.762699
	 D(2,1,6,5)       =        -0.003906	      -0.223816
	 D(2,1,6,12)      =        -3.091438	    -177.126341
	 D(2,1,7,13)      =        -2.505167	    -143.535471
	 D(2,1,7,14)      =         0.636426	      36.464517
	 D(2,3,4,5)       =        -0.003942	      -0.225883
	 D(2,3,4,10)      =         3.137650	     179.774118
	 D(3,2,1,6)       =        -0.003906	      -0.223808
	 D(3,2,1,7)       =         3.137686	     179.776179
	 D(3,4,5,6)       =        -0.003942	      -0.225883
	 D(3,4,5,11)      =         3.126700	     179.146693
	 D(4,3,2,8)       =         3.095745	     177.373112
	 D(4,5,6,12)      =         3.095745	     177.373118
	 D(5,4,3,9)       =         3.126700	     179.146690
	 D(5,6,1,7)       =         3.137687	     179.776198
	 D(6,1,2,8)       =        -3.091438	    -177.126330
	 D(6,1,7,13)      =         0.636426	      36.464515
	 D(6,1,7,14)      =        -2.505167	    -143.535497
	 D(6,5,4,10)      =         3.137650	     179.774115
	 D(7,1,2,8)       =         0.050155	       2.873656
	 D(7,1,6,12)      =         0.050155	       2.873673
	 D(8,2,3,9)       =        -0.034950	      -2.002500
	 D(9,3,4,10)      =        -0.014893	      -0.853309
	 D(10,4,5,11)     =        -0.014893	      -0.853309
	 D(11,5,6,12)     =        -0.034950	      -2.002496
	 D(13,7,14,15)    =         0.109428	       6.269735
	 D(13,7,14,16)    =        -2.953748	    -169.237313
	 D(14,7,13,17)    =        -2.953748	    -169.237298
	 D(14,7,13,18)    =         0.109428	       6.269743

	Current energy   :      -381.4705094607

	Energy change for the previous step:
		Projected    :        -0.0000005184
		Actual       :        -0.0000003572

	Performing BFGS update.
	Previous computed or guess Hessian on step 1.
	Steps to be used in Hessian update: 5 4
	Taking RFO optimization step.
	Going to follow RFO solution 1.
	Using RFO vector 1.
	Norm of target step-size    0.00165
	Projected energy change by RFO approximation:        -0.0000000451

	Back-transformation to cartesian coordinates...
	Successfully converged to displaced geometry.

	--- Internal Coordinate Step in ANG or DEG, aJ/ANG or AJ/DEG ---
	 ---------------------------------------------------------------------------
	   Coordinate                Previous        Force       Change         New 
	   ----------                --------       ------       ------       ------
	    1 R(1,2)          =      1.407503    -0.000132    -0.000019     1.407484
	    2 R(1,6)          =      1.407503    -0.000131    -0.000019     1.407484
	    3 R(1,7)          =      1.466869     0.000071     0.000026     1.466895
	    4 R(2,3)          =      1.391302    -0.000037    -0.000005     1.391297
	    5 R(2,8)          =      1.086387     0.000022     0.000002     1.086389
	    6 R(3,4)          =      1.398293    -0.000019     0.000002     1.398295
	    7 R(3,9)          =      1.085142     0.000037     0.000003     1.085146
	    8 R(4,5)          =      1.398293    -0.000019     0.000002     1.398295
	    9 R(4,10)         =      1.085649     0.000024     0.000003     1.085652
	   10 R(5,6)          =      1.391302    -0.000037    -0.000005     1.391297
	   11 R(5,11)         =      1.085142     0.000038     0.000003     1.085146
	   12 R(6,12)         =      1.086387     0.000022     0.000002     1.086389
	   13 R(7,13)         =      1.330061    -0.000137    -0.000022     1.330040
	   14 R(7,14)         =      1.330061    -0.000137    -0.000022     1.330040
	   15 R(13,17)        =      1.011575     0.000095     0.000009     1.011584
	   16 R(13,18)        =      1.013295     0.000153     0.000021     1.013316
	   17 R(14,15)        =      1.013295     0.000153     0.000021     1.013316
	   18 R(14,16)        =      1.011575     0.000095     0.000009     1.011584
	   19 B(1,2,3)        =    119.655338    -0.000001    -0.002537   119.652801
	   20 B(1,2,8)        =    120.515710     0.000000     0.000536   120.516247
	   21 B(1,6,5)        =    119.655338    -0.000001    -0.002533   119.652804
	   22 B(1,6,12)       =    120.515710     0.000000     0.000534   120.516244
	   23 B(1,7,13)       =    119.935177    -0.000001    -0.002357   119.932820
	   24 B(1,7,14)       =    119.935175    -0.000001    -0.002368   119.932806
	   25 B(2,1,6)        =    120.161836     0.000002     0.004923   120.166759
	   26 B(2,1,7)        =    119.919087    -0.000001    -0.002439   119.916648
	   27 B(2,3,4)        =    120.050667    -0.000000    -0.000702   120.049965
	   28 B(2,3,9)        =    119.732038     0.000000     0.001204   119.733243
	   29 B(3,2,8)        =    119.756741     0.000001     0.002379   119.759120
	   30 B(3,4,5)        =    120.423876     0.000000     0.001591   120.425467
	   31 B(3,4,10)       =    119.788063    -0.000000    -0.000794   119.787269
	   32 B(4,3,9)        =    120.214335    -0.000000    -0.000569   120.213766
	   33 B(4,5,6)        =    120.050666    -0.000000    -0.000712   120.049954
	   34 B(4,5,11)       =    120.214336    -0.000000    -0.000563   120.213773
	   35 B(5,4,10)       =    119.788062    -0.000000    -0.000798   119.787264
	   36 B(5,6,12)       =    119.756741     0.000001     0.002378   119.759119
	   37 B(6,1,7)        =    119.919077    -0.000001    -0.002484   119.916593
	   38 B(6,5,11)       =    119.732038     0.000000     0.001208   119.733246
	   39 B(7,13,17)      =    119.886342     0.000000     0.001097   119.887439
	   40 B(7,13,18)      =    122.891433     0.000001     0.000571   122.892004
	   41 B(7,14,15)      =    122.891434     0.000001     0.000576   122.892009
	   42 B(7,14,16)      =    119.886342     0.000000     0.001094   119.887436
	   43 B(13,7,14)      =    120.129649     0.000002     0.004725   120.134374
	   44 B(15,14,16)     =    117.078165    -0.000001    -0.005314   117.072852
	   45 B(17,13,18)     =    117.078165    -0.000001    -0.005313   117.072853
	   46 D(1,2,3,4)      =      0.446838    -0.000000    -0.002990     0.443848
	   47 D(1,2,3,9)      =   -178.928774     0.000000     0.004053  -178.924720
	   48 D(1,6,5,4)      =      0.446842    -0.000000    -0.002996     0.443846
	   49 D(1,6,5,11)     =   -178.928773     0.000000     0.004053  -178.924720
	   50 D(1,7,13,17)    =     10.762690     0.000000     0.041106    10.803797
	   51 D(1,7,13,18)    =   -173.730269    -0.000000    -0.015510  -173.745779
	   52 D(1,7,14,15)    =   -173.730253    -0.000000    -0.015504  -173.745757
	   53 D(1,7,14,16)    =     10.762699     0.000000     0.041101    10.803800
	   54 D(2,1,6,5)      =     -0.223816     0.000000     0.001504    -0.222312
	   55 D(2,1,6,12)     =   -177.126341    -0.000000    -0.006687  -177.133028
	   56 D(2,1,7,13)     =   -143.535471    -0.000000    -0.008761  -143.544232
	   57 D(2,1,7,14)     =     36.464517    -0.000000    -0.008757    36.455760
	   58 D(2,3,4,5)      =     -0.225883     0.000000     0.001507    -0.224377
	   59 D(2,3,4,10)     =    179.774118     0.000000     0.001503   179.775621
	   60 D(3,2,1,6)      =     -0.223808     0.000000     0.001489    -0.222319
	   61 D(3,2,1,7)      =    179.776179     0.000000     0.001510   179.777688
	   62 D(3,4,5,6)      =     -0.225883     0.000000     0.001504    -0.224379
	   63 D(3,4,5,11)     =    179.146693    -0.000000    -0.005568   179.141125
	   64 D(4,3,2,8)      =    177.373112     0.000000     0.005089   177.378201
	   65 D(4,5,6,12)     =    177.373118     0.000000     0.005075   177.378193
	   66 D(5,4,3,9)      =    179.146690    -0.000000    -0.005560   179.141130
	   67 D(5,6,1,7)      =    179.776198     0.000000     0.001482   179.777680
	   68 D(6,1,2,8)      =   -177.126330    -0.000000    -0.006710  -177.133040
	   69 D(6,1,7,13)     =     36.464515    -0.000000    -0.008740    36.455775
	   70 D(6,1,7,14)     =   -143.535497    -0.000000    -0.008736  -143.544233
	   71 D(6,5,4,10)     =    179.774115     0.000000     0.001508   179.775623
	   72 D(7,1,2,8)      =      2.873656    -0.000000    -0.006688     2.866968
	   73 D(7,1,6,12)     =      2.873673    -0.000000    -0.006708     2.866965
	   74 D(8,2,3,9)      =     -2.002500     0.000000     0.012133    -1.990368
	   75 D(9,3,4,10)     =     -0.853309    -0.000000    -0.005563    -0.858872
	   76 D(10,4,5,11)    =     -0.853309    -0.000000    -0.005564    -0.858873
	   77 D(11,5,6,12)    =     -2.002496     0.000000     0.012124    -1.990372
	   78 D(13,7,14,15)   =      6.269735    -0.000000    -0.015500     6.254235
	   79 D(13,7,14,16)   =   -169.237313     0.000000     0.041105  -169.196208
	   80 D(14,7,13,17)   =   -169.237298     0.000000     0.041102  -169.196195
	   81 D(14,7,13,18)   =      6.269743    -0.000000    -0.015514     6.254229
	 ---------------------------------------------------------------------------
	Successfully symmetrized geometry.

  ==> Convergence Check <==

  Measures of convergence in internal coordinates in au.
  Criteria marked as inactive (o), active & met (*), and active & unmet ( ).
  ---------------------------------------------------------------------------------------------
   Step     Total Energy     Delta E     MAX Force     RMS Force      MAX Disp      RMS Disp   
  ---------------------------------------------------------------------------------------------
    Convergence Criteria    1.00e-06 *    3.00e-04 *             o    1.20e-03 *             o
  ---------------------------------------------------------------------------------------------
      6    -381.47050946   -3.57e-07 *    2.17e-05 *    7.71e-06 o    7.17e-04 *    1.83e-04 o  ~
  ---------------------------------------------------------------------------------------------


  **** Optimization is complete! (in 6 steps) ****

  ==> Optimization Summary <==

  Measures of convergence in internal coordinates in au.
  --------------------------------------------------------------------------------------------------------------- ~
   Step         Total Energy             Delta E       MAX Force       RMS Force        MAX Disp        RMS Disp  ~
  --------------------------------------------------------------------------------------------------------------- ~
      1    -381.467819435245   -381.467819435245      0.02074910      0.00579605      0.04023623      0.01526026  ~
      2    -381.470414772714     -0.002595337469      0.00316819      0.00064822      0.01220723      0.00489539  ~
      3    -381.470490750681     -0.000075977967      0.00122904      0.00020634      0.01948015      0.00530038  ~
      4    -381.470506998549     -0.000016247868      0.00026616      0.00008767      0.00538558      0.00155120  ~
      5    -381.470509103439     -0.000002104890      0.00018689      0.00003827      0.00187780      0.00049573  ~
      6    -381.470509460660     -0.000000357221      0.00002173      0.00000771      0.00071744      0.00018343  ~
  --------------------------------------------------------------------------------------------------------------- ~

	Writing optimization data to binary file.
	Final energy is   -381.4705094606599
	Final (previous) structure:
	Cartesian Geometry (in Angstrom)
	    C     0.0000002133   0.0000000367  -0.1778642850
	    C     0.0366776365   1.2193743993   0.5241649573
	    C     0.0317643269   1.2131194350   1.9154441751
	    C    -0.0000000795  -0.0000000090   2.6101066008
	    C    -0.0317643644  -1.2131194535   1.9154441348
	    C    -0.0366774219  -1.2193743657   0.5241649187
	    C     0.0000001295  -0.0000000544  -1.6447335360
	    H     0.0181701026   2.1647047598  -0.0108532320
	    H     0.0424015055   2.1528948768   2.4578857888
	    H    -0.0000001999  -0.0000000308   3.6957560169
	    H    -0.0424016876  -2.1528949238   2.4578857123
	    H    -0.0181699041  -2.1647047114  -0.0108533114
	    N    -0.7125897030  -0.9059500636  -2.3084604762
	    N     0.7125897066   0.9059500296  -2.3084606305
	    H     0.6734318005   1.0064694757  -3.3159969381
	    H     1.3771896014   1.4859698265  -1.8133166907
	    H    -1.3771895827  -1.4859697763  -1.8133163933
	    H    -0.6734320799  -1.0064694510  -3.3159968116
	Saving final (previous) structure.
			--------------------------
			 OPTKING Finished Execution 
			--------------------------

    Final optimized geometry and variables:
    Molecular point group: c1
    Full point group: C1

    Geometry (in Angstrom), charge = 1, multiplicity = 1:

    C            0.000000213325     0.000000036693    -0.177864285032
    C            0.036677636465     1.219374399289     0.524164957313
    C            0.031764326938     1.213119434994     1.915444175122
    C           -0.000000079495    -0.000000009041     2.610106600822
    C           -0.031764364375    -1.213119453476     1.915444134781
    C           -0.036677421883    -1.219374365653     0.524164918707
    C            0.000000129540    -0.000000054433    -1.644733536042
    H            0.018170102637     2.164704759816    -0.010853231970
    H            0.042401505516     2.152894876832     2.457885788848
    H           -0.000000199878    -0.000000030797     3.695756016917
    H           -0.042401687620    -2.152894923777     2.457885712344
    H           -0.018169904148    -2.164704711389    -0.010853311434
    N           -0.712589702952    -0.905950063645    -2.308460476201
    N            0.712589706591     0.905950029641    -2.308460630517
    H            0.673431800504     1.006469475717    -3.315996938073
    H            1.377189601440     1.485969826465    -1.813316690741
    H           -1.377189582705    -1.485969776252    -1.813316393252
    H           -0.673432079900    -1.006469450983    -3.315996811592

	Cleaning optimization helper files.


Properties will be evaluated at   0.000000,   0.000000,   0.000000 Bohr

Properties computed using the  density matrix

  Nuclear Dipole Moment: (a.u.)
     X:     0.0000      Y:    -0.0000      Z:     0.0248

  Electronic Dipole Moment: (a.u.)
     X:    -0.0000      Y:     0.0000      Z:    -2.2805

  Dipole Moment: (a.u.)
     X:    -0.0000      Y:     0.0000      Z:    -2.2557     Total:     2.2557

  Dipole Moment: (Debye)
     X:    -0.0000      Y:     0.0000      Z:    -5.7334     Total:     5.7334

  Quadrupole Moment: (Debye Ang)
    XX:   -49.4115     YY:   -37.9829     ZZ:   -13.2492
    XY:     6.4666     XZ:    -0.0000     YZ:    -0.0000

  Traceless Quadrupole Moment: (Debye Ang)
    XX:   -15.8637     YY:    -4.4351     ZZ:    20.2987
    XY:     6.4666     XZ:    -0.0000     YZ:    -0.0000

  Mulliken Charges: (a.u.)
   Center  Symbol    Alpha    Beta     Spin     Total
       1     C     2.95717  2.95717  0.00000  0.08566
       2     C     3.08208  3.08208  0.00000 -0.16415
       3     C     3.06249  3.06249  0.00000 -0.12497
       4     C     3.05148  3.05148  0.00000 -0.10295
       5     C     3.06249  3.06249  0.00000 -0.12497
       6     C     3.08208  3.08208  0.00000 -0.16415
       7     C     2.72193  2.72193  0.00000  0.55615
       8     H     0.41420  0.41420  0.00000  0.17160
       9     H     0.40544  0.40544  0.00000  0.18911
      10     H     0.40389  0.40389  0.00000  0.19223
      11     H     0.40544  0.40544  0.00000  0.18911
      12     H     0.41420  0.41420  0.00000  0.17160
      13     N     3.86323  3.86323  0.00000 -0.72645
      14     N     3.86323  3.86323  0.00000 -0.72645
      15     H     0.30570  0.30570  0.00000  0.38861
      16     H     0.29964  0.29964  0.00000  0.40071
      17     H     0.29964  0.29964  0.00000  0.40071
      18     H     0.30570  0.30570  0.00000  0.38861

   Total alpha = 32.00000, Total beta = 32.00000, Total charge =  1.00000


*** Psi4 exiting successfully. Buy a developer a beer!
