    -----------------------------------------------------------------------
          Psi4: An Open-Source Ab Initio Electronic Structure Package
                              Psi4 (no tag) Driver

                          Git: Rev {detached?}  

    J. M. Turney, A. C. Simmonett, R. M. Parrish, E. G. Hohenstein,
    F. A. Evangelista, J. T. Fermann, B. J. Mintz, L. A. Burns, J. J. Wilke,
    M. L. Abrams, N. J. Russ, M. L. Leininger, C. L. Janssen, E. T. Seidl,
    W. D. Allen, H. F. Schaefer, R. A. King, E. F. Valeev, C. D. Sherrill,
    and T. D. Crawford, WIREs Comput. Mol. Sci. 2, 556-565 (2012)
    (doi: 10.1002/wcms.93)

                         Additional Contributions by
    A. E. DePrince, M. Saitow, U. Bozkaya, A. Yu. Sokolov
    -----------------------------------------------------------------------


    Psi4 started on: Tue Jul  5 16:50:49 2016

    Process ID:  16673
    PSI4DATADIR: /export131/home/mjharvey/miniconda3/share
    Memory level set to 256.000 MB

  ==> Input File <==

--------------------------------------------------------------------------
set {
	reference rhf
	basis 6-31G*
}


set_num_threads( 1 )
memory 2 gb

molecule MOL {
0 1

O	 -1.879349	 -0.831963	 1.795409
C	 -1.623389	 0.119752	 1.131336
C	 -2.371474	 1.424854	 1.169081
O	 -0.632575	 0.154573	 0.251549
H	 -2.776465	 1.643360	 0.187661
H	 -3.169757	 1.364342	 1.893594
H	 -1.692740	 2.228458	 1.430415
C	 0.160891	 -1.019931	 0.106212
C	 1.589627	 -0.672828	 0.480843
H	 0.089836	 -1.367806	 -0.916050
H	 -0.238459	 -1.792301	 0.749618
C	 2.246377	 0.346236	 -0.452210
H	 2.163194	 -1.597435	 0.473358
H	 1.604769	 -0.303424	 1.502885
C	 1.358904	 1.563499	 -0.708460
H	 3.190486	 0.671580	 -0.019882
H	 2.486927	 -0.133459	 -1.395284
H	 1.845995	 2.270083	 -1.372924
H	 1.128012	 2.084502	 0.216485
H	 0.418136	 1.272933	 -1.167378

	symmetry c1
}
set optking {
	frozen_dihedral = ("
		16 12 9 8,
		12 9 8 10,
		1 2 4 8
	")
}

ee = energy('scf')
oeprop('DIPOLE', 'QUADRUPOLE', 'MULLIKEN_CHARGES')
f=open( 'psi4out.xyz', 'w' )
f.write( "20  " )
f.write( str(ee) + "\n" )
f.write( MOL.save_string_xyz() )
f.close()
--------------------------------------------------------------------------

  Memory set to   2.000 GiB by Python script.

*** tstart() called on cx1-1-1-1.cx1.hpc.ic.ac.uk
*** at Tue Jul  5 16:50:49 2016


         ---------------------------------------------------------
                                   SCF
            by Justin Turney, Rob Parrish, and Andy Simmonett
                              RHF Reference
                        1 Threads,   2000 MiB Core
         ---------------------------------------------------------

  ==> Geometry <==

    Molecular point group: c1
    Full point group: C1

    Geometry (in Angstrom), charge = 0, multiplicity = 1:

       Center              X                  Y                   Z               Mass       
    ------------   -----------------  -----------------  -----------------  -----------------
           O         -1.717764529238    -0.975778494743     1.321118384805    15.994914619560
           C         -1.461804529238    -0.024063494743     0.657045384805    12.000000000000
           C         -2.209889529238     1.281038505257     0.694790384805    12.000000000000
           O         -0.470990529238     0.010757505257    -0.222741615195    15.994914619560
           H         -2.614880529238     1.499544505257    -0.286629615195     1.007825032070
           H         -3.008172529238     1.220526505257     1.419303384805     1.007825032070
           H         -1.531155529238     2.084642505257     0.956124384805     1.007825032070
           C          0.322475470762    -1.163746494743    -0.368078615195    12.000000000000
           C          1.751211470762    -0.816643494743     0.006552384805    12.000000000000
           H          0.251420470762    -1.511621494743    -1.390340615195     1.007825032070
           H         -0.076874529238    -1.936116494743     0.275327384805     1.007825032070
           C          2.407961470762     0.202420505257    -0.926500615195    12.000000000000
           H          2.324778470762    -1.741250494743    -0.000932615195     1.007825032070
           H          1.766353470762    -0.447239494743     1.028594384805     1.007825032070
           C          1.520488470762     1.419683505257    -1.182750615195    12.000000000000
           H          3.352070470762     0.527764505257    -0.494172615195     1.007825032070
           H          2.648511470762    -0.277274494743    -1.869574615195     1.007825032070
           H          2.007579470762     2.126267505257    -1.847214615195     1.007825032070
           H          1.289596470762     1.940686505257    -0.257805615195     1.007825032070
           H          0.579720470762     1.129117505257    -1.641668615195     1.007825032070

  Running in c1 symmetry.

  Rotational constants: A =      0.12157  B =      0.04237  C =      0.03379 [cm^-1]
  Rotational constants: A =   3644.53134  B =   1270.07119  C =   1013.05581 [MHz]
  Nuclear repulsion =  402.405313755810255

  Charge       = 0
  Multiplicity = 1
  Electrons    = 64
  Nalpha       = 32
  Nbeta        = 32

  ==> Algorithm <==

  SCF Algorithm Type is DF.
  DIIS enabled.
  MOM disabled.
  Fractional occupation disabled.
  Guess Type is CORE.
  Energy threshold   = 1.00e-06
  Density threshold  = 1.00e-06
  Integral threshold = 0.00e+00

  ==> Primary Basis <==

  Basis Set: 6-31G*
    Number of shells: 72
    Number of basis function: 144
    Number of Cartesian functions: 144
    Spherical Harmonics?: false
    Max angular momentum: 2

  ==> Pre-Iterations <==

   -------------------------------------------------------
    Irrep   Nso     Nmo     Nalpha   Nbeta   Ndocc  Nsocc
   -------------------------------------------------------
     A        144     144       0       0       0       0
   -------------------------------------------------------
    Total     144     144      32      32      32       0
   -------------------------------------------------------

 OEINTS: Overlap, kinetic, potential, dipole, and quadrupole integrals
         stored in file 35.

  ==> Integral Setup <==

  ==> DFJK: Density-Fitted J/K Matrices <==

    J tasked:                  Yes
    K tasked:                  Yes
    wK tasked:                  No
    OpenMP threads:              1
    Integrals threads:           1
    Memory (MB):              1430
    Algorithm:                Core
    Integral Cache:           NONE
    Schwarz Cutoff:          1E-12
    Fitting Condition:       1E-12

   => Auxiliary Basis Set <=

  Basis Set: 
    Number of shells: 300
    Number of basis function: 948
    Number of Cartesian functions: 948
    Spherical Harmonics?: false
    Max angular momentum: 3

  Minimum eigenvalue in the overlap matrix is 3.8223371095E-03.
  Using Symmetric Orthogonalization.
  SCF Guess: Core (One-Electron) Hamiltonian.

  ==> Iterations <==

                           Total Energy        Delta E     RMS |[F,P]|

   @DF-RHF iter   1:  -256.53208407682285   -2.56532e+02   7.39664e-02 
   @DF-RHF iter   2:  -211.19329587963995    4.53388e+01   6.59027e-02 DIIS
   @DF-RHF iter   3:  -318.50059003574694   -1.07307e+02   5.38236e-02 DIIS
   @DF-RHF iter   4:  -335.99524203291031   -1.74947e+01   4.52811e-02 DIIS
   @DF-RHF iter   5:  -350.99471495525103   -1.49995e+01   3.54776e-02 DIIS
   @DF-RHF iter   6:  -383.00503778603962   -3.20103e+01   9.50941e-03 DIIS
   @DF-RHF iter   7:  -383.69091809868411   -6.85880e-01   5.36707e-03 DIIS
   @DF-RHF iter   8:  -383.91917908551835   -2.28261e-01   9.69466e-04 DIIS
   @DF-RHF iter   9:  -383.93018108005543   -1.10020e-02   2.78958e-04 DIIS
   @DF-RHF iter  10:  -383.93114635986325   -9.65280e-04   1.40244e-04 DIIS
   @DF-RHF iter  11:  -383.93140484062059   -2.58481e-04   4.65750e-05 DIIS
   @DF-RHF iter  12:  -383.93143712322382   -3.22826e-05   1.73308e-05 DIIS
   @DF-RHF iter  13:  -383.93144219097809   -5.06775e-06   5.47229e-06 DIIS
   @DF-RHF iter  14:  -383.93144284399278   -6.53015e-07   1.22534e-06 DIIS
   @DF-RHF iter  15:  -383.93144288515970   -4.11669e-08   3.70622e-07 DIIS

  ==> Post-Iterations <==

    Orbital Energies (a.u.)
    -----------------------

    Doubly Occupied:                                                      

       1A    -20.601269     2A    -20.544860     3A    -11.377170  
       4A    -11.279343     5A    -11.235309     6A    -11.222843  
       7A    -11.218668     8A    -11.200427     9A     -1.470878  
      10A     -1.364797    11A     -1.085259    12A     -1.026365  
      13A     -0.975773    14A     -0.891596    15A     -0.800180  
      16A     -0.773481    17A     -0.703922    18A     -0.686709  
      19A     -0.657305    20A     -0.624814    21A     -0.601237  
      22A     -0.594986    23A     -0.570163    24A     -0.554392  
      25A     -0.542613    26A     -0.530689    27A     -0.518843  
      28A     -0.483066    29A     -0.470216    30A     -0.454991  
      31A     -0.444045    32A     -0.438337  

    Virtual:                                                              

      33A      0.196281    34A      0.227924    35A      0.248442  
      36A      0.273747    37A      0.290978    38A      0.296887  
      39A      0.304626    40A      0.315996    41A      0.319844  
      42A      0.337877    43A      0.345809    44A      0.349617  
      45A      0.362340    46A      0.381366    47A      0.393070  
      48A      0.415824    49A      0.427967    50A      0.464914  
      51A      0.510306    52A      0.548268    53A      0.694987  
      54A      0.710652    55A      0.732057    56A      0.739532  
      57A      0.761759    58A      0.770904    59A      0.801267  
      60A      0.821478    61A      0.836215    62A      0.867079  
      63A      0.885512    64A      0.928510    65A      0.946146  
      66A      0.958442    67A      0.980522    68A      1.007074  
      69A      1.036163    70A      1.080539    71A      1.084576  
      72A      1.118567    73A      1.138089    74A      1.145893  
      75A      1.160926    76A      1.179198    77A      1.184543  
      78A      1.188512    79A      1.202841    80A      1.213286  
      81A      1.229696    82A      1.241337    83A      1.245212  
      84A      1.266062    85A      1.294244    86A      1.300437  
      87A      1.398179    88A      1.434228    89A      1.460243  
      90A      1.506931    91A      1.552824    92A      1.646573  
      93A      1.665053    94A      1.759815    95A      1.764703  
      96A      1.781412    97A      1.853109    98A      1.878166  
      99A      1.928953   100A      1.939424   101A      1.999412  
     102A      2.033285   103A      2.052458   104A      2.104296  
     105A      2.121262   106A      2.153657   107A      2.194546  
     108A      2.208274   109A      2.245826   110A      2.286286  
     111A      2.295680   112A      2.330618   113A      2.402854  
     114A      2.410349   115A      2.430225   116A      2.441930  
     117A      2.536302   118A      2.553254   119A      2.595698  
     120A      2.617618   121A      2.688118   122A      2.689488  
     123A      2.705049   124A      2.732719   125A      2.767910  
     126A      2.787965   127A      2.815564   128A      2.948119  
     129A      2.974089   130A      2.996183   131A      3.075071  
     132A      3.086438   133A      3.177100   134A      3.357860  
     135A      3.422235   136A      3.553352   137A      4.453525  
     138A      4.534039   139A      4.572466   140A      4.654956  
     141A      4.726760   142A      4.827237   143A      4.945318  
     144A      4.983110  

    Final Occupation by Irrep:
              A 
    DOCC [    32 ]

  Energy converged.

  @DF-RHF Final Energy:  -383.93144288515970

   => Energetics <=

    Nuclear Repulsion Energy =            402.4053137558102549
    One-Electron Energy =               -1320.7844527471984293
    Two-Electron Energy =                 534.4476961062283635
    DFT Exchange-Correlation Energy =       0.0000000000000000
    Empirical Dispersion Energy =           0.0000000000000000
    PCM Polarization Energy =               0.0000000000000000
    EFP Energy =                            0.0000000000000000
    Total Energy =                       -383.9314428851597540

    Alert: EFP and PCM quantities not currently incorporated into SCF psivars.

Properties will be evaluated at   0.000000,   0.000000,   0.000000 Bohr
  ==> Properties <==


Properties computed using the SCF density matrix

  Nuclear Dipole Moment: (a.u.)
     X:     6.5414      Y:     4.3218      Z:    -3.8468

  Electronic Dipole Moment: (a.u.)
     X:    -6.2270      Y:    -3.8853      Z:     3.3747

  Dipole Moment: (a.u.)
     X:     0.3144      Y:     0.4366      Z:    -0.4721     Total:     0.7157

  Dipole Moment: (Debye)
     X:     0.7992      Y:     1.1096      Z:    -1.1999     Total:     1.8192


  Saving occupied orbitals to File 180.

*** tstop() called on cx1-1-1-1.cx1.hpc.ic.ac.uk at Tue Jul  5 16:51:06 2016
Module time:
	user time   =      16.02 seconds =       0.27 minutes
	system time =       0.16 seconds =       0.00 minutes
	total time  =         17 seconds =       0.28 minutes
Total time:
	user time   =      16.02 seconds =       0.27 minutes
	system time =       0.16 seconds =       0.00 minutes
	total time  =         17 seconds =       0.28 minutes


Properties will be evaluated at   0.000000,   0.000000,   0.000000 Bohr

Properties computed using the  density matrix

  Nuclear Dipole Moment: (a.u.)
     X:     6.5414      Y:     4.3218      Z:    -3.8468

  Electronic Dipole Moment: (a.u.)
     X:    -6.2270      Y:    -3.8853      Z:     3.3747

  Dipole Moment: (a.u.)
     X:     0.3144      Y:     0.4366      Z:    -0.4721     Total:     0.7157

  Dipole Moment: (Debye)
     X:     0.7992      Y:     1.1096      Z:    -1.1999     Total:     1.8192

  Quadrupole Moment: (Debye Ang)
    XX:   -49.9911     YY:   -49.9279     ZZ:   -52.5275
    XY:    -5.8216     XZ:     2.9191     YZ:     4.7204

  Traceless Quadrupole Moment: (Debye Ang)
    XX:     0.8244     YY:     0.8876     ZZ:    -1.7120
    XY:    -5.8216     XZ:     2.9191     YZ:     4.7204

  Mulliken Charges: (a.u.)
   Center  Symbol    Alpha    Beta     Spin     Total
       1     O     4.28454  4.28454  0.00000 -0.56907
       2     C     2.61659  2.61659  0.00000  0.76682
       3     C     3.28326  3.28326  0.00000 -0.56653
       4     O     4.30754  4.30754  0.00000 -0.61508
       5     H     0.39994  0.39994  0.00000  0.20013
       6     H     0.39634  0.39634  0.00000  0.20732
       7     H     0.40019  0.40019  0.00000  0.19961
       8     C     3.02525  3.02525  0.00000 -0.05050
       9     C     3.16199  3.16199  0.00000 -0.32399
      10     H     0.41377  0.41377  0.00000  0.17246
      11     H     0.38566  0.38566  0.00000  0.22869
      12     C     3.15524  3.15524  0.00000 -0.31049
      13     H     0.41805  0.41805  0.00000  0.16391
      14     H     0.41530  0.41530  0.00000  0.16940
      15     C     3.23662  3.23662  0.00000 -0.47324
      16     H     0.41893  0.41893  0.00000  0.16215
      17     H     0.42265  0.42265  0.00000  0.15470
      18     H     0.42489  0.42489  0.00000  0.15022
      19     H     0.42577  0.42577  0.00000  0.14845
      20     H     0.40747  0.40747  0.00000  0.18505

   Total alpha = 32.00000, Total beta = 32.00000, Total charge = -0.00000


*** PSI4 exiting successfully. Buy a developer a beer!
