    -----------------------------------------------------------------------
          Psi4: An Open-Source Ab Initio Electronic Structure Package
                              Psi4 (no tag) Driver

                          Git: Rev {detached?}  

    J. M. Turney, A. C. Simmonett, R. M. Parrish, E. G. Hohenstein,
    F. A. Evangelista, J. T. Fermann, B. J. Mintz, L. A. Burns, J. J. Wilke,
    M. L. Abrams, N. J. Russ, M. L. Leininger, C. L. Janssen, E. T. Seidl,
    W. D. Allen, H. F. Schaefer, R. A. King, E. F. Valeev, C. D. Sherrill,
    and T. D. Crawford, WIREs Comput. Mol. Sci. 2, 556-565 (2012)
    (doi: 10.1002/wcms.93)

                         Additional Contributions by
    A. E. DePrince, M. Saitow, U. Bozkaya, A. Yu. Sokolov
    -----------------------------------------------------------------------


    Psi4 started on: Tue Jul  5 16:33:29 2016

    Process ID:  16374
    PSI4DATADIR: /export131/home/mjharvey/miniconda3/share
    Memory level set to 256.000 MB

  ==> Input File <==

--------------------------------------------------------------------------
set {
	reference rhf
	basis 6-31G*
}


set_num_threads( 1 )
memory 2 gb

molecule MOL {
0 1

H	 1.273768	 0.017954	 -1.546408
O	 1.631499	 0.886023	 -1.665460
C	 0.933123	 1.800208	 -0.858179
C	 0.031547	 1.023609	 0.088541
H	 0.323809	 2.461624	 -1.471493
H	 1.627426	 2.424882	 -0.300660
C	 -1.134819	 0.293262	 -0.585751
H	 -0.364656	 1.721166	 0.821156
H	 0.648061	 0.310390	 0.633012
C	 -1.917817	 -0.639439	 0.339494
H	 -0.758119	 -0.268455	 -1.433105
H	 -1.813832	 1.041889	 -0.986690
H	 -2.777680	 -1.057197	 -0.174994
H	 -1.310268	 -1.471279	 0.680599
H	 -2.283753	 -0.111424	 1.216626

	symmetry c1
}
set optking {
	frozen_dihedral = ("
		8 4 7 11,
		2 3 4 8
	")
}

ee = energy('scf')
oeprop('DIPOLE', 'QUADRUPOLE', 'MULLIKEN_CHARGES')
f=open( 'psi4out.xyz', 'w' )
f.write( "15  " )
f.write( str(ee) + "\n" )
f.write( MOL.save_string_xyz() )
f.close()
--------------------------------------------------------------------------

  Memory set to   2.000 GiB by Python script.

*** tstart() called on cx1-1-3-3.cx1.hpc.ic.ac.uk
*** at Tue Jul  5 16:33:30 2016


         ---------------------------------------------------------
                                   SCF
            by Justin Turney, Rob Parrish, and Andy Simmonett
                              RHF Reference
                        1 Threads,   2000 MiB Core
         ---------------------------------------------------------

  ==> Geometry <==

    Molecular point group: c1
    Full point group: C1

    Geometry (in Angstrom), charge = 0, multiplicity = 1:

       Center              X                  Y                   Z               Mass       
    ------------   -----------------  -----------------  -----------------  -----------------
           H          1.333677411935    -0.643726402975    -0.987344067314     1.007825032070
           O          1.691408411935     0.224342597025    -1.106396067314    15.994914619560
           C          0.993032411935     1.138527597025    -0.299115067314    12.000000000000
           C          0.091456411935     0.361928597025     0.647604932686    12.000000000000
           H          0.383718411935     1.799943597025    -0.912429067314     1.007825032070
           H          1.687335411935     1.763201597025     0.258403932686     1.007825032070
           C         -1.074909588065    -0.368418402975    -0.026687067314    12.000000000000
           H         -0.304746588065     1.059485597025     1.380219932686     1.007825032070
           H          0.707970411935    -0.351290402975     1.192075932686     1.007825032070
           C         -1.857907588065    -1.301119402975     0.898557932686    12.000000000000
           H         -0.698209588065    -0.930135402975    -0.874041067314     1.007825032070
           H         -1.753922588065     0.380208597025    -0.427626067314     1.007825032070
           H         -2.717770588065    -1.718877402975     0.384069932686     1.007825032070
           H         -1.250358588065    -2.132959402975     1.239662932686     1.007825032070
           H         -2.223843588065    -0.773104402975     1.775689932686     1.007825032070

  Running in c1 symmetry.

  Rotational constants: A =      0.40773  B =      0.08004  C =      0.07420 [cm^-1]
  Rotational constants: A =  12223.41835  B =   2399.55342  C =   2224.59843 [MHz]
  Nuclear repulsion =  189.378362545672616

  Charge       = 0
  Multiplicity = 1
  Electrons    = 42
  Nalpha       = 21
  Nbeta        = 21

  ==> Algorithm <==

  SCF Algorithm Type is DF.
  DIIS enabled.
  MOM disabled.
  Fractional occupation disabled.
  Guess Type is CORE.
  Energy threshold   = 1.00e-06
  Density threshold  = 1.00e-06
  Integral threshold = 0.00e+00

  ==> Primary Basis <==

  Basis Set: 6-31G*
    Number of shells: 50
    Number of basis function: 95
    Number of Cartesian functions: 95
    Spherical Harmonics?: false
    Max angular momentum: 2

  ==> Pre-Iterations <==

   -------------------------------------------------------
    Irrep   Nso     Nmo     Nalpha   Nbeta   Ndocc  Nsocc
   -------------------------------------------------------
     A         95      95       0       0       0       0
   -------------------------------------------------------
    Total      95      95      21      21      21       0
   -------------------------------------------------------

 OEINTS: Overlap, kinetic, potential, dipole, and quadrupole integrals
         stored in file 35.

  ==> Integral Setup <==

  ==> DFJK: Density-Fitted J/K Matrices <==

    J tasked:                  Yes
    K tasked:                  Yes
    wK tasked:                  No
    OpenMP threads:              1
    Integrals threads:           1
    Memory (MB):              1430
    Algorithm:                Core
    Integral Cache:           NONE
    Schwarz Cutoff:          1E-12
    Fitting Condition:       1E-12

   => Auxiliary Basis Set <=

  Basis Set: 
    Number of shells: 210
    Number of basis function: 655
    Number of Cartesian functions: 655
    Spherical Harmonics?: false
    Max angular momentum: 3

  Minimum eigenvalue in the overlap matrix is 4.2335003137E-03.
  Using Symmetric Orthogonalization.
  SCF Guess: Core (One-Electron) Hamiltonian.

  ==> Iterations <==

                           Total Energy        Delta E     RMS |[F,P]|

   @DF-RHF iter   1:  -180.46164342899854   -1.80462e+02   8.16009e-02 
   @DF-RHF iter   2:   -97.97380079469949    8.24878e+01   9.47698e-02 DIIS
   @DF-RHF iter   3:  -201.18938098201076   -1.03216e+02   4.45526e-02 DIIS
   @DF-RHF iter   4:  -164.25504660159632    3.69343e+01   7.77764e-02 DIIS
   @DF-RHF iter   5:  -222.62062531147765   -5.83656e+01   3.31337e-02 DIIS
   @DF-RHF iter   6:  -231.91685395965683   -9.29623e+00   6.82863e-03 DIIS
   @DF-RHF iter   7:  -232.08874907775916   -1.71895e-01   3.51856e-03 DIIS
   @DF-RHF iter   8:  -232.13573629085474   -4.69872e-02   6.32370e-04 DIIS
   @DF-RHF iter   9:  -232.13842968665026   -2.69340e-03   2.88024e-04 DIIS
   @DF-RHF iter  10:  -232.13897727328177   -5.47587e-04   9.31884e-05 DIIS
   @DF-RHF iter  11:  -232.13903802981631   -6.07565e-05   3.34116e-05 DIIS
   @DF-RHF iter  12:  -232.13904617434187   -8.14453e-06   6.87508e-06 DIIS
   @DF-RHF iter  13:  -232.13904653315123   -3.58809e-07   1.31016e-06 DIIS
   @DF-RHF iter  14:  -232.13904654379380   -1.06426e-08   4.08743e-07 DIIS

  ==> Post-Iterations <==

    Orbital Energies (a.u.)
    -----------------------

    Doubly Occupied:                                                      

       1A    -20.548455     2A    -11.268407     3A    -11.228339  
       4A    -11.223230     5A    -11.218757     6A     -1.358582  
       7A     -1.075790     8A     -0.981179     9A     -0.874439  
      10A     -0.804035    11A     -0.669759    12A     -0.655949  
      13A     -0.628368    14A     -0.600732    15A     -0.572622  
      16A     -0.537950    17A     -0.517040    18A     -0.485520  
      19A     -0.479362    20A     -0.459265    21A     -0.430396  

    Virtual:                                                              

      22A      0.217802    23A      0.253944    24A      0.259531  
      25A      0.282054    26A      0.300667    27A      0.320156  
      28A      0.326250    29A      0.335993    30A      0.343755  
      31A      0.362302    32A      0.388237    33A      0.417297  
      34A      0.442648    35A      0.461453    36A      0.691678  
      37A      0.713501    38A      0.744598    39A      0.757553  
      40A      0.820170    41A      0.854814    42A      0.873049  
      43A      0.912584    44A      0.950649    45A      1.004271  
      46A      1.041217    47A      1.097541    48A      1.121365  
      49A      1.128095    50A      1.155123    51A      1.167612  
      52A      1.178413    53A      1.188549    54A      1.200168  
      55A      1.209104    56A      1.220882    57A      1.236696  
      58A      1.260368    59A      1.326434    60A      1.354345  
      61A      1.473536    62A      1.505974    63A      1.632611  
      64A      1.668855    65A      1.696281    66A      1.835929  
      67A      1.894544    68A      1.959868    69A      2.022105  
      70A      2.084100    71A      2.153836    72A      2.188744  
      73A      2.223650    74A      2.272361    75A      2.291890  
      76A      2.347016    77A      2.439401    78A      2.444603  
      79A      2.564659    80A      2.605687    81A      2.652766  
      82A      2.695970    83A      2.717410    84A      2.772090  
      85A      2.799851    86A      2.855576    87A      2.944881  
      88A      3.065778    89A      3.069755    90A      3.226284  
      91A      4.208173    92A      4.562455    93A      4.698922  
      94A      4.812642    95A      4.951795  

    Final Occupation by Irrep:
              A 
    DOCC [    21 ]

  Energy converged.

  @DF-RHF Final Energy:  -232.13904654379380

   => Energetics <=

    Nuclear Repulsion Energy =            189.3783625456726156
    One-Electron Energy =                -689.7983310935946974
    Two-Electron Energy =                 268.2809220041294793
    DFT Exchange-Correlation Energy =       0.0000000000000000
    Empirical Dispersion Energy =           0.0000000000000000
    PCM Polarization Energy =               0.0000000000000000
    EFP Energy =                            0.0000000000000000
    Total Energy =                       -232.1390465437925741

    Alert: EFP and PCM quantities not currently incorporated into SCF psivars.

Properties will be evaluated at   0.000000,   0.000000,   0.000000 Bohr
  ==> Properties <==


Properties computed using the SCF density matrix

  Nuclear Dipole Moment: (a.u.)
     X:    -4.5256      Y:    -1.4494      Z:     2.8340

  Electronic Dipole Moment: (a.u.)
     X:     3.8848      Y:     1.2636      Z:    -2.3368

  Dipole Moment: (a.u.)
     X:    -0.6408      Y:    -0.1858      Z:     0.4972     Total:     0.8321

  Dipole Moment: (Debye)
     X:    -1.6287      Y:    -0.4723      Z:     1.2637     Total:     2.1149


  Saving occupied orbitals to File 180.

*** tstop() called on cx1-1-3-3.cx1.hpc.ic.ac.uk at Tue Jul  5 16:33:37 2016
Module time:
	user time   =       6.40 seconds =       0.11 minutes
	system time =       0.05 seconds =       0.00 minutes
	total time  =          7 seconds =       0.12 minutes
Total time:
	user time   =       6.40 seconds =       0.11 minutes
	system time =       0.05 seconds =       0.00 minutes
	total time  =          7 seconds =       0.12 minutes


Properties will be evaluated at   0.000000,   0.000000,   0.000000 Bohr

Properties computed using the  density matrix

  Nuclear Dipole Moment: (a.u.)
     X:    -4.5256      Y:    -1.4494      Z:     2.8340

  Electronic Dipole Moment: (a.u.)
     X:     3.8848      Y:     1.2636      Z:    -2.3368

  Dipole Moment: (a.u.)
     X:    -0.6408      Y:    -0.1858      Z:     0.4972     Total:     0.8321

  Dipole Moment: (Debye)
     X:    -1.6287      Y:    -0.4723      Z:     1.2637     Total:     2.1149

  Quadrupole Moment: (Debye Ang)
    XX:   -37.6834     YY:   -30.9017     ZZ:   -35.8930
    XY:    -1.3045     XZ:     3.2295     YZ:     1.6444

  Traceless Quadrupole Moment: (Debye Ang)
    XX:    -2.8574     YY:     3.9243     ZZ:    -1.0669
    XY:    -1.3045     XZ:     3.2295     YZ:     1.6444

  Mulliken Charges: (a.u.)
   Center  Symbol    Alpha    Beta     Spin     Total
       1     H     0.27637  0.27637  0.00000  0.44726
       2     O     4.37791  4.37791  0.00000 -0.75581
       3     C     2.97530  2.97530  0.00000  0.04941
       4     C     3.18950  3.18950  0.00000 -0.37900
       5     H     0.42823  0.42823  0.00000  0.14354
       6     H     0.41999  0.41999  0.00000  0.16003
       7     C     3.15637  3.15637  0.00000 -0.31274
       8     H     0.41857  0.41857  0.00000  0.16286
       9     H     0.41913  0.41913  0.00000  0.16174
      10     C     3.23901  3.23901  0.00000 -0.47802
      11     H     0.42593  0.42593  0.00000  0.14814
      12     H     0.41743  0.41743  0.00000  0.16515
      13     H     0.41641  0.41641  0.00000  0.16718
      14     H     0.42055  0.42055  0.00000  0.15889
      15     H     0.41931  0.41931  0.00000  0.16138

   Total alpha = 21.00000, Total beta = 21.00000, Total charge =  0.00000


*** PSI4 exiting successfully. Buy a developer a beer!
