    -----------------------------------------------------------------------
          Psi4: An Open-Source Ab Initio Electronic Structure Package
                              Psi4 (no tag) Driver

                          Git: Rev {detached?}  

    J. M. Turney, A. C. Simmonett, R. M. Parrish, E. G. Hohenstein,
    F. A. Evangelista, J. T. Fermann, B. J. Mintz, L. A. Burns, J. J. Wilke,
    M. L. Abrams, N. J. Russ, M. L. Leininger, C. L. Janssen, E. T. Seidl,
    W. D. Allen, H. F. Schaefer, R. A. King, E. F. Valeev, C. D. Sherrill,
    and T. D. Crawford, WIREs Comput. Mol. Sci. 2, 556-565 (2012)
    (doi: 10.1002/wcms.93)

                         Additional Contributions by
    A. E. DePrince, M. Saitow, U. Bozkaya, A. Yu. Sokolov
    -----------------------------------------------------------------------


    Psi4 started on: Tue Jul  5 16:34:42 2016

    Process ID:  25660
    PSI4DATADIR: /export131/home/mjharvey/miniconda3/share
    Memory level set to 256.000 MB

  ==> Input File <==

--------------------------------------------------------------------------
set {
	reference rhf
	basis 6-31G*
}


set_num_threads( 1 )
memory 2 gb

molecule MOL {
0 1

H	 -2.798360	 -0.862255	 -0.071053
N	 -1.863561	 -0.715187	 0.256814
C	 -1.344686	 0.554728	 -0.219830
H	 -1.300452	 -1.461917	 -0.101532
C	 -0.652496	 0.362795	 -1.552935
H	 -2.108370	 1.324880	 -0.336690
H	 -0.617412	 0.923410	 0.497056
O	 0.468798	 -0.449245	 -1.351989
H	 -1.331010	 -0.105567	 -2.265602
H	 -0.351884	 1.329277	 -1.951406
C	 1.251204	 -0.639169	 -2.487479
H	 2.079359	 -1.277957	 -2.212151
H	 0.686367	 -1.120086	 -3.284135
H	 1.642651	 0.304044	 -2.862885

	symmetry c1
}
set optking {
	frozen_dihedral = ("
		8 5 3 6,
		5 8 11 13,
		11 8 5 3
	")
}

ee = energy('scf')
oeprop('DIPOLE', 'QUADRUPOLE', 'MULLIKEN_CHARGES')
f=open( 'psi4out.xyz', 'w' )
f.write( "14  " )
f.write( str(ee) + "\n" )
f.write( MOL.save_string_xyz() )
f.close()
--------------------------------------------------------------------------

  Memory set to   2.000 GiB by Python script.

*** tstart() called on cx1-3-6-4.cx1.hpc.ic.ac.uk
*** at Tue Jul  5 16:34:43 2016


         ---------------------------------------------------------
                                   SCF
            by Justin Turney, Rob Parrish, and Andy Simmonett
                              RHF Reference
                        1 Threads,   2000 MiB Core
         ---------------------------------------------------------

  ==> Geometry <==

    Molecular point group: c1
    Full point group: C1

    Geometry (in Angstrom), charge = 0, multiplicity = 1:

       Center              X                  Y                   Z               Mass       
    ------------   -----------------  -----------------  -----------------  -----------------
           H         -2.376343340325    -0.664917958323     1.019133797966     1.007825032070
           N         -1.441544340325    -0.517849958323     1.347000797966    14.003074004780
           C         -0.922669340325     0.752065041677     0.870356797966    12.000000000000
           H         -0.878435340325    -1.264579958323     0.988654797966     1.007825032070
           C         -0.230479340325     0.560132041677    -0.462748202034    12.000000000000
           H         -1.686353340325     1.522217041677     0.753496797966     1.007825032070
           H         -0.195395340325     1.120747041677     1.587242797966     1.007825032070
           O          0.890814659675    -0.251907958323    -0.261802202034    15.994914619560
           H         -0.908993340325     0.091770041677    -1.175415202034     1.007825032070
           H          0.070132659675     1.526614041677    -0.861219202034     1.007825032070
           C          1.673220659675    -0.441831958323    -1.397292202034    12.000000000000
           H          2.501375659675    -1.080619958323    -1.121964202034     1.007825032070
           H          1.108383659675    -0.922748958323    -2.193948202034     1.007825032070
           H          2.064667659675     0.501381041677    -1.772698202034     1.007825032070

  Running in c1 symmetry.

  Rotational constants: A =      0.44204  B =      0.09050  C =      0.08246 [cm^-1]
  Rotational constants: A =  13251.95950  B =   2713.02215  C =   2472.10625 [MHz]
  Nuclear repulsion =  195.150909807998914

  Charge       = 0
  Multiplicity = 1
  Electrons    = 42
  Nalpha       = 21
  Nbeta        = 21

  ==> Algorithm <==

  SCF Algorithm Type is DF.
  DIIS enabled.
  MOM disabled.
  Fractional occupation disabled.
  Guess Type is CORE.
  Energy threshold   = 1.00e-06
  Density threshold  = 1.00e-06
  Integral threshold = 0.00e+00

  ==> Primary Basis <==

  Basis Set: 6-31G*
    Number of shells: 48
    Number of basis function: 93
    Number of Cartesian functions: 93
    Spherical Harmonics?: false
    Max angular momentum: 2

  ==> Pre-Iterations <==

   -------------------------------------------------------
    Irrep   Nso     Nmo     Nalpha   Nbeta   Ndocc  Nsocc
   -------------------------------------------------------
     A         93      93       0       0       0       0
   -------------------------------------------------------
    Total      93      93      21      21      21       0
   -------------------------------------------------------

 OEINTS: Overlap, kinetic, potential, dipole, and quadrupole integrals
         stored in file 35.

  ==> Integral Setup <==

  ==> DFJK: Density-Fitted J/K Matrices <==

    J tasked:                  Yes
    K tasked:                  Yes
    wK tasked:                  No
    OpenMP threads:              1
    Integrals threads:           1
    Memory (MB):              1430
    Algorithm:                Core
    Integral Cache:           NONE
    Schwarz Cutoff:          1E-12
    Fitting Condition:       1E-12

   => Auxiliary Basis Set <=

  Basis Set: 
    Number of shells: 201
    Number of basis function: 630
    Number of Cartesian functions: 630
    Spherical Harmonics?: false
    Max angular momentum: 3

  Minimum eigenvalue in the overlap matrix is 4.5123499441E-03.
  Using Symmetric Orthogonalization.
  SCF Guess: Core (One-Electron) Hamiltonian.

  ==> Iterations <==

                           Total Energy        Delta E     RMS |[F,P]|

   @DF-RHF iter   1:  -201.69343071176201   -2.01693e+02   7.99500e-02 
   @DF-RHF iter   2:  -154.92531892567115    4.67681e+01   6.71156e-02 DIIS
   @DF-RHF iter   3:  -211.82112643623424   -5.68958e+01   6.17609e-02 DIIS
   @DF-RHF iter   4:  -238.69049177412882   -2.68694e+01   4.14162e-02 DIIS
   @DF-RHF iter   5:  -247.80655094082380   -9.11606e+00   8.31228e-03 DIIS
   @DF-RHF iter   6:  -248.07115272734268   -2.64602e-01   3.38639e-03 DIIS
   @DF-RHF iter   7:  -248.11703914825904   -4.58864e-02   7.77784e-04 DIIS
   @DF-RHF iter   8:  -248.11977943035981   -2.74028e-03   2.45030e-04 DIIS
   @DF-RHF iter   9:  -248.12012861533969   -3.49185e-04   6.63511e-05 DIIS
   @DF-RHF iter  10:  -248.12016054109307   -3.19258e-05   2.46895e-05 DIIS
   @DF-RHF iter  11:  -248.12016495391407   -4.41282e-06   7.63508e-06 DIIS
   @DF-RHF iter  12:  -248.12016534698665   -3.93073e-07   2.46186e-06 DIIS
   @DF-RHF iter  13:  -248.12016539022596   -4.32393e-08   4.29759e-07 DIIS

  ==> Post-Iterations <==

    Orbital Energies (a.u.)
    -----------------------

    Doubly Occupied:                                                      

       1A    -20.562332     2A    -15.526083     3A    -11.270149  
       4A    -11.268686     5A    -11.241313     6A     -1.386459  
       7A     -1.175085     8A     -0.999756     9A     -0.910123  
      10A     -0.823411    11A     -0.686631    12A     -0.675614  
      13A     -0.647287    14A     -0.622368    15A     -0.588841  
      16A     -0.559574    17A     -0.521426    18A     -0.501048  
      19A     -0.483116    20A     -0.422731    21A     -0.374660  

    Virtual:                                                              

      22A      0.229936    23A      0.253484    24A      0.279251  
      25A      0.304080    26A      0.305923    27A      0.318246  
      28A      0.324323    29A      0.332973    30A      0.350219  
      31A      0.374547    32A      0.434000    33A      0.443346  
      34A      0.452601    35A      0.727409    36A      0.755051  
      37A      0.768129    38A      0.805062    39A      0.820522  
      40A      0.843497    41A      0.876403    42A      0.913396  
      43A      0.987631    44A      1.014619    45A      1.083233  
      46A      1.086228    47A      1.111105    48A      1.136399  
      49A      1.151547    50A      1.162075    51A      1.175147  
      52A      1.211525    53A      1.212155    54A      1.234529  
      55A      1.252298    56A      1.263677    57A      1.324912  
      58A      1.395016    59A      1.436560    60A      1.564108  
      61A      1.651688    62A      1.672980    63A      1.750187  
      64A      1.778032    65A      1.790438    66A      1.944025  
      67A      1.999384    68A      2.090779    69A      2.213857  
      70A      2.236521    71A      2.360660    72A      2.361682  
      73A      2.388609    74A      2.434048    75A      2.453374  
      76A      2.473745    77A      2.510275    78A      2.598139  
      79A      2.631500    80A      2.696813    81A      2.745105  
      82A      2.805260    83A      2.885521    84A      2.906776  
      85A      3.010813    86A      3.091175    87A      3.188250  
      88A      3.334748    89A      4.218219    90A      4.378001  
      91A      4.652064    92A      4.708767    93A      4.889134  

    Final Occupation by Irrep:
              A 
    DOCC [    21 ]

  Energy converged.

  @DF-RHF Final Energy:  -248.12016539022596

   => Energetics <=

    Nuclear Repulsion Energy =            195.1509098079989144
    One-Electron Energy =                -724.0486928232738819
    Two-Electron Energy =                 280.7776176250485491
    DFT Exchange-Correlation Energy =       0.0000000000000000
    Empirical Dispersion Energy =           0.0000000000000000
    PCM Polarization Energy =               0.0000000000000000
    EFP Energy =                            0.0000000000000000
    Total Energy =                       -248.1201653902264184

    Alert: EFP and PCM quantities not currently incorporated into SCF psivars.

Properties will be evaluated at   0.000000,   0.000000,   0.000000 Bohr
  ==> Properties <==


Properties computed using the SCF density matrix

  Nuclear Dipole Moment: (a.u.)
     X:    -0.2737      Y:     0.7783      Z:    -2.6083

  Electronic Dipole Moment: (a.u.)
     X:     0.1776      Y:    -0.5702      Z:     1.4973

  Dipole Moment: (a.u.)
     X:    -0.0961      Y:     0.2080      Z:    -1.1110     Total:     1.1344

  Dipole Moment: (Debye)
     X:    -0.2442      Y:     0.5288      Z:    -2.8238     Total:     2.8832


  Saving occupied orbitals to File 180.

*** tstop() called on cx1-3-6-4.cx1.hpc.ic.ac.uk at Tue Jul  5 16:34:48 2016
Module time:
	user time   =       4.85 seconds =       0.08 minutes
	system time =       0.04 seconds =       0.00 minutes
	total time  =          5 seconds =       0.08 minutes
Total time:
	user time   =       4.85 seconds =       0.08 minutes
	system time =       0.04 seconds =       0.00 minutes
	total time  =          5 seconds =       0.08 minutes


Properties will be evaluated at   0.000000,   0.000000,   0.000000 Bohr

Properties computed using the  density matrix

  Nuclear Dipole Moment: (a.u.)
     X:    -0.2737      Y:     0.7783      Z:    -2.6083

  Electronic Dipole Moment: (a.u.)
     X:     0.1776      Y:    -0.5702      Z:     1.4973

  Dipole Moment: (a.u.)
     X:    -0.0961      Y:     0.2080      Z:    -1.1110     Total:     1.1344

  Dipole Moment: (Debye)
     X:    -0.2442      Y:     0.5288      Z:    -2.8238     Total:     2.8832

  Quadrupole Moment: (Debye Ang)
    XX:   -29.3853     YY:   -30.5693     ZZ:   -36.2675
    XY:    -0.6093     XZ:     0.5907     YZ:     1.5785

  Traceless Quadrupole Moment: (Debye Ang)
    XX:     2.6888     YY:     1.5047     ZZ:    -4.1934
    XY:    -0.6093     XZ:     0.5907     YZ:     1.5785

  Mulliken Charges: (a.u.)
   Center  Symbol    Alpha    Beta     Spin     Total
       1     H     0.33605  0.33605  0.00000  0.32790
       2     N     3.92469  3.92469  0.00000 -0.84937
       3     C     3.06543  3.06543  0.00000 -0.13086
       4     H     0.32158  0.32158  0.00000  0.35685
       5     C     3.00150  3.00150  0.00000 -0.00299
       6     H     0.42098  0.42098  0.00000  0.15804
       7     H     0.40980  0.40980  0.00000  0.18041
       8     O     4.30678  4.30678  0.00000 -0.61355
       9     H     0.43388  0.43388  0.00000  0.13223
      10     H     0.43115  0.43115  0.00000  0.13770
      11     C     3.07928  3.07928  0.00000 -0.15856
      12     H     0.41068  0.41068  0.00000  0.17863
      13     H     0.43001  0.43001  0.00000  0.13999
      14     H     0.42820  0.42820  0.00000  0.14360

   Total alpha = 21.00000, Total beta = 21.00000, Total charge =  0.00000


*** PSI4 exiting successfully. Buy a developer a beer!
