    -----------------------------------------------------------------------
          Psi4: An Open-Source Ab Initio Electronic Structure Package
                              Psi4 (no tag) Driver

                          Git: Rev {detached?}  

    J. M. Turney, A. C. Simmonett, R. M. Parrish, E. G. Hohenstein,
    F. A. Evangelista, J. T. Fermann, B. J. Mintz, L. A. Burns, J. J. Wilke,
    M. L. Abrams, N. J. Russ, M. L. Leininger, C. L. Janssen, E. T. Seidl,
    W. D. Allen, H. F. Schaefer, R. A. King, E. F. Valeev, C. D. Sherrill,
    and T. D. Crawford, WIREs Comput. Mol. Sci. 2, 556-565 (2012)
    (doi: 10.1002/wcms.93)

                         Additional Contributions by
    A. E. DePrince, M. Saitow, U. Bozkaya, A. Yu. Sokolov
    -----------------------------------------------------------------------


    Psi4 started on: Tue Jul  5 16:40:42 2016

    Process ID:   5302
    PSI4DATADIR: /export131/home/mjharvey/miniconda3/share
    Memory level set to 256.000 MB

  ==> Input File <==

--------------------------------------------------------------------------
set {
	reference rhf
	basis 6-31G*
}


set_num_threads( 1 )
memory 2 gb

molecule MOL {
0 1

H	 -2.251964	 -0.482079	 0.621181
C	 -1.863095	 -0.774683	 -0.349553
O	 -0.774054	 0.001095	 -0.743181
H	 -2.637846	 -0.614338	 -1.087375
H	 -1.630225	 -1.835057	 -0.325637
C	 0.406953	 0.000033	 0.038965
C	 1.527284	 -0.003667	 -0.998752
C	 0.498933	 1.262172	 0.902524
C	 0.494271	 -1.259566	 0.906664
H	 1.452513	 0.873252	 -1.631882
H	 1.448863	 -0.881882	 -1.629595
H	 2.502020	 -0.005104	 -0.521731
H	 0.364280	 2.147110	 0.289513
H	 1.472180	 1.321775	 1.378800
H	 -0.247853	 1.275162	 1.689097
H	 0.356778	 -2.146106	 0.296587
H	 1.467182	 -1.320941	 1.383330
H	 -0.252763	 -1.267328	 1.693119

	symmetry c1
}
set optking {
	frozen_dihedral = ("
		6 3 2 5
	")
}

ee = energy('scf')
oeprop('DIPOLE', 'QUADRUPOLE', 'MULLIKEN_CHARGES')
f=open( 'psi4out.xyz', 'w' )
f.write( "18  " )
f.write( str(ee) + "\n" )
f.write( MOL.save_string_xyz() )
f.close()
--------------------------------------------------------------------------

  Memory set to   2.000 GiB by Python script.

*** tstart() called on cx1-1-4-3.cx1.hpc.ic.ac.uk
*** at Tue Jul  5 16:40:42 2016


         ---------------------------------------------------------
                                   SCF
            by Justin Turney, Rob Parrish, and Andy Simmonett
                              RHF Reference
                        1 Threads,   2000 MiB Core
         ---------------------------------------------------------

  ==> Geometry <==

    Molecular point group: c1
    Full point group: C1

    Geometry (in Angstrom), charge = 0, multiplicity = 1:

       Center              X                  Y                   Z               Mass       
    ------------   -----------------  -----------------  -----------------  -----------------
           H         -2.279781120603    -0.343020207675     0.663373275067     1.007825032070
           C         -1.890912120603    -0.635624207675    -0.307360724933    12.000000000000
           O         -0.801871120603     0.140153792325    -0.700988724933    15.994914619560
           H         -2.665663120603    -0.475279207675    -1.045182724933     1.007825032070
           H         -1.658042120603    -1.695998207675    -0.283444724933     1.007825032070
           C          0.379135879397     0.139091792325     0.081157275067    12.000000000000
           C          1.499466879397     0.135391792325    -0.956559724933    12.000000000000
           C          0.471115879397     1.401230792325     0.944716275067    12.000000000000
           C          0.466453879397    -1.120507207675     0.948856275067    12.000000000000
           H          1.424695879397     1.012310792325    -1.589689724933     1.007825032070
           H          1.421045879397    -0.742823207675    -1.587402724933     1.007825032070
           H          2.474202879397     0.133954792325    -0.479538724933     1.007825032070
           H          0.336462879397     2.286168792325     0.331705275067     1.007825032070
           H          1.444362879397     1.460833792325     1.420992275067     1.007825032070
           H         -0.275670120603     1.414220792325     1.731289275067     1.007825032070
           H          0.328960879397    -2.007047207675     0.338779275067     1.007825032070
           H          1.439364879397    -1.181882207675     1.425522275067     1.007825032070
           H         -0.280580120603    -1.128269207675     1.735311275067     1.007825032070

  Running in c1 symmetry.

  Rotational constants: A =      0.14823  B =      0.09170  C =      0.09109 [cm^-1]
  Rotational constants: A =   4443.81098  B =   2749.01044  C =   2730.83446 [MHz]
  Nuclear repulsion =  272.538033720192516

  Charge       = 0
  Multiplicity = 1
  Electrons    = 50
  Nalpha       = 25
  Nbeta        = 25

  ==> Algorithm <==

  SCF Algorithm Type is DF.
  DIIS enabled.
  MOM disabled.
  Fractional occupation disabled.
  Guess Type is CORE.
  Energy threshold   = 1.00e-06
  Density threshold  = 1.00e-06
  Integral threshold = 0.00e+00

  ==> Primary Basis <==

  Basis Set: 6-31G*
    Number of shells: 60
    Number of basis function: 114
    Number of Cartesian functions: 114
    Spherical Harmonics?: false
    Max angular momentum: 2

  ==> Pre-Iterations <==

   -------------------------------------------------------
    Irrep   Nso     Nmo     Nalpha   Nbeta   Ndocc  Nsocc
   -------------------------------------------------------
     A        114     114       0       0       0       0
   -------------------------------------------------------
    Total     114     114      25      25      25       0
   -------------------------------------------------------

 OEINTS: Overlap, kinetic, potential, dipole, and quadrupole integrals
         stored in file 35.

  ==> Integral Setup <==

  ==> DFJK: Density-Fitted J/K Matrices <==

    J tasked:                  Yes
    K tasked:                  Yes
    wK tasked:                  No
    OpenMP threads:              1
    Integrals threads:           1
    Memory (MB):              1430
    Algorithm:                Core
    Integral Cache:           NONE
    Schwarz Cutoff:          1E-12
    Fitting Condition:       1E-12

   => Auxiliary Basis Set <=

  Basis Set: 
    Number of shells: 252
    Number of basis function: 786
    Number of Cartesian functions: 786
    Spherical Harmonics?: false
    Max angular momentum: 3

  Minimum eigenvalue in the overlap matrix is 3.0806418041E-03.
  Using Symmetric Orthogonalization.
  SCF Guess: Core (One-Electron) Hamiltonian.

  ==> Iterations <==

                           Total Energy        Delta E     RMS |[F,P]|

   @DF-RHF iter   1:  -177.68352450763660   -1.77684e+02   9.83870e-02 
   @DF-RHF iter   2:  -221.21193420515152   -4.35284e+01   4.61341e-02 DIIS
   @DF-RHF iter   3:  -240.36598892483516   -1.91541e+01   5.92439e-02 DIIS
   @DF-RHF iter   4:  -260.72596665112951   -2.03600e+01   3.77503e-02 DIIS
   @DF-RHF iter   5:  -266.46575076289537   -5.73978e+00   2.59618e-02 DIIS
   @DF-RHF iter   6:  -270.13441948042055   -3.66867e+00   1.25818e-02 DIIS
   @DF-RHF iter   7:  -271.01041710260529   -8.75998e-01   4.80622e-03 DIIS
   @DF-RHF iter   8:  -271.14924783193214   -1.38831e-01   1.74233e-03 DIIS
   @DF-RHF iter   9:  -271.16935488714137   -2.01071e-02   3.57919e-04 DIIS
   @DF-RHF iter  10:  -271.17027259028737   -9.17703e-04   1.00014e-04 DIIS
   @DF-RHF iter  11:  -271.17038449700283   -1.11907e-04   4.18145e-05 DIIS
   @DF-RHF iter  12:  -271.17039940892346   -1.49119e-05   9.09080e-06 DIIS
   @DF-RHF iter  13:  -271.17040063420052   -1.22528e-06   2.04092e-06 DIIS
   @DF-RHF iter  14:  -271.17040068847882   -5.42783e-08   6.29929e-07 DIIS

  ==> Post-Iterations <==

    Orbital Energies (a.u.)
    -----------------------

    Doubly Occupied:                                                      

       1A    -20.545408     2A    -11.281168     3A    -11.261149  
       4A    -11.212344     5A    -11.206180     6A    -11.201915  
       7A     -1.369949     8A     -1.072610     9A     -0.952381  
      10A     -0.935525    11A     -0.911346    12A     -0.751248  
      13A     -0.658882    14A     -0.647644    15A     -0.637169  
      16A     -0.583092    17A     -0.577091    18A     -0.549788  
      19A     -0.536821    20A     -0.525314    21A     -0.515356  
      22A     -0.491020    23A     -0.485940    24A     -0.440775  
      25A     -0.398200  

    Virtual:                                                              

      26A      0.216723    27A      0.261431    28A      0.280419  
      29A      0.283000    30A      0.304205    31A      0.314672  
      32A      0.319164    33A      0.340877    34A      0.352323  
      35A      0.358360    36A      0.367322    37A      0.372978  
      38A      0.390681    39A      0.402281    40A      0.429085  
      41A      0.442384    42A      0.482800    43A      0.699651  
      44A      0.711590    45A      0.730103    46A      0.768570  
      47A      0.778004    48A      0.809350    49A      0.835555  
      50A      0.876580    51A      0.905931    52A      0.919822  
      53A      0.935690    54A      0.989307    55A      1.011586  
      56A      1.090540    57A      1.105076    58A      1.114025  
      59A      1.142679    60A      1.154672    61A      1.173137  
      62A      1.187732    63A      1.193308    64A      1.198503  
      65A      1.219644    66A      1.226320    67A      1.232059  
      68A      1.256429    69A      1.271080    70A      1.294353  
      71A      1.322554    72A      1.433232    73A      1.476057  
      74A      1.605064    75A      1.648430    76A      1.657756  
      77A      1.679970    78A      1.728448    79A      1.900087  
      80A      1.939990    81A      1.990333    82A      2.023605  
      83A      2.072020    84A      2.115114    85A      2.181722  
      86A      2.204238    87A      2.246523    88A      2.314026  
      89A      2.401878    90A      2.407039    91A      2.452382  
      92A      2.474814    93A      2.497355    94A      2.544019  
      95A      2.580755    96A      2.595206    97A      2.611616  
      98A      2.625139    99A      2.643309   100A      2.732437  
     101A      2.764672   102A      2.772630   103A      2.951394  
     104A      2.980248   105A      3.053987   106A      3.104364  
     107A      3.280207   108A      3.337542   109A      4.435516  
     110A      4.640093   111A      4.689532   112A      4.754882  
     113A      4.781533   114A      5.085842  

    Final Occupation by Irrep:
              A 
    DOCC [    25 ]

  Energy converged.

  @DF-RHF Final Energy:  -271.17040068847882

   => Energetics <=

    Nuclear Repulsion Energy =            272.5380337201925158
    One-Electron Energy =                -907.9202619874637321
    Two-Electron Energy =                 364.2118275787924517
    DFT Exchange-Correlation Energy =       0.0000000000000000
    Empirical Dispersion Energy =           0.0000000000000000
    PCM Polarization Energy =               0.0000000000000000
    EFP Energy =                            0.0000000000000000
    Total Energy =                       -271.1704006884787646

    Alert: EFP and PCM quantities not currently incorporated into SCF psivars.

Properties will be evaluated at   0.000000,   0.000000,   0.000000 Bohr
  ==> Properties <==


Properties computed using the SCF density matrix

  Nuclear Dipole Moment: (a.u.)
     X:     1.5986      Y:    -1.1869      Z:     2.4919

  Electronic Dipole Moment: (a.u.)
     X:    -1.5781      Y:     0.8664      Z:    -2.0466

  Dipole Moment: (a.u.)
     X:     0.0205      Y:    -0.3206      Z:     0.4453     Total:     0.5491

  Dipole Moment: (Debye)
     X:     0.0522      Y:    -0.8148      Z:     1.1319     Total:     1.3956


  Saving occupied orbitals to File 180.

*** tstop() called on cx1-1-4-3.cx1.hpc.ic.ac.uk at Tue Jul  5 16:40:52 2016
Module time:
	user time   =       8.74 seconds =       0.15 minutes
	system time =       0.06 seconds =       0.00 minutes
	total time  =         10 seconds =       0.17 minutes
Total time:
	user time   =       8.74 seconds =       0.15 minutes
	system time =       0.06 seconds =       0.00 minutes
	total time  =         10 seconds =       0.17 minutes


Properties will be evaluated at   0.000000,   0.000000,   0.000000 Bohr

Properties computed using the  density matrix

  Nuclear Dipole Moment: (a.u.)
     X:     1.5986      Y:    -1.1869      Z:     2.4919

  Electronic Dipole Moment: (a.u.)
     X:    -1.5781      Y:     0.8664      Z:    -2.0466

  Dipole Moment: (a.u.)
     X:     0.0205      Y:    -0.3206      Z:     0.4453     Total:     0.5491

  Dipole Moment: (Debye)
     X:     0.0522      Y:    -0.8148      Z:     1.1319     Total:     1.3956

  Quadrupole Moment: (Debye Ang)
    XX:   -37.8701     YY:   -39.7300     ZZ:   -41.1536
    XY:     1.4925     XZ:    -0.4156     YZ:     0.5367

  Traceless Quadrupole Moment: (Debye Ang)
    XX:     1.7145     YY:    -0.1454     ZZ:    -1.5690
    XY:     1.4925     XZ:    -0.4156     YZ:     0.5367

  Mulliken Charges: (a.u.)
   Center  Symbol    Alpha    Beta     Spin     Total
       1     H     0.43077  0.43077  0.00000  0.13846
       2     C     3.07770  3.07770  0.00000 -0.15540
       3     O     4.32296  4.32296  0.00000 -0.64593
       4     H     0.41207  0.41207  0.00000  0.17585
       5     H     0.42874  0.42874  0.00000  0.14252
       6     C     2.83737  2.83737  0.00000  0.32525
       7     C     3.23037  3.23037  0.00000 -0.46074
       8     C     3.23812  3.23812  0.00000 -0.47624
       9     C     3.26097  3.26097  0.00000 -0.52194
      10     H     0.41386  0.41386  0.00000  0.17229
      11     H     0.41767  0.41767  0.00000  0.16466
      12     H     0.42703  0.42703  0.00000  0.14594
      13     H     0.41290  0.41290  0.00000  0.17420
      14     H     0.42314  0.42314  0.00000  0.15373
      15     H     0.42103  0.42103  0.00000  0.15794
      16     H     0.41405  0.41405  0.00000  0.17190
      17     H     0.41450  0.41450  0.00000  0.17099
      18     H     0.41674  0.41674  0.00000  0.16651

   Total alpha = 25.00000, Total beta = 25.00000, Total charge =  0.00000


*** PSI4 exiting successfully. Buy a developer a beer!
