    -----------------------------------------------------------------------
          Psi4: An Open-Source Ab Initio Electronic Structure Package
                              Psi4 (no tag) Driver

                          Git: Rev {detached?}  

    J. M. Turney, A. C. Simmonett, R. M. Parrish, E. G. Hohenstein,
    F. A. Evangelista, J. T. Fermann, B. J. Mintz, L. A. Burns, J. J. Wilke,
    M. L. Abrams, N. J. Russ, M. L. Leininger, C. L. Janssen, E. T. Seidl,
    W. D. Allen, H. F. Schaefer, R. A. King, E. F. Valeev, C. D. Sherrill,
    and T. D. Crawford, WIREs Comput. Mol. Sci. 2, 556-565 (2012)
    (doi: 10.1002/wcms.93)

                         Additional Contributions by
    A. E. DePrince, M. Saitow, U. Bozkaya, A. Yu. Sokolov
    -----------------------------------------------------------------------


    Psi4 started on: Tue Jul  5 16:29:50 2016

    Process ID:  28500
    PSI4DATADIR: /export131/home/mjharvey/miniconda3/share
    Memory level set to 256.000 MB

  ==> Input File <==

--------------------------------------------------------------------------
set {
	reference rhf
	basis 6-31G*
}


set_num_threads( 1 )
memory 2 gb

molecule MOL {
0 1

H	 -3.406877	 1.853657	 -0.660606
O	 -2.701909	 1.266301	 -0.892852
C	 -2.306886	 0.532354	 0.237577
C	 -1.177863	 -0.397191	 -0.171080
H	 -1.971777	 1.200187	 1.030048
H	 -3.142283	 -0.045917	 0.630075
C	 0.198102	 0.111031	 0.262842
H	 -1.208843	 -0.518759	 -1.250427
H	 -1.368741	 -1.376554	 0.258909
C	 1.331804	 -0.827780	 -0.158768
H	 0.361943	 1.100838	 -0.156218
H	 0.217265	 0.229072	 1.345532
C	 2.723619	 -0.410569	 0.329459
H	 1.342964	 -0.912588	 -1.244120
H	 1.116806	 -1.824343	 0.220779
C	 3.243875	 0.895854	 -0.272975
H	 3.424222	 -1.207124	 0.091250
H	 2.714788	 -0.329854	 1.414619
H	 3.251977	 0.848779	 -1.358681
H	 2.637085	 1.747371	 0.016682
H	 4.259473	 1.094070	 0.055697

	symmetry c1
}
set optking {
	frozen_dihedral = ("
		8 4 7 10,
		4 7 10 14,
		16 13 10 14,
		1 2 3 5
	")
}

ee = energy('scf')
oeprop('DIPOLE', 'QUADRUPOLE', 'MULLIKEN_CHARGES')
f=open( 'psi4out.xyz', 'w' )
f.write( "21  " )
f.write( str(ee) + "\n" )
f.write( MOL.save_string_xyz() )
f.close()
--------------------------------------------------------------------------

  Memory set to   2.000 GiB by Python script.

*** tstart() called on cx1-3-2-3.cx1.hpc.ic.ac.uk
*** at Tue Jul  5 16:29:50 2016


         ---------------------------------------------------------
                                   SCF
            by Justin Turney, Rob Parrish, and Andy Simmonett
                              RHF Reference
                        1 Threads,   2000 MiB Core
         ---------------------------------------------------------

  ==> Geometry <==

    Molecular point group: c1
    Full point group: C1

    Geometry (in Angstrom), charge = 0, multiplicity = 1:

       Center              X                  Y                   Z               Mass       
    ------------   -----------------  -----------------  -----------------  -----------------
           H         -3.536424660877     1.648258099892    -0.551308007546     1.007825032070
           O         -2.831456660877     1.060902099892    -0.783554007546    15.994914619560
           C         -2.436433660877     0.326955099892     0.346874992454    12.000000000000
           C         -1.307410660877    -0.602589900108    -0.061782007546    12.000000000000
           H         -2.101324660877     0.994788099892     1.139345992454     1.007825032070
           H         -3.271830660877    -0.251315900108     0.739372992454     1.007825032070
           C          0.068554339123    -0.094367900108     0.372139992454    12.000000000000
           H         -1.338390660877    -0.724157900108    -1.141129007546     1.007825032070
           H         -1.498288660877    -1.581952900108     0.368206992454     1.007825032070
           C          1.202256339123    -1.033178900108    -0.049470007546    12.000000000000
           H          0.232395339123     0.895439099892    -0.046920007546     1.007825032070
           H          0.087717339123     0.023673099892     1.454829992454     1.007825032070
           C          2.594071339123    -0.615967900108     0.438756992454    12.000000000000
           H          1.213416339123    -1.117986900108    -1.134822007546     1.007825032070
           H          0.987258339123    -2.029741900108     0.330076992454     1.007825032070
           C          3.114327339123     0.690455099892    -0.163677007546    12.000000000000
           H          3.294674339123    -1.412522900108     0.200547992454     1.007825032070
           H          2.585240339123    -0.535252900108     1.523916992454     1.007825032070
           H          3.122429339123     0.643380099892    -1.249383007546     1.007825032070
           H          2.507537339123     1.541972099892     0.125979992454     1.007825032070
           H          4.129925339123     0.888671099892     0.164994992454     1.007825032070

  Running in c1 symmetry.

  Rotational constants: A =      0.20433  B =      0.03062  C =      0.02847 [cm^-1]
  Rotational constants: A =   6125.69511  B =    917.95591  C =    853.50122 [MHz]
  Nuclear repulsion =  315.054018380863624

  Charge       = 0
  Multiplicity = 1
  Electrons    = 58
  Nalpha       = 29
  Nbeta        = 29

  ==> Algorithm <==

  SCF Algorithm Type is DF.
  DIIS enabled.
  MOM disabled.
  Fractional occupation disabled.
  Guess Type is CORE.
  Energy threshold   = 1.00e-06
  Density threshold  = 1.00e-06
  Integral threshold = 0.00e+00

  ==> Primary Basis <==

  Basis Set: 6-31G*
    Number of shells: 70
    Number of basis function: 133
    Number of Cartesian functions: 133
    Spherical Harmonics?: false
    Max angular momentum: 2

  ==> Pre-Iterations <==

   -------------------------------------------------------
    Irrep   Nso     Nmo     Nalpha   Nbeta   Ndocc  Nsocc
   -------------------------------------------------------
     A        133     133       0       0       0       0
   -------------------------------------------------------
    Total     133     133      29      29      29       0
   -------------------------------------------------------

 OEINTS: Overlap, kinetic, potential, dipole, and quadrupole integrals
         stored in file 35.

  ==> Integral Setup <==

  ==> DFJK: Density-Fitted J/K Matrices <==

    J tasked:                  Yes
    K tasked:                  Yes
    wK tasked:                  No
    OpenMP threads:              1
    Integrals threads:           1
    Memory (MB):              1430
    Algorithm:                Core
    Integral Cache:           NONE
    Schwarz Cutoff:          1E-12
    Fitting Condition:       1E-12

   => Auxiliary Basis Set <=

  Basis Set: 
    Number of shells: 294
    Number of basis function: 917
    Number of Cartesian functions: 917
    Spherical Harmonics?: false
    Max angular momentum: 3

  Minimum eigenvalue in the overlap matrix is 3.4133506239E-03.
  Using Symmetric Orthogonalization.
  SCF Guess: Core (One-Electron) Hamiltonian.

  ==> Iterations <==

                           Total Energy        Delta E     RMS |[F,P]|

   @DF-RHF iter   1:  -235.74361448122403   -2.35744e+02   6.63931e-02 
   @DF-RHF iter   2:   -92.76172431064100    1.42982e+02   7.66503e-02 DIIS
   @DF-RHF iter   3:  -241.10085744487395   -1.48339e+02   4.55262e-02 DIIS
   @DF-RHF iter   4:  -198.40824472785192    4.26926e+01   6.87491e-02 DIIS
   @DF-RHF iter   5:  -306.14918233566419   -1.07741e+02   1.56153e-02 DIIS
   @DF-RHF iter   6:  -309.93238674763342   -3.78320e+00   5.49072e-03 DIIS
   @DF-RHF iter   7:  -310.18780087047145   -2.55414e-01   1.41166e-03 DIIS
   @DF-RHF iter   8:  -310.20570972789102   -1.79089e-02   3.71242e-04 DIIS
   @DF-RHF iter   9:  -310.20774816343163   -2.03844e-03   1.16414e-04 DIIS
   @DF-RHF iter  10:  -310.20791687765865   -1.68714e-04   4.35884e-05 DIIS
   @DF-RHF iter  11:  -310.20794123289062   -2.43552e-05   1.13662e-05 DIIS
   @DF-RHF iter  12:  -310.20794342127277   -2.18838e-06   3.95808e-06 DIIS
   @DF-RHF iter  13:  -310.20794369892127   -2.77648e-07   9.30330e-07 DIIS

  ==> Post-Iterations <==

    Orbital Energies (a.u.)
    -----------------------

    Doubly Occupied:                                                      

       1A    -20.551513     2A    -11.265959     3A    -11.212937  
       4A    -11.211517     5A    -11.210439     6A    -11.209388  
       7A    -11.205583     8A     -1.358639     9A     -1.083444  
      10A     -1.031330    11A     -0.953226    12A     -0.874614  
      13A     -0.804973    14A     -0.776454    15A     -0.704020  
      16A     -0.639958    17A     -0.626820    18A     -0.601380  
      19A     -0.590953    20A     -0.561202    21A     -0.540260  
      22A     -0.518119    23A     -0.504877    24A     -0.493161  
      25A     -0.477851    26A     -0.458910    27A     -0.455270  
      28A     -0.443646    29A     -0.424013  

    Virtual:                                                              

      30A      0.227979    31A      0.233077    32A      0.263176  
      33A      0.272973    34A      0.277981    35A      0.298213  
      36A      0.309180    37A      0.317031    38A      0.329272  
      39A      0.337106    40A      0.343079    41A      0.359618  
      42A      0.372494    43A      0.376328    44A      0.391670  
      45A      0.427018    46A      0.434743    47A      0.447154  
      48A      0.472099    49A      0.497043    50A      0.708112  
      51A      0.713697    52A      0.733461    53A      0.743470  
      54A      0.764822    55A      0.802156    56A      0.811507  
      57A      0.856481    58A      0.877452    59A      0.934824  
      60A      0.945229    61A      0.954415    62A      0.981479  
      63A      1.005683    64A      1.036911    65A      1.064217  
      66A      1.102252    67A      1.129684    68A      1.131343  
      69A      1.142859    70A      1.158070    71A      1.161443  
      72A      1.168602    73A      1.189596    74A      1.193842  
      75A      1.206810    76A      1.218800    77A      1.224504  
      78A      1.240522    79A      1.257011    80A      1.266971  
      81A      1.281687    82A      1.291783    83A      1.317391  
      84A      1.362427    85A      1.439595    86A      1.522779  
      87A      1.551039    88A      1.684649    89A      1.733897  
      90A      1.755656    91A      1.792563    92A      1.847791  
      93A      1.909020    94A      1.946668    95A      1.977294  
      96A      2.029625    97A      2.051613    98A      2.123256  
      99A      2.156069   100A      2.187620   101A      2.229768  
     102A      2.264379   103A      2.282062   104A      2.299215  
     105A      2.327177   106A      2.343160   107A      2.372825  
     108A      2.444631   109A      2.468504   110A      2.501088  
     111A      2.573178   112A      2.634682   113A      2.663313  
     114A      2.680036   115A      2.710624   116A      2.736050  
     117A      2.767197   118A      2.815479   119A      2.841078  
     120A      2.902897   121A      2.953131   122A      2.979193  
     123A      2.998064   124A      3.106518   125A      3.171171  
     126A      3.236360   127A      4.183023   128A      4.554519  
     129A      4.639189   130A      4.747580   131A      4.838108  
     132A      4.906204   133A      5.012675  

    Final Occupation by Irrep:
              A 
    DOCC [    29 ]

  Energy converged.

  @DF-RHF Final Energy:  -310.20794369892127

   => Energetics <=

    Nuclear Repulsion Energy =            315.0540183808636243
    One-Electron Energy =               -1044.9428240283191371
    Two-Electron Energy =                 419.6808619485350391
    DFT Exchange-Correlation Energy =       0.0000000000000000
    Empirical Dispersion Energy =           0.0000000000000000
    PCM Polarization Energy =               0.0000000000000000
    EFP Energy =                            0.0000000000000000
    Total Energy =                       -310.2079436989204169

    Alert: EFP and PCM quantities not currently incorporated into SCF psivars.

Properties will be evaluated at   0.000000,   0.000000,   0.000000 Bohr
  ==> Properties <==


Properties computed using the SCF density matrix

  Nuclear Dipole Moment: (a.u.)
     X:     5.9996      Y:    -0.9481      Z:     1.7997

  Electronic Dipole Moment: (a.u.)
     X:    -6.2643      Y:     1.0010      Z:    -1.2173

  Dipole Moment: (a.u.)
     X:    -0.2647      Y:     0.0529      Z:     0.5824     Total:     0.6419

  Dipole Moment: (Debye)
     X:    -0.6728      Y:     0.1345      Z:     1.4803     Total:     1.6315


  Saving occupied orbitals to File 180.

*** tstop() called on cx1-3-2-3.cx1.hpc.ic.ac.uk at Tue Jul  5 16:30:04 2016
Module time:
	user time   =      13.51 seconds =       0.23 minutes
	system time =       0.07 seconds =       0.00 minutes
	total time  =         14 seconds =       0.23 minutes
Total time:
	user time   =      13.51 seconds =       0.23 minutes
	system time =       0.07 seconds =       0.00 minutes
	total time  =         14 seconds =       0.23 minutes


Properties will be evaluated at   0.000000,   0.000000,   0.000000 Bohr

Properties computed using the  density matrix

  Nuclear Dipole Moment: (a.u.)
     X:     5.9996      Y:    -0.9481      Z:     1.7997

  Electronic Dipole Moment: (a.u.)
     X:    -6.2643      Y:     1.0010      Z:    -1.2173

  Dipole Moment: (a.u.)
     X:    -0.2647      Y:     0.0529      Z:     0.5824     Total:     0.6419

  Dipole Moment: (Debye)
     X:    -0.6728      Y:     0.1345      Z:     1.4803     Total:     1.6315

  Quadrupole Moment: (Debye Ang)
    XX:   -42.1321     YY:   -45.4749     ZZ:   -48.2846
    XY:    -2.8079     XZ:    -3.8843     YZ:     1.1696

  Traceless Quadrupole Moment: (Debye Ang)
    XX:     3.1651     YY:    -0.1777     ZZ:    -2.9874
    XY:    -2.8079     XZ:    -3.8843     YZ:     1.1696

  Mulliken Charges: (a.u.)
   Center  Symbol    Alpha    Beta     Spin     Total
       1     H     0.28199  0.28199  0.00000  0.43603
       2     O     4.37041  4.37041  0.00000 -0.74081
       3     C     2.99660  2.99660  0.00000  0.00680
       4     C     3.16203  3.16203  0.00000 -0.32406
       5     H     0.43040  0.43040  0.00000  0.13920
       6     H     0.43075  0.43075  0.00000  0.13850
       7     C     3.16016  3.16016  0.00000 -0.32033
       8     H     0.40481  0.40481  0.00000  0.19038
       9     H     0.42262  0.42262  0.00000  0.15475
      10     C     3.15306  3.15306  0.00000 -0.30612
      11     H     0.41463  0.41463  0.00000  0.17074
      12     H     0.42622  0.42622  0.00000  0.14756
      13     C     3.15224  3.15224  0.00000 -0.30449
      14     H     0.42264  0.42264  0.00000  0.15473
      15     H     0.42327  0.42327  0.00000  0.15345
      16     C     3.24104  3.24104  0.00000 -0.48207
      17     H     0.42141  0.42141  0.00000  0.15718
      18     H     0.42427  0.42427  0.00000  0.15147
      19     H     0.42155  0.42155  0.00000  0.15690
      20     H     0.41993  0.41993  0.00000  0.16013
      21     H     0.41996  0.41996  0.00000  0.16007

   Total alpha = 29.00000, Total beta = 29.00000, Total charge = -0.00000


*** PSI4 exiting successfully. Buy a developer a beer!
