    -----------------------------------------------------------------------
          Psi4: An Open-Source Ab Initio Electronic Structure Package
                              Psi4 (no tag) Driver

                          Git: Rev {detached?}  

    J. M. Turney, A. C. Simmonett, R. M. Parrish, E. G. Hohenstein,
    F. A. Evangelista, J. T. Fermann, B. J. Mintz, L. A. Burns, J. J. Wilke,
    M. L. Abrams, N. J. Russ, M. L. Leininger, C. L. Janssen, E. T. Seidl,
    W. D. Allen, H. F. Schaefer, R. A. King, E. F. Valeev, C. D. Sherrill,
    and T. D. Crawford, WIREs Comput. Mol. Sci. 2, 556-565 (2012)
    (doi: 10.1002/wcms.93)

                         Additional Contributions by
    A. E. DePrince, M. Saitow, U. Bozkaya, A. Yu. Sokolov
    -----------------------------------------------------------------------


    Psi4 started on: Tue Jul  5 16:30:31 2016

    Process ID:   1293
    PSI4DATADIR: /export131/home/mjharvey/miniconda3/share
    Memory level set to 256.000 MB

  ==> Input File <==

--------------------------------------------------------------------------
set {
	reference rhf
	basis 6-31G*
}


set_num_threads( 1 )
memory 2 gb

molecule MOL {
0 1

H	 -1.836216	 1.387520	 -0.000064
C	 -1.301823	 0.443321	 -0.000031
O	 -0.003969	 0.658512	 0.000451
O	 -1.829879	 -0.616434	 -0.000857
C	 0.850537	 -0.484732	 0.000380
C	 -0.011783	 -1.696025	 -0.281568
H	 1.339337	 -0.554620	 0.962413
H	 1.613596	 -0.350118	 -0.753884
H	 -0.775229	 -1.810474	 0.479409
H	 0.601916	 -2.590752	 -0.289956
H	 -0.499723	 -1.605133	 -1.245176

	symmetry c1
}
set optking {
	frozen_dihedral = ("
		5 3 2 4
	")
}

ee = energy('scf')
oeprop('DIPOLE', 'QUADRUPOLE', 'MULLIKEN_CHARGES')
f=open( 'psi4out.xyz', 'w' )
f.write( "11  " )
f.write( str(ee) + "\n" )
f.write( MOL.save_string_xyz() )
f.close()
--------------------------------------------------------------------------

  Memory set to   2.000 GiB by Python script.

*** tstart() called on cx1-3-6-1.cx1.hpc.ic.ac.uk
*** at Tue Jul  5 16:30:32 2016


         ---------------------------------------------------------
                                   SCF
            by Justin Turney, Rob Parrish, and Andy Simmonett
                              RHF Reference
                        1 Threads,   2000 MiB Core
         ---------------------------------------------------------

  ==> Geometry <==

    Molecular point group: c1
    Full point group: C1

    Geometry (in Angstrom), charge = 0, multiplicity = 1:

       Center              X                  Y                   Z               Mass       
    ------------   -----------------  -----------------  -----------------  -----------------
           H         -1.371015897677     1.735225523491     0.057137431354     1.007825032070
           C         -0.836622897677     0.791026523491     0.057170431354    12.000000000000
           O          0.461231102323     1.006217523491     0.057652431354    15.994914619560
           O         -1.364678897677    -0.268728476509     0.056344431354    15.994914619560
           C          1.315737102323    -0.137026476509     0.057581431354    12.000000000000
           C          0.453417102323    -1.348319476509    -0.224366568646    12.000000000000
           H          1.804537102323    -0.206914476509     1.019614431354     1.007825032070
           H          2.078796102323    -0.002412476509    -0.696682568646     1.007825032070
           H         -0.310028897677    -1.462768476509     0.536610431354     1.007825032070
           H          1.067116102323    -2.243046476509    -0.232754568646     1.007825032070
           H         -0.034522897677    -1.257427476509    -1.187974568646     1.007825032070

  Running in c1 symmetry.

  Rotational constants: A =      0.28626  B =      0.20294  C =      0.12483 [cm^-1]
  Rotational constants: A =   8581.80352  B =   6083.93391  C =   3742.37163 [MHz]
  Nuclear repulsion =  190.895982118510204

  Charge       = 0
  Multiplicity = 1
  Electrons    = 40
  Nalpha       = 20
  Nbeta        = 20

  ==> Algorithm <==

  SCF Algorithm Type is DF.
  DIIS enabled.
  MOM disabled.
  Fractional occupation disabled.
  Guess Type is CORE.
  Energy threshold   = 1.00e-06
  Density threshold  = 1.00e-06
  Integral threshold = 0.00e+00

  ==> Primary Basis <==

  Basis Set: 6-31G*
    Number of shells: 42
    Number of basis function: 87
    Number of Cartesian functions: 87
    Spherical Harmonics?: false
    Max angular momentum: 2

  ==> Pre-Iterations <==

   -------------------------------------------------------
    Irrep   Nso     Nmo     Nalpha   Nbeta   Ndocc  Nsocc
   -------------------------------------------------------
     A         87      87       0       0       0       0
   -------------------------------------------------------
    Total      87      87      20      20      20       0
   -------------------------------------------------------

 OEINTS: Overlap, kinetic, potential, dipole, and quadrupole integrals
         stored in file 35.

  ==> Integral Setup <==

  ==> DFJK: Density-Fitted J/K Matrices <==

    J tasked:                  Yes
    K tasked:                  Yes
    wK tasked:                  No
    OpenMP threads:              1
    Integrals threads:           1
    Memory (MB):              1430
    Algorithm:                Core
    Integral Cache:           NONE
    Schwarz Cutoff:          1E-12
    Fitting Condition:       1E-12

   => Auxiliary Basis Set <=

  Basis Set: 
    Number of shells: 174
    Number of basis function: 555
    Number of Cartesian functions: 555
    Spherical Harmonics?: false
    Max angular momentum: 3

  Minimum eigenvalue in the overlap matrix is 4.7450413357E-03.
  Using Symmetric Orthogonalization.
  SCF Guess: Core (One-Electron) Hamiltonian.

  ==> Iterations <==

                           Total Energy        Delta E     RMS |[F,P]|

   @DF-RHF iter   1:  -221.00352545805694   -2.21004e+02   8.18684e-02 
   @DF-RHF iter   2:  -186.78202476567716    3.42215e+01   7.23915e-02 DIIS
   @DF-RHF iter   3:  -232.76822060256447   -4.59862e+01   5.94207e-02 DIIS
   @DF-RHF iter   4:  -264.64268832904952   -3.18745e+01   2.35806e-02 DIIS
   @DF-RHF iter   5:  -266.53484071947378   -1.89215e+00   7.76939e-03 DIIS
   @DF-RHF iter   6:  -266.74165518783286   -2.06814e-01   1.86770e-03 DIIS
   @DF-RHF iter   7:  -266.75647339626005   -1.48182e-02   6.33497e-04 DIIS
   @DF-RHF iter   8:  -266.75869647136369   -2.22308e-03   2.06499e-04 DIIS
   @DF-RHF iter   9:  -266.75893405996771   -2.37589e-04   7.51056e-05 DIIS
   @DF-RHF iter  10:  -266.75898501533140   -5.09554e-05   2.83095e-05 DIIS
   @DF-RHF iter  11:  -266.75899186308789   -6.84776e-06   1.02981e-05 DIIS
   @DF-RHF iter  12:  -266.75899272550464   -8.62417e-07   4.41481e-06 DIIS
   @DF-RHF iter  13:  -266.75899289072856   -1.65224e-07   1.19060e-06 DIIS
   @DF-RHF iter  14:  -266.75899290501320   -1.42846e-08   3.43825e-07 DIIS

  ==> Post-Iterations <==

    Orbital Energies (a.u.)
    -----------------------

    Doubly Occupied:                                                      

       1A    -20.615595     2A    -20.547810     3A    -11.385260  
       4A    -11.290867     5A    -11.193164     6A     -1.485991  
       7A     -1.382192     8A     -1.044825     9A     -0.901783  
      10A     -0.820653    11A     -0.727825    12A     -0.697890  
      13A     -0.668566    14A     -0.608366    15A     -0.572260  
      16A     -0.557365    17A     -0.541140    18A     -0.497749  
      19A     -0.443578    20A     -0.399753  

    Virtual:                                                              

      21A      0.185779    22A      0.248380    23A      0.278333  
      24A      0.297641    25A      0.308493    26A      0.335691  
      27A      0.338506    28A      0.372441    29A      0.408684  
      30A      0.473481    31A      0.513492    32A      0.704171  
      33A      0.709591    34A      0.763025    35A      0.781040  
      36A      0.812635    37A      0.913446    38A      0.921225  
      39A      0.942662    40A      0.991650    41A      1.053044  
      42A      1.100537    43A      1.114209    44A      1.142576  
      45A      1.174824    46A      1.185942    47A      1.198155  
      48A      1.227863    49A      1.279423    50A      1.310251  
      51A      1.370232    52A      1.384604    53A      1.438634  
      54A      1.593669    55A      1.613526    56A      1.671076  
      57A      1.714759    58A      1.801432    59A      1.844854  
      60A      1.868423    61A      1.984257    62A      2.098243  
      63A      2.162942    64A      2.199058    65A      2.234917  
      66A      2.247355    67A      2.354000    68A      2.366318  
      69A      2.458330    70A      2.570458    71A      2.630407  
      72A      2.645568    73A      2.697857    74A      2.755350  
      75A      2.781043    76A      2.810501    77A      2.933969  
      78A      3.040301    79A      3.062851    80A      3.315735  
      81A      3.338768    82A      3.487612    83A      4.379912  
      84A      4.413292    85A      4.582724    86A      4.695847  
      87A      4.885679  

    Final Occupation by Irrep:
              A 
    DOCC [    20 ]

  Energy converged.

  @DF-RHF Final Energy:  -266.75899290501320

   => Energetics <=

    Nuclear Repulsion Energy =            190.8959821185102044
    One-Electron Energy =                -742.5446720250162116
    Two-Electron Energy =                 284.8896970014929479
    DFT Exchange-Correlation Energy =       0.0000000000000000
    Empirical Dispersion Energy =           0.0000000000000000
    PCM Polarization Energy =               0.0000000000000000
    EFP Energy =                            0.0000000000000000
    Total Energy =                       -266.7589929050130308

    Alert: EFP and PCM quantities not currently incorporated into SCF psivars.

Properties will be evaluated at   0.000000,   0.000000,   0.000000 Bohr
  ==> Properties <==


Properties computed using the SCF density matrix

  Nuclear Dipole Moment: (a.u.)
     X:     3.0283      Y:    -3.2189      Z:    -0.4720

  Electronic Dipole Moment: (a.u.)
     X:    -2.5368      Y:     3.6061      Z:     0.5053

  Dipole Moment: (a.u.)
     X:     0.4915      Y:     0.3872      Z:     0.0333     Total:     0.6266

  Dipole Moment: (Debye)
     X:     1.2493      Y:     0.9842      Z:     0.0847     Total:     1.5927


  Saving occupied orbitals to File 180.

*** tstop() called on cx1-3-6-1.cx1.hpc.ic.ac.uk at Tue Jul  5 16:30:36 2016
Module time:
	user time   =       3.82 seconds =       0.06 minutes
	system time =       0.03 seconds =       0.00 minutes
	total time  =          4 seconds =       0.07 minutes
Total time:
	user time   =       3.82 seconds =       0.06 minutes
	system time =       0.03 seconds =       0.00 minutes
	total time  =          4 seconds =       0.07 minutes


Properties will be evaluated at   0.000000,   0.000000,   0.000000 Bohr

Properties computed using the  density matrix

  Nuclear Dipole Moment: (a.u.)
     X:     3.0283      Y:    -3.2189      Z:    -0.4720

  Electronic Dipole Moment: (a.u.)
     X:    -2.5368      Y:     3.6061      Z:     0.5053

  Dipole Moment: (a.u.)
     X:     0.4915      Y:     0.3872      Z:     0.0333     Total:     0.6266

  Dipole Moment: (Debye)
     X:     1.2493      Y:     0.9842      Z:     0.0847     Total:     1.5927

  Quadrupole Moment: (Debye Ang)
    XX:   -30.7711     YY:   -30.9304     ZZ:   -29.1868
    XY:    -3.8514     XZ:     0.1030     YZ:    -0.2430

  Traceless Quadrupole Moment: (Debye Ang)
    XX:    -0.4750     YY:    -0.6343     ZZ:     1.1093
    XY:    -3.8514     XZ:     0.1030     YZ:    -0.2430

  Mulliken Charges: (a.u.)
   Center  Symbol    Alpha    Beta     Spin     Total
       1     H     0.40807  0.40807  0.00000  0.18386
       2     C     2.72288  2.72288  0.00000  0.55424
       3     O     4.29561  4.29561  0.00000 -0.59123
       4     O     4.26533  4.26533  0.00000 -0.53066
       5     C     2.99878  2.99878  0.00000  0.00244
       6     C     3.26656  3.26656  0.00000 -0.53312
       7     H     0.41191  0.41191  0.00000  0.17619
       8     H     0.40960  0.40960  0.00000  0.18081
       9     H     0.37955  0.37955  0.00000  0.24089
      10     H     0.42930  0.42930  0.00000  0.14139
      11     H     0.41241  0.41241  0.00000  0.17519

   Total alpha = 20.00000, Total beta = 20.00000, Total charge = -0.00000


*** PSI4 exiting successfully. Buy a developer a beer!
