    -----------------------------------------------------------------------
          Psi4: An Open-Source Ab Initio Electronic Structure Package
                              Psi4 (no tag) Driver

                          Git: Rev {detached?}  

    J. M. Turney, A. C. Simmonett, R. M. Parrish, E. G. Hohenstein,
    F. A. Evangelista, J. T. Fermann, B. J. Mintz, L. A. Burns, J. J. Wilke,
    M. L. Abrams, N. J. Russ, M. L. Leininger, C. L. Janssen, E. T. Seidl,
    W. D. Allen, H. F. Schaefer, R. A. King, E. F. Valeev, C. D. Sherrill,
    and T. D. Crawford, WIREs Comput. Mol. Sci. 2, 556-565 (2012)
    (doi: 10.1002/wcms.93)

                         Additional Contributions by
    A. E. DePrince, M. Saitow, U. Bozkaya, A. Yu. Sokolov
    -----------------------------------------------------------------------


    Psi4 started on: Tue Jul  5 16:49:12 2016

    Process ID:   1660
    PSI4DATADIR: /export131/home/mjharvey/miniconda3/share
    Memory level set to 256.000 MB

  ==> Input File <==

--------------------------------------------------------------------------
set {
	reference rhf
	basis 6-31G*
}


set_num_threads( 1 )
memory 2 gb

molecule MOL {
0 1

O	 -0.488453	 0.057968	 1.132425
C	 -0.451170	 -1.129930	 1.097049
C	 0.801727	 -1.959116	 0.945507
O	 -1.528589	 -1.897310	 1.185968
C	 1.124911	 -2.785238	 2.184071
H	 1.613075	 -1.280220	 0.700432
H	 0.669725	 -2.590969	 0.072237
H	 1.272053	 -2.149836	 3.048928
H	 2.030738	 -3.360307	 2.024106
H	 0.320287	 -3.472711	 2.414906
C	 -2.627457	 -1.589670	 0.334353
C	 -3.212621	 -0.275169	 0.805502
H	 -3.350950	 -2.391653	 0.388810
H	 -2.275881	 -1.527799	 -0.686508
H	 -3.555052	 -0.352087	 1.831164
H	 -4.056996	 -0.001741	 0.181070
H	 -2.474187	 0.516591	 0.749943

	symmetry c1
}
set optking {
	frozen_dihedral = ("
		2 4 11 13,
		4 2 3 6
	")
}

ee = energy('scf')
oeprop('DIPOLE', 'QUADRUPOLE', 'MULLIKEN_CHARGES')
f=open( 'psi4out.xyz', 'w' )
f.write( "17  " )
f.write( str(ee) + "\n" )
f.write( MOL.save_string_xyz() )
f.close()
--------------------------------------------------------------------------

  Memory set to   2.000 GiB by Python script.

*** tstart() called on cx1-3-16-4.cx1.hpc.ic.ac.uk
*** at Tue Jul  5 16:49:13 2016


         ---------------------------------------------------------
                                   SCF
            by Justin Turney, Rob Parrish, and Andy Simmonett
                              RHF Reference
                        1 Threads,   2000 MiB Core
         ---------------------------------------------------------

  ==> Geometry <==

    Molecular point group: c1
    Full point group: C1

    Geometry (in Angstrom), charge = 0, multiplicity = 1:

       Center              X                  Y                   Z               Mass       
    ------------   -----------------  -----------------  -----------------  -----------------
           O          0.437611882795     1.420101062132     0.032283851745    15.994914619560
           C          0.474894882795     0.232203062132    -0.003092148255    12.000000000000
           C          1.727791882795    -0.596982937868    -0.154634148255    12.000000000000
           O         -0.602524117205    -0.535176937868     0.085826851745    15.994914619560
           C          2.050975882795    -1.423104937868     1.083929851745    12.000000000000
           H          2.539139882795     0.081913062132    -0.399709148255     1.007825032070
           H          1.595789882795    -1.228835937868    -1.027904148255     1.007825032070
           H          2.198117882795    -0.787702937868     1.948786851745     1.007825032070
           H          2.956802882795    -1.998173937868     0.923964851745     1.007825032070
           H          1.246351882795    -2.110577937868     1.314764851745     1.007825032070
           C         -1.701392117205    -0.227536937868    -0.765788148255    12.000000000000
           C         -2.286556117205     1.086964062132    -0.294639148255    12.000000000000
           H         -2.424885117205    -1.029519937868    -0.711331148255     1.007825032070
           H         -1.349816117205    -0.165665937868    -1.786649148255     1.007825032070
           H         -2.628987117205     1.010046062132     0.731022851745     1.007825032070
           H         -3.130931117205     1.360392062132    -0.919071148255     1.007825032070
           H         -1.548122117205     1.878724062132    -0.350198148255     1.007825032070

  Running in c1 symmetry.

  Rotational constants: A =      0.19286  B =      0.05370  C =      0.04667 [cm^-1]
  Rotational constants: A =   5781.87144  B =   1609.93207  C =   1399.16718 [MHz]
  Nuclear repulsion =  322.933152867250385

  Charge       = 0
  Multiplicity = 1
  Electrons    = 56
  Nalpha       = 28
  Nbeta        = 28

  ==> Algorithm <==

  SCF Algorithm Type is DF.
  DIIS enabled.
  MOM disabled.
  Fractional occupation disabled.
  Guess Type is CORE.
  Energy threshold   = 1.00e-06
  Density threshold  = 1.00e-06
  Integral threshold = 0.00e+00

  ==> Primary Basis <==

  Basis Set: 6-31G*
    Number of shells: 62
    Number of basis function: 125
    Number of Cartesian functions: 125
    Spherical Harmonics?: false
    Max angular momentum: 2

  ==> Pre-Iterations <==

   -------------------------------------------------------
    Irrep   Nso     Nmo     Nalpha   Nbeta   Ndocc  Nsocc
   -------------------------------------------------------
     A        125     125       0       0       0       0
   -------------------------------------------------------
    Total     125     125      28      28      28       0
   -------------------------------------------------------

 OEINTS: Overlap, kinetic, potential, dipole, and quadrupole integrals
         stored in file 35.

  ==> Integral Setup <==

  ==> DFJK: Density-Fitted J/K Matrices <==

    J tasked:                  Yes
    K tasked:                  Yes
    wK tasked:                  No
    OpenMP threads:              1
    Integrals threads:           1
    Memory (MB):              1430
    Algorithm:                Core
    Integral Cache:           NONE
    Schwarz Cutoff:          1E-12
    Fitting Condition:       1E-12

   => Auxiliary Basis Set <=

  Basis Set: 
    Number of shells: 258
    Number of basis function: 817
    Number of Cartesian functions: 817
    Spherical Harmonics?: false
    Max angular momentum: 3

  Minimum eigenvalue in the overlap matrix is 3.5190161064E-03.
  Using Symmetric Orthogonalization.
  SCF Guess: Core (One-Electron) Hamiltonian.

  ==> Iterations <==

                           Total Energy        Delta E     RMS |[F,P]|

   @DF-RHF iter   1:  -238.92333357693764   -2.38923e+02   8.17499e-02 
   @DF-RHF iter   2:  -228.53993407578383    1.03834e+01   6.53960e-02 DIIS
   @DF-RHF iter   3:  -314.06772584234972   -8.55278e+01   4.31894e-02 DIIS
   @DF-RHF iter   4:  -342.11507911187579   -2.80474e+01   1.36367e-02 DIIS
   @DF-RHF iter   5:  -341.31042289372027    8.04656e-01   1.76262e-02 DIIS
   @DF-RHF iter   6:  -344.77199152264785   -3.46157e+00   4.02072e-03 DIIS
   @DF-RHF iter   7:  -344.86818447016179   -9.61929e-02   1.67303e-03 DIIS
   @DF-RHF iter   8:  -344.88558105591147   -1.73966e-02   5.36187e-04 DIIS
   @DF-RHF iter   9:  -344.88835666336792   -2.77561e-03   1.95305e-04 DIIS
   @DF-RHF iter  10:  -344.88869565499391   -3.38992e-04   7.44390e-05 DIIS
   @DF-RHF iter  11:  -344.88874001757864   -4.43626e-05   2.12725e-05 DIIS
   @DF-RHF iter  12:  -344.88874501738195   -4.99980e-06   5.79847e-06 DIIS
   @DF-RHF iter  13:  -344.88874538814235   -3.70760e-07   1.77882e-06 DIIS
   @DF-RHF iter  14:  -344.88874544302365   -5.48813e-08   5.65551e-07 DIIS

  ==> Post-Iterations <==

    Orbital Energies (a.u.)
    -----------------------

    Doubly Occupied:                                                      

       1A    -20.589445     2A    -20.549505     3A    -11.374505  
       4A    -11.291513     5A    -11.237285     6A    -11.225700  
       7A    -11.202044     8A     -1.466808     9A     -1.364998  
      10A     -1.072185    11A     -1.023953    12A     -0.903472  
      13A     -0.871165    14A     -0.762227    15A     -0.701964  
      16A     -0.687607    17A     -0.651406    18A     -0.621345  
      19A     -0.600168    20A     -0.578108    21A     -0.554532  
      22A     -0.535562    23A     -0.529889    24A     -0.511942  
      25A     -0.501401    26A     -0.485256    27A     -0.446852  
      28A     -0.421002  

    Virtual:                                                              

      29A      0.176080    30A      0.237582    31A      0.271694  
      32A      0.281878    33A      0.300575    34A      0.305810  
      35A      0.311831    36A      0.320742    37A      0.323515  
      38A      0.331140    39A      0.349096    40A      0.365952  
      41A      0.406136    42A      0.421099    43A      0.447124  
      44A      0.521409    45A      0.585029    46A      0.708074  
      47A      0.729207    48A      0.731094    49A      0.735148  
      50A      0.749947    51A      0.781529    52A      0.802040  
      53A      0.819430    54A      0.871668    55A      0.918515  
      56A      0.920831    57A      0.959799    58A      0.982040  
      59A      1.006027    60A      1.057860    61A      1.083870  
      62A      1.103666    63A      1.144562    64A      1.147542  
      65A      1.163671    66A      1.169797    67A      1.184622  
      68A      1.200088    69A      1.206290    70A      1.223818  
      71A      1.238088    72A      1.278824    73A      1.299463  
      74A      1.344442    75A      1.350593    76A      1.413604  
      77A      1.438234    78A      1.468167    79A      1.592302  
      80A      1.622230    81A      1.648354    82A      1.725614  
      83A      1.792795    84A      1.829605    85A      1.886344  
      86A      1.926956    87A      1.953041    88A      2.031441  
      89A      2.068866    90A      2.090123    91A      2.132150  
      92A      2.173371    93A      2.191784    94A      2.220732  
      95A      2.248457    96A      2.267965    97A      2.286698  
      98A      2.335281    99A      2.396595   100A      2.415167  
     101A      2.500229   102A      2.576863   103A      2.584171  
     104A      2.629200   105A      2.668315   106A      2.682273  
     107A      2.698625   108A      2.730952   109A      2.776188  
     110A      2.850388   111A      2.928044   112A      2.971250  
     113A      3.019634   114A      3.163547   115A      3.187981  
     116A      3.353902   117A      3.394389   118A      3.528015  
     119A      4.416140   120A      4.533777   121A      4.645921  
     122A      4.670994   123A      4.744588   124A      4.872253  
     125A      4.963737  

    Final Occupation by Irrep:
              A 
    DOCC [    28 ]

  Energy converged.

  @DF-RHF Final Energy:  -344.88874544302365

   => Energetics <=

    Nuclear Repulsion Energy =            322.9331528672503850
    One-Electron Energy =               -1110.1200468709259894
    Two-Electron Energy =                 442.2981485606520664
    DFT Exchange-Correlation Energy =       0.0000000000000000
    Empirical Dispersion Energy =           0.0000000000000000
    PCM Polarization Energy =               0.0000000000000000
    EFP Energy =                            0.0000000000000000
    Total Energy =                       -344.8887454430235948

    Alert: EFP and PCM quantities not currently incorporated into SCF psivars.

Properties will be evaluated at   0.000000,   0.000000,   0.000000 Bohr
  ==> Properties <==


Properties computed using the SCF density matrix

  Nuclear Dipole Moment: (a.u.)
     X:    -0.5132      Y:    -2.7982      Z:    -0.2585

  Electronic Dipole Moment: (a.u.)
     X:     0.4535      Y:     1.9499      Z:    -0.1800

  Dipole Moment: (a.u.)
     X:    -0.0597      Y:    -0.8484      Z:    -0.4385     Total:     0.9568

  Dipole Moment: (Debye)
     X:    -0.1517      Y:    -2.1563      Z:    -1.1145     Total:     2.4320


  Saving occupied orbitals to File 180.

*** tstop() called on cx1-3-16-4.cx1.hpc.ic.ac.uk at Tue Jul  5 16:49:24 2016
Module time:
	user time   =      10.80 seconds =       0.18 minutes
	system time =       0.06 seconds =       0.00 minutes
	total time  =         11 seconds =       0.18 minutes
Total time:
	user time   =      10.80 seconds =       0.18 minutes
	system time =       0.06 seconds =       0.00 minutes
	total time  =         11 seconds =       0.18 minutes


Properties will be evaluated at   0.000000,   0.000000,   0.000000 Bohr

Properties computed using the  density matrix

  Nuclear Dipole Moment: (a.u.)
     X:    -0.5132      Y:    -2.7982      Z:    -0.2585

  Electronic Dipole Moment: (a.u.)
     X:     0.4535      Y:     1.9499      Z:    -0.1800

  Dipole Moment: (a.u.)
     X:    -0.0597      Y:    -0.8484      Z:    -0.4385     Total:     0.9568

  Dipole Moment: (Debye)
     X:    -0.1517      Y:    -2.1563      Z:    -1.1145     Total:     2.4320

  Quadrupole Moment: (Debye Ang)
    XX:   -38.9538     YY:   -47.8400     ZZ:   -41.6801
    XY:    -1.8385     XZ:     1.6393     YZ:     0.3455

  Traceless Quadrupole Moment: (Debye Ang)
    XX:     3.8709     YY:    -5.0154     ZZ:     1.1446
    XY:    -1.8385     XZ:     1.6393     YZ:     0.3455

  Mulliken Charges: (a.u.)
   Center  Symbol    Alpha    Beta     Spin     Total
       1     O     4.27367  4.27367  0.00000 -0.54735
       2     C     2.61582  2.61582  0.00000  0.76837
       3     C     3.19367  3.19367  0.00000 -0.38733
       4     O     4.31279  4.31279  0.00000 -0.62558
       5     C     3.24992  3.24992  0.00000 -0.49984
       6     H     0.40141  0.40141  0.00000  0.19718
       7     H     0.40817  0.40817  0.00000  0.18366
       8     H     0.41038  0.41038  0.00000  0.17923
       9     H     0.41236  0.41236  0.00000  0.17529
      10     H     0.40585  0.40585  0.00000  0.18831
      11     C     3.01078  3.01078  0.00000 -0.02155
      12     C     3.25790  3.25790  0.00000 -0.51580
      13     H     0.40573  0.40573  0.00000  0.18854
      14     H     0.41842  0.41842  0.00000  0.16315
      15     H     0.41500  0.41500  0.00000  0.17001
      16     H     0.42717  0.42717  0.00000  0.14565
      17     H     0.38097  0.38097  0.00000  0.23807

   Total alpha = 28.00000, Total beta = 28.00000, Total charge =  0.00000


*** PSI4 exiting successfully. Buy a developer a beer!
