    -----------------------------------------------------------------------
          Psi4: An Open-Source Ab Initio Electronic Structure Package
                              Psi4 (no tag) Driver

                          Git: Rev {detached?}  

    J. M. Turney, A. C. Simmonett, R. M. Parrish, E. G. Hohenstein,
    F. A. Evangelista, J. T. Fermann, B. J. Mintz, L. A. Burns, J. J. Wilke,
    M. L. Abrams, N. J. Russ, M. L. Leininger, C. L. Janssen, E. T. Seidl,
    W. D. Allen, H. F. Schaefer, R. A. King, E. F. Valeev, C. D. Sherrill,
    and T. D. Crawford, WIREs Comput. Mol. Sci. 2, 556-565 (2012)
    (doi: 10.1002/wcms.93)

                         Additional Contributions by
    A. E. DePrince, M. Saitow, U. Bozkaya, A. Yu. Sokolov
    -----------------------------------------------------------------------


    Psi4 started on: Tue Jul  5 16:43:34 2016

    Process ID:   6639
    PSI4DATADIR: /export131/home/mjharvey/miniconda3/share
    Memory level set to 256.000 MB

  ==> Input File <==

--------------------------------------------------------------------------
set {
	reference rhf
	basis 6-31G*
}


set_num_threads( 1 )
memory 2 gb

molecule MOL {
0 1

H	 2.845955	 -0.323208	 0.022310
C	 1.900140	 0.071967	 -0.330070
C	 0.778463	 -0.508087	 0.517968
H	 1.782469	 -0.206877	 -1.370777
H	 1.922247	 1.149867	 -0.254252
N	 -0.540928	 0.005139	 0.058438
H	 0.716718	 -1.581298	 0.454712
H	 0.859711	 -0.198647	 1.550086
O	 -0.716634	 0.106396	 -1.115508
O	 -1.337122	 0.280179	 0.903972

	symmetry c1
}
ee = energy('scf')
oeprop('DIPOLE', 'QUADRUPOLE', 'MULLIKEN_CHARGES')
f=open( 'psi4out.xyz', 'w' )
f.write( "10  " )
f.write( str(ee) + "\n" )
f.write( MOL.save_string_xyz() )
f.close()
--------------------------------------------------------------------------

  Memory set to   2.000 GiB by Python script.

*** tstart() called on cx1-3-16-3.cx1.hpc.ic.ac.uk
*** at Tue Jul  5 16:43:34 2016


         ---------------------------------------------------------
                                   SCF
            by Justin Turney, Rob Parrish, and Andy Simmonett
                              RHF Reference
                        1 Threads,   2000 MiB Core
         ---------------------------------------------------------

  ==> Geometry <==

    Molecular point group: c1
    Full point group: C1

    Geometry (in Angstrom), charge = 0, multiplicity = 1:

       Center              X                  Y                   Z               Mass       
    ------------   -----------------  -----------------  -----------------  -----------------
           H          2.847159497179    -0.321242367463     0.021046370816     1.007825032070
           C          1.901344497179     0.073932632537    -0.331333629184    12.000000000000
           C          0.779667497179    -0.506121367463     0.516704370816    12.000000000000
           H          1.783673497179    -0.204911367463    -1.372040629184     1.007825032070
           H          1.923451497179     1.151832632537    -0.255515629184     1.007825032070
           N         -0.539723502821     0.007104632537     0.057174370816    14.003074004780
           H          0.717922497179    -1.579332367463     0.453448370816     1.007825032070
           H          0.860915497179    -0.196681367463     1.548822370816     1.007825032070
           O         -0.715429502821     0.108361632537    -1.116771629184    15.994914619560
           O         -1.335917502821     0.282144632537     0.902708370816    15.994914619560

  Running in c1 symmetry.

  Rotational constants: A =      0.35129  B =      0.14313  C =      0.11127 [cm^-1]
  Rotational constants: A =  10531.53848  B =   4290.98333  C =   3335.74835 [MHz]
  Nuclear repulsion =  186.419704286016810

  Charge       = 0
  Multiplicity = 1
  Electrons    = 40
  Nalpha       = 20
  Nbeta        = 20

  ==> Algorithm <==

  SCF Algorithm Type is DF.
  DIIS enabled.
  MOM disabled.
  Fractional occupation disabled.
  Guess Type is CORE.
  Energy threshold   = 1.00e-06
  Density threshold  = 1.00e-06
  Integral threshold = 0.00e+00

  ==> Primary Basis <==

  Basis Set: 6-31G*
    Number of shells: 40
    Number of basis function: 85
    Number of Cartesian functions: 85
    Spherical Harmonics?: false
    Max angular momentum: 2

  ==> Pre-Iterations <==

   -------------------------------------------------------
    Irrep   Nso     Nmo     Nalpha   Nbeta   Ndocc  Nsocc
   -------------------------------------------------------
     A         85      85       0       0       0       0
   -------------------------------------------------------
    Total      85      85      20      20      20       0
   -------------------------------------------------------

 OEINTS: Overlap, kinetic, potential, dipole, and quadrupole integrals
         stored in file 35.

  ==> Integral Setup <==

  ==> DFJK: Density-Fitted J/K Matrices <==

    J tasked:                  Yes
    K tasked:                  Yes
    wK tasked:                  No
    OpenMP threads:              1
    Integrals threads:           1
    Memory (MB):              1430
    Algorithm:                Core
    Integral Cache:           NONE
    Schwarz Cutoff:          1E-12
    Fitting Condition:       1E-12

   => Auxiliary Basis Set <=

  Basis Set: 
    Number of shells: 165
    Number of basis function: 530
    Number of Cartesian functions: 530
    Spherical Harmonics?: false
    Max angular momentum: 3

  Minimum eigenvalue in the overlap matrix is 2.9968539337E-03.
  Using Symmetric Orthogonalization.
  SCF Guess: Core (One-Electron) Hamiltonian.

  ==> Iterations <==

                           Total Energy        Delta E     RMS |[F,P]|

   @DF-RHF iter   1:  -233.08410820482825   -2.33084e+02   8.60213e-02 
   @DF-RHF iter   2:  -168.46529328588682    6.46188e+01   1.01102e-01 DIIS
   @DF-RHF iter   3:  -269.41464576435135   -1.00949e+02   3.41510e-02 DIIS
   @DF-RHF iter   4:  -254.28475675303676    1.51299e+01   6.38036e-02 DIIS
   @DF-RHF iter   5:  -281.23124299716631   -2.69465e+01   1.93072e-02 DIIS
   @DF-RHF iter   6:  -282.29786256394254   -1.06662e+00   9.92841e-03 DIIS
   @DF-RHF iter   7:  -282.57799527416933   -2.80133e-01   5.88557e-03 DIIS
   @DF-RHF iter   8:  -282.68578841152760   -1.07793e-01   1.56361e-03 DIIS
   @DF-RHF iter   9:  -282.69830505711980   -1.25166e-02   5.57512e-04 DIIS
   @DF-RHF iter  10:  -282.69961306725986   -1.30801e-03   2.37556e-04 DIIS
   @DF-RHF iter  11:  -282.69997630115586   -3.63234e-04   6.64687e-05 DIIS
   @DF-RHF iter  12:  -282.70001170986041   -3.54087e-05   3.79318e-05 DIIS
   @DF-RHF iter  13:  -282.70002073879311   -9.02893e-06   1.44761e-05 DIIS
   @DF-RHF iter  14:  -282.70002265755807   -1.91876e-06   4.39254e-06 DIIS
   @DF-RHF iter  15:  -282.70002290347088   -2.45913e-07   1.21606e-06 DIIS
   @DF-RHF iter  16:  -282.70002292150593   -1.80351e-08   3.76501e-07 DIIS

  ==> Post-Iterations <==

    Orbital Energies (a.u.)
    -----------------------

    Doubly Occupied:                                                      

       1A    -20.603129     2A    -20.602885     3A    -15.849510  
       4A    -11.304228     5A    -11.247584     6A     -1.633064  
       7A     -1.418710     8A     -1.126658     9A     -0.965856  
      10A     -0.835165    11A     -0.762577    12A     -0.743172  
      13A     -0.726950    14A     -0.647935    15A     -0.590398  
      16A     -0.562431    17A     -0.541475    18A     -0.486713  
      19A     -0.478366    20A     -0.450800  

    Virtual:                                                              

      21A      0.118939    22A      0.225245    23A      0.268810  
      24A      0.279858    25A      0.294622    26A      0.320164  
      27A      0.328225    28A      0.375414    29A      0.527743  
      30A      0.605479    31A      0.689124    32A      0.705897  
      33A      0.746163    34A      0.760589    35A      0.850172  
      36A      0.857968    37A      0.928188    38A      1.002612  
      39A      1.021530    40A      1.064715    41A      1.087779  
      42A      1.110771    43A      1.126387    44A      1.144982  
      45A      1.180035    46A      1.205644    47A      1.230003  
      48A      1.241092    49A      1.290773    50A      1.295457  
      51A      1.350153    52A      1.387138    53A      1.582002  
      54A      1.602149    55A      1.724561    56A      1.738353  
      57A      1.799956    58A      1.947587    59A      2.059640  
      60A      2.077025    61A      2.113277    62A      2.139617  
      63A      2.149437    64A      2.203360    65A      2.272819  
      66A      2.291119    67A      2.390295    68A      2.422690  
      69A      2.499376    70A      2.565488    71A      2.630665  
      72A      2.685469    73A      2.772947    74A      2.857356  
      75A      2.887910    76A      3.076131    77A      3.218695  
      78A      3.269543    79A      3.284602    80A      3.492438  
      81A      4.070923    82A      4.202963    83A      4.273868  
      84A      4.608688    85A      4.819861  

    Final Occupation by Irrep:
              A 
    DOCC [    20 ]

  Energy converged.

  @DF-RHF Final Energy:  -282.70002292150593

   => Energetics <=

    Nuclear Repulsion Energy =            186.4197042860168096
    One-Electron Energy =                -755.0842298076504449
    Two-Electron Energy =                 285.9645026001273322
    DFT Exchange-Correlation Energy =       0.0000000000000000
    Empirical Dispersion Energy =           0.0000000000000000
    PCM Polarization Energy =               0.0000000000000000
    EFP Energy =                            0.0000000000000000
    Total Energy =                       -282.7000229215063314

    Alert: EFP and PCM quantities not currently incorporated into SCF psivars.

Properties will be evaluated at   0.000000,   0.000000,   0.000000 Bohr
  ==> Properties <==


Properties computed using the SCF density matrix

  Nuclear Dipole Moment: (a.u.)
     X:     7.6163      Y:    -1.0765      Z:     0.3698

  Electronic Dipole Moment: (a.u.)
     X:    -6.1308      Y:     0.5593      Z:     0.0243

  Dipole Moment: (a.u.)
     X:     1.4854      Y:    -0.5173      Z:     0.3941     Total:     1.6215

  Dipole Moment: (Debye)
     X:     3.7756      Y:    -1.3147      Z:     1.0017     Total:     4.1215


  Saving occupied orbitals to File 180.

*** tstop() called on cx1-3-16-3.cx1.hpc.ic.ac.uk at Tue Jul  5 16:43:39 2016
Module time:
	user time   =       4.35 seconds =       0.07 minutes
	system time =       0.03 seconds =       0.00 minutes
	total time  =          5 seconds =       0.08 minutes
Total time:
	user time   =       4.35 seconds =       0.07 minutes
	system time =       0.03 seconds =       0.00 minutes
	total time  =          5 seconds =       0.08 minutes


Properties will be evaluated at   0.000000,   0.000000,   0.000000 Bohr

Properties computed using the  density matrix

  Nuclear Dipole Moment: (a.u.)
     X:     7.6163      Y:    -1.0765      Z:     0.3698

  Electronic Dipole Moment: (a.u.)
     X:    -6.1308      Y:     0.5593      Z:     0.0243

  Dipole Moment: (a.u.)
     X:     1.4854      Y:    -0.5173      Z:     0.3941     Total:     1.6215

  Dipole Moment: (Debye)
     X:     3.7756      Y:    -1.3147      Z:     1.0017     Total:     4.1215

  Quadrupole Moment: (Debye Ang)
    XX:   -31.1170     YY:   -27.7273     ZZ:   -32.4448
    XY:     0.6156     XZ:     1.0799     YZ:    -0.4545

  Traceless Quadrupole Moment: (Debye Ang)
    XX:    -0.6873     YY:     2.7024     ZZ:    -2.0151
    XY:     0.6156     XZ:     1.0799     YZ:    -0.4545

  Mulliken Charges: (a.u.)
   Center  Symbol    Alpha    Beta     Spin     Total
       1     H     0.40839  0.40839  0.00000  0.18321
       2     C     3.25503  3.25503  0.00000 -0.51005
       3     C     3.09606  3.09606  0.00000 -0.19212
       4     H     0.39316  0.39316  0.00000  0.21369
       5     H     0.40364  0.40364  0.00000  0.19271
       6     N     3.21817  3.21817  0.00000  0.56366
       7     H     0.38448  0.38448  0.00000  0.23103
       8     H     0.38493  0.38493  0.00000  0.23013
       9     O     4.22775  4.22775  0.00000 -0.45549
      10     O     4.22839  4.22839  0.00000 -0.45677

   Total alpha = 20.00000, Total beta = 20.00000, Total charge =  0.00000


*** PSI4 exiting successfully. Buy a developer a beer!
