
    -----------------------------------------------------------------------
          Psi4: An Open-Source Ab Initio Electronic Structure Package
                               Psi4 1.1 release

                         Git: Rev {HEAD} add49b9 


    R. M. Parrish, L. A. Burns, D. G. A. Smith, A. C. Simmonett,
    A. E. DePrince III, E. G. Hohenstein, U. Bozkaya, A. Yu. Sokolov,
    R. Di Remigio, R. M. Richard, J. F. Gonthier, A. M. James,
    H. R. McAlexander, A. Kumar, M. Saitow, X. Wang, B. P. Pritchard,
    P. Verma, H. F. Schaefer III, K. Patkowski, R. A. King, E. F. Valeev,
    F. A. Evangelista, J. M. Turney, T. D. Crawford, and C. D. Sherrill,
    J. Chem. Theory Comput. in press (2017).
    (doi: 10.1021/acs.jctc.7b00174)

    -----------------------------------------------------------------------


    Psi4 started on: Tuesday, 12 December 2017 11:18AM

    Process ID:  27180
    PSIDATADIR: /shared/raimis/opt/miniconda/envs/htmd/share/psi4
    Memory:     500.0 MiB
    Threads:    1
    
  ==> Input File <==

--------------------------------------------------------------------------
set_num_threads(1)
set_memory(4203741184)

set { reference rks }
set { basis cc-pVDZ }

molecule MOL {
    0 1
    noreorient
    nocom
    symmetry c1
    O    1.050400   0.042900  -0.048100
    C    2.474100   0.047400  -0.029000
    C    3.002600  -1.068900  -0.932000
    N    4.462700  -1.072400  -1.006800
    H    0.760400   0.728400   0.578000
    H    2.809900  -0.097900   1.003200
    H    2.817400   1.026800  -0.378600
    H    2.581000  -0.963300  -1.938400
    H    2.653800  -2.036400  -0.553400
    H    4.825028  -0.224701  -0.571362
    H    4.741083  -1.023369  -1.986775
}

set optking { frozen_dihedral = (" 2 3 4 10 ") }

energy, wfn = energy('B3LYP-D3', return_wfn=True)

import os
os.chdir(os.environ['HTMD_PSI4_WORKDIR'])

oeprop(wfn, 'DIPOLE', 'QUADRUPOLE', 'MULLIKEN_CHARGES')

with open('psi4out.xyz', 'w') as f:
    f.write('11 ' )
    f.write('%.12f\n' % energy)
    f.write(MOL.save_string_xyz())
--------------------------------------------------------------------------
  Threads set to 1 by Python driver.

  Memory set to   3.915 GiB by Python driver.

*** tstart() called on computer06
*** at Tue Dec 12 11:18:18 2017

   => Loading Basis Set <=

    Name: CC-PVDZ
    Role: ORBITAL
    Keyword: BASIS
    atoms 1    entry O          line   190 file /shared/raimis/opt/miniconda/envs/htmd/share/psi4/basis/cc-pvdz.gbs 
    atoms 2-3  entry C          line   130 file /shared/raimis/opt/miniconda/envs/htmd/share/psi4/basis/cc-pvdz.gbs 
    atoms 4    entry N          line   160 file /shared/raimis/opt/miniconda/envs/htmd/share/psi4/basis/cc-pvdz.gbs 
    atoms 5-11 entry H          line    20 file /shared/raimis/opt/miniconda/envs/htmd/share/psi4/basis/cc-pvdz.gbs 


         ---------------------------------------------------------
                                   SCF
            by Justin Turney, Rob Parrish, and Andy Simmonett
                              RKS Reference
                        1 Threads,   4009 MiB Core
         ---------------------------------------------------------

  ==> Geometry <==

    Molecular point group: c1
    Full point group: C1

    Geometry (in Angstrom), charge = 0, multiplicity = 1:

       Center              X                  Y                   Z               Mass       
    ------------   -----------------  -----------------  -----------------  -----------------
           O          1.050400000000     0.042900000000    -0.048100000000    15.994914619560
           C          2.474100000000     0.047400000000    -0.029000000000    12.000000000000
           C          3.002600000000    -1.068900000000    -0.932000000000    12.000000000000
           N          4.462700000000    -1.072400000000    -1.006800000000    14.003074004780
           H          0.760400000000     0.728400000000     0.578000000000     1.007825032070
           H          2.809900000000    -0.097900000000     1.003200000000     1.007825032070
           H          2.817400000000     1.026800000000    -0.378600000000     1.007825032070
           H          2.581000000000    -0.963300000000    -1.938400000000     1.007825032070
           H          2.653800000000    -2.036400000000    -0.553400000000     1.007825032070
           H          4.825028000000    -0.224701000000    -0.571362000000     1.007825032070
           H          4.741083000000    -1.023369000000    -1.986775000000     1.007825032070

  Running in c1 symmetry.

  Rotational constants: A =      0.72274  B =      0.02775  C =      0.02705 [cm^-1]
  Rotational constants: A =  21667.25382  B =    832.06061  C =    811.08108 [MHz]
  Nuclear repulsion =  130.746663740538821

  Charge       = 0
  Multiplicity = 1
  Electrons    = 34
  Nalpha       = 17
  Nbeta        = 17

  ==> Algorithm <==

  SCF Algorithm Type is DF.
  DIIS enabled.
  MOM disabled.
  Fractional occupation disabled.
  Guess Type is SAD.
  Energy threshold   = 1.00e-06
  Density threshold  = 1.00e-06
  Integral threshold = 0.00e+00

  ==> Primary Basis <==

  Basis Set: CC-PVDZ
    Blend: CC-PVDZ
    Number of shells: 45
    Number of basis function: 91
    Number of Cartesian functions: 95
    Spherical Harmonics?: true
    Max angular momentum: 2

  ==> DFT Potential <==

   => B3LYP Composite Functional <= 

    B3LYP Hybrid-GGA Exchange-Correlation Functional (VWN1-RPA)

    P.J. Stephens et. al., J. Phys. Chem., 98, 11623-11627, 1994

    Points   =           5000
    Deriv    =              1
    GGA      =           TRUE
    Meta     =          FALSE

    X_LRC        =          FALSE
    X_Hybrid     =           TRUE
    X_Alpha      =   2.000000E-01
    X_Omega      =   0.000000E+00
    C_LRC        =          FALSE
    C_Hybrid     =          FALSE
    C_Alpha      =   0.000000E+00
    C_Omega      =   0.000000E+00

   => Exchange Functionals <=

    0.8000    B3_X
    0.2000      HF 

   => Correlation Functionals <=

    0.1900 VWN3RPA_C
    0.8100   LYP_C

   => Molecular Quadrature <=

    Radial Scheme    =       TREUTLER
    Pruning Scheme   =           FLAT
    Nuclear Scheme   =       TREUTLER

    BS radius alpha  =              1
    Pruning alpha    =              1
    Radial Points    =             75
    Spherical Points =            302
    Total Points     =         245068
    Total Blocks     =            221
    Max Points       =           4880
    Max Functions    =             91

   => -D3ZERO: Empirical Dispersion <=

    Grimme's -D3 (zero-damping) Dispersion Correction
    Grimme S.; Antony J.; Ehrlich S.; Krieg H. (2010), J. Chem. Phys., 132: 154104

        S6 =   1.000000E+00
        S8 =   1.703000E+00
       SR6 =   1.261000E+00
    ALPHA6 =   1.400000E+01

   => Loading Basis Set <=

    Name: (CC-PVDZ AUX)
    Role: JKFIT
    Keyword: DF_BASIS_SCF
    atoms 1    entry O          line   220 file /shared/raimis/opt/miniconda/envs/htmd/share/psi4/basis/cc-pvdz-jkfit.gbs 
    atoms 2-3  entry C          line   120 file /shared/raimis/opt/miniconda/envs/htmd/share/psi4/basis/cc-pvdz-jkfit.gbs 
    atoms 4    entry N          line   170 file /shared/raimis/opt/miniconda/envs/htmd/share/psi4/basis/cc-pvdz-jkfit.gbs 
    atoms 5-11 entry H          line    50 file /shared/raimis/opt/miniconda/envs/htmd/share/psi4/basis/cc-pvdz-jkfit.gbs 

  ==> Pre-Iterations <==

   -------------------------------------------------------
    Irrep   Nso     Nmo     Nalpha   Nbeta   Ndocc  Nsocc
   -------------------------------------------------------
     A         91      91       0       0       0       0
   -------------------------------------------------------
    Total      91      91      17      17      17       0
   -------------------------------------------------------

  ==> Integral Setup <==

  ==> DFJK: Density-Fitted J/K Matrices <==

    J tasked:                  Yes
    K tasked:                  Yes
    wK tasked:                  No
    OpenMP threads:              1
    Integrals threads:           1
    Memory (MB):              3006
    Algorithm:                Core
    Integral Cache:           NONE
    Schwarz Cutoff:          1E-12
    Fitting Condition:       1E-12

   => Auxiliary Basis Set <=

  Basis Set: (CC-PVDZ AUX)
    Blend: CC-PVDZ-JKFIT
    Number of shells: 159
    Number of basis function: 441
    Number of Cartesian functions: 499
    Spherical Harmonics?: true
    Max angular momentum: 3

  Minimum eigenvalue in the overlap matrix is 4.4968623044E-03.
  Using Symmetric Orthogonalization.

  SCF Guess: Superposition of Atomic Densities via on-the-fly atomic UHF.

  ==> Iterations <==

                           Total Energy        Delta E     RMS |[F,P]|

   @DF-RKS iter   0:  -210.81577633919096   -2.10816e+02   3.62466e-02 
   @DF-RKS iter   1:  -210.19349147811980    6.22285e-01   7.38402e-03 
   @DF-RKS iter   2:  -210.02810051048658    1.65391e-01   1.01953e-02 DIIS
   @DF-RKS iter   3:  -210.38618329099438   -3.58083e-01   6.21154e-04 DIIS
   @DF-RKS iter   4:  -210.38700228668523   -8.18996e-04   3.90067e-04 DIIS
   @DF-RKS iter   5:  -210.38754377105303   -5.41484e-04   4.88990e-05 DIIS
   @DF-RKS iter   6:  -210.38755025434449   -6.48329e-06   2.35621e-05 DIIS
   @DF-RKS iter   7:  -210.38755227322079   -2.01888e-06   2.05721e-06 DIIS
   @DF-RKS iter   8:  -210.38755228812209   -1.49013e-08   7.38979e-07 DIIS

  ==> Post-Iterations <==

    Orbital Energies (a.u.)
    -----------------------

    Doubly Occupied:                                                      

       1A    -19.130538     2A    -14.303889     3A    -10.229310  
       4A    -10.201160     5A     -1.013003     6A     -0.877732  
       7A     -0.712462     8A     -0.604145     9A     -0.509968  
      10A     -0.479956    11A     -0.464103    12A     -0.414034  
      13A     -0.386374    14A     -0.367428    15A     -0.326646  
      16A     -0.264738    17A     -0.230209  

    Virtual:                                                              

      18A      0.048186    19A      0.057343    20A      0.097323  
      21A      0.110302    22A      0.124412    23A      0.146635  
      24A      0.176926    25A      0.218183    26A      0.240633  
      27A      0.259478    28A      0.435660    29A      0.444758  
      30A      0.489519    31A      0.527463    32A      0.563542  
      33A      0.587032    34A      0.606342    35A      0.617494  
      36A      0.631140    37A      0.647080    38A      0.657927  
      39A      0.659033    40A      0.684800    41A      0.826832  
      42A      0.844979    43A      0.859672    44A      0.916803  
      45A      0.935798    46A      0.963787    47A      0.992052  
      48A      1.059972    49A      1.160925    50A      1.208731  
      51A      1.227482    52A      1.253573    53A      1.345296  
      54A      1.367096    55A      1.440869    56A      1.482761  
      57A      1.538164    58A      1.593300    59A      1.594959  
      60A      1.626625    61A      1.651210    62A      1.662750  
      63A      1.689466    64A      1.719792    65A      1.749677  
      66A      1.782288    67A      1.818353    68A      1.856783  
      69A      1.900133    70A      1.964810    71A      2.014602  
      72A      2.037704    73A      2.060969    74A      2.138047  
      75A      2.165222    76A      2.197042    77A      2.290859  
      78A      2.386083    79A      2.408074    80A      2.432514  
      81A      2.492218    82A      2.567755    83A      2.594211  
      84A      2.652461    85A      2.820479    86A      2.956288  
      87A      2.999659    88A      3.047977    89A      3.100502  
      90A      3.207692    91A      3.691742  

    Final Occupation by Irrep:
              A 
    DOCC [    17 ]

  Energy converged.

  @DF-RKS Final Energy:  -210.38755228812209

   => Energetics <=

    Nuclear Repulsion Energy =            130.7466637405388212
    One-Electron Energy =                -544.3540679068358941
    Two-Electron Energy =                 226.7127009740764834
    DFT Exchange-Correlation Energy =     -23.4879344159014707
    Empirical Dispersion Energy =          -0.0049146800000000
    PCM Polarization Energy =               0.0000000000000000
    EFP Energy =                            0.0000000000000000
    Total Energy =                       -210.3875522881220945



Properties will be evaluated at   0.000000,   0.000000,   0.000000 Bohr

Properties computed using the SCF density matrix

  Nuclear Dipole Moment: (a.u.)
     X:   177.0502      Y:   -30.0147      Z:   -32.2118

  Electronic Dipole Moment: (a.u.)
     X:  -176.8881      Y:    30.8259      Z:    32.3007

  Dipole Moment: (a.u.)
     X:     0.1621      Y:     0.8113      Z:     0.0889     Total:     0.8321

  Dipole Moment: (Debye)
     X:     0.4120      Y:     2.0620      Z:     0.2259     Total:     2.1149


*** tstop() called on computer06 at Tue Dec 12 11:18:43 2017
Module time:
	user time   =      23.65 seconds =       0.39 minutes
	system time =       0.24 seconds =       0.00 minutes
	total time  =         25 seconds =       0.42 minutes
Total time:
	user time   =      23.65 seconds =       0.39 minutes
	system time =       0.24 seconds =       0.00 minutes
	total time  =         25 seconds =       0.42 minutes


Properties will be evaluated at   0.000000,   0.000000,   0.000000 Bohr

Properties computed using the  density matrix

  Nuclear Dipole Moment: (a.u.)
     X:   177.0502      Y:   -30.0147      Z:   -32.2118

  Electronic Dipole Moment: (a.u.)
     X:  -176.8881      Y:    30.8259      Z:    32.3007

  Dipole Moment: (a.u.)
     X:     0.1621      Y:     0.8113      Z:     0.0889     Total:     0.8321

  Dipole Moment: (Debye)
     X:     0.4120      Y:     2.0620      Z:     0.2259     Total:     2.1149

  Quadrupole Moment: (Debye Ang)
    XX:   -25.3836     YY:   -27.0695     ZZ:   -22.4436
    XY:     6.3354     XZ:    -2.8489     YZ:     1.1292

  Traceless Quadrupole Moment: (Debye Ang)
    XX:    -0.4180     YY:    -2.1039     ZZ:     2.5219
    XY:     6.3354     XZ:    -2.8489     YZ:     1.1292

  Mulliken Charges: (a.u.)
   Center  Symbol    Alpha    Beta     Spin     Total
       1     O     4.13743  4.13743  0.00000 -0.27485
       2     C     2.94259  2.94259  0.00000  0.11483
       3     C     2.97809  2.97809  0.00000  0.04382
       4     N     3.59172  3.59172  0.00000 -0.18344
       5     H     0.43031  0.43031  0.00000  0.13938
       6     H     0.49719  0.49719  0.00000  0.00562
       7     H     0.50426  0.50426  0.00000 -0.00853
       8     H     0.49616  0.49616  0.00000  0.00767
       9     H     0.49057  0.49057  0.00000  0.01886
      10     H     0.46920  0.46920  0.00000  0.06160
      11     H     0.46248  0.46248  0.00000  0.07505

   Total alpha = 17.00000, Total beta = 17.00000, Total charge = -0.00000


*** Psi4 exiting successfully. Buy a developer a beer!
