    -----------------------------------------------------------------------
          Psi4: An Open-Source Ab Initio Electronic Structure Package
                              Psi4 (no tag) Driver

                          Git: Rev {detached?}  

    J. M. Turney, A. C. Simmonett, R. M. Parrish, E. G. Hohenstein,
    F. A. Evangelista, J. T. Fermann, B. J. Mintz, L. A. Burns, J. J. Wilke,
    M. L. Abrams, N. J. Russ, M. L. Leininger, C. L. Janssen, E. T. Seidl,
    W. D. Allen, H. F. Schaefer, R. A. King, E. F. Valeev, C. D. Sherrill,
    and T. D. Crawford, WIREs Comput. Mol. Sci. 2, 556-565 (2012)
    (doi: 10.1002/wcms.93)

                         Additional Contributions by
    A. E. DePrince, M. Saitow, U. Bozkaya, A. Yu. Sokolov
    -----------------------------------------------------------------------


    Psi4 started on: Tue Jul  5 16:41:36 2016

    Process ID:  25711
    PSI4DATADIR: /export131/home/mjharvey/miniconda3/share
    Memory level set to 256.000 MB

  ==> Input File <==

--------------------------------------------------------------------------
set {
	reference rhf
	basis 6-31G*
}


set_num_threads( 1 )
memory 2 gb

molecule MOL {
0 1

H	 -0.602624	 -0.076271	 -2.174462
O	 -0.693165	 -1.018407	 -2.279191
C	 -0.424494	 -1.592694	 -1.107166
C	 -0.318135	 -0.576402	 0.000164
O	 -0.292714	 -2.767802	 -0.994247
C	 -1.454360	 0.441875	 -0.000474
H	 -0.278694	 -1.122640	 0.938818
H	 0.648115	 -0.089019	 -0.098941
C	 -2.826123	 -0.230780	 0.000056
H	 -1.357605	 1.085198	 -0.868380
H	 -1.357504	 1.086451	 0.866496
H	 -2.959731	 -0.858053	 -0.876869
H	 -3.619374	 0.509403	 -0.000080
H	 -2.959371	 -0.857318	 0.877556

	symmetry c1
}
set optking {
	frozen_dihedral = ("
		7 4 6 10,
		2 3 4 7
	")
}

ee = energy('scf')
oeprop('DIPOLE', 'QUADRUPOLE', 'MULLIKEN_CHARGES')
f=open( 'psi4out.xyz', 'w' )
f.write( "14  " )
f.write( str(ee) + "\n" )
f.write( MOL.save_string_xyz() )
f.close()
--------------------------------------------------------------------------

  Memory set to   2.000 GiB by Python script.

*** tstart() called on cx1-3-16-4.cx1.hpc.ic.ac.uk
*** at Tue Jul  5 16:41:36 2016


         ---------------------------------------------------------
                                   SCF
            by Justin Turney, Rob Parrish, and Andy Simmonett
                              RHF Reference
                        1 Threads,   2000 MiB Core
         ---------------------------------------------------------

  ==> Geometry <==

    Molecular point group: c1
    Full point group: C1

    Geometry (in Angstrom), charge = 0, multiplicity = 1:

       Center              X                  Y                   Z               Mass       
    ------------   -----------------  -----------------  -----------------  -----------------
           H          0.403945522890     0.882031601971    -1.413623067229     1.007825032070
           O          0.313404522890    -0.060104398029    -1.518352067229    15.994914619560
           C          0.582075522890    -0.634391398029    -0.346327067229    12.000000000000
           C          0.688434522890     0.381900601971     0.761002932771    12.000000000000
           O          0.713855522890    -1.809499398029    -0.233408067229    15.994914619560
           C         -0.447790477110     1.400177601971     0.760364932771    12.000000000000
           H          0.727875522890    -0.164337398029     1.699656932771     1.007825032070
           H          1.654684522890     0.869283601971     0.661897932771     1.007825032070
           C         -1.819553477110     0.727522601971     0.760894932771    12.000000000000
           H         -0.351035477110     2.043500601971    -0.107541067229     1.007825032070
           H         -0.350934477110     2.044753601971     1.627334932771     1.007825032070
           H         -1.953161477110     0.100249601971    -0.116030067229     1.007825032070
           H         -2.612804477110     1.467705601971     0.760758932771     1.007825032070
           H         -1.952801477110     0.100984601971     1.638394932771     1.007825032070

  Running in c1 symmetry.

  Rotational constants: A =      0.19521  B =      0.08198  C =      0.07927 [cm^-1]
  Rotational constants: A =   5852.19977  B =   2457.75601  C =   2376.32393 [MHz]
  Nuclear repulsion =  248.743015924976845

  Charge       = 0
  Multiplicity = 1
  Electrons    = 48
  Nalpha       = 24
  Nbeta        = 24

  ==> Algorithm <==

  SCF Algorithm Type is DF.
  DIIS enabled.
  MOM disabled.
  Fractional occupation disabled.
  Guess Type is CORE.
  Energy threshold   = 1.00e-06
  Density threshold  = 1.00e-06
  Integral threshold = 0.00e+00

  ==> Primary Basis <==

  Basis Set: 6-31G*
    Number of shells: 52
    Number of basis function: 106
    Number of Cartesian functions: 106
    Spherical Harmonics?: false
    Max angular momentum: 2

  ==> Pre-Iterations <==

   -------------------------------------------------------
    Irrep   Nso     Nmo     Nalpha   Nbeta   Ndocc  Nsocc
   -------------------------------------------------------
     A        106     106       0       0       0       0
   -------------------------------------------------------
    Total     106     106      24      24      24       0
   -------------------------------------------------------

 OEINTS: Overlap, kinetic, potential, dipole, and quadrupole integrals
         stored in file 35.

  ==> Integral Setup <==

  ==> DFJK: Density-Fitted J/K Matrices <==

    J tasked:                  Yes
    K tasked:                  Yes
    wK tasked:                  No
    OpenMP threads:              1
    Integrals threads:           1
    Memory (MB):              1430
    Algorithm:                Core
    Integral Cache:           NONE
    Schwarz Cutoff:          1E-12
    Fitting Condition:       1E-12

   => Auxiliary Basis Set <=

  Basis Set: 
    Number of shells: 216
    Number of basis function: 686
    Number of Cartesian functions: 686
    Spherical Harmonics?: false
    Max angular momentum: 3

  Minimum eigenvalue in the overlap matrix is 3.4777456469E-03.
  Using Symmetric Orthogonalization.
  SCF Guess: Core (One-Electron) Hamiltonian.

  ==> Iterations <==

                           Total Energy        Delta E     RMS |[F,P]|

   @DF-RHF iter   1:  -244.16018717029326   -2.44160e+02   7.50196e-02 
   @DF-RHF iter   2:  -166.32275897698744    7.78374e+01   8.48033e-02 DIIS
   @DF-RHF iter   3:  -280.52821936249404   -1.14205e+02   3.66044e-02 DIIS
   @DF-RHF iter   4:  -236.41399413898077    4.41142e+01   7.82996e-02 DIIS
   @DF-RHF iter   5:  -276.24338966453649   -3.98294e+01   6.11463e-02 DIIS
   @DF-RHF iter   6:  -284.85249216576221   -8.60910e+00   4.45673e-02 DIIS
   @DF-RHF iter   7:  -300.28475180408338   -1.54323e+01   2.69662e-02 DIIS
   @DF-RHF iter   8:  -305.21210874049689   -4.92736e+00   1.04671e-02 DIIS
   @DF-RHF iter   9:  -305.70134720126896   -4.89238e-01   5.64649e-03 DIIS
   @DF-RHF iter  10:  -305.84195789190937   -1.40611e-01   1.56952e-03 DIIS
   @DF-RHF iter  11:  -305.86067301251160   -1.87151e-02   5.49436e-04 DIIS
   @DF-RHF iter  12:  -305.86298766724485   -2.31465e-03   1.85620e-04 DIIS
   @DF-RHF iter  13:  -305.86326670052631   -2.79033e-04   5.13097e-05 DIIS
   @DF-RHF iter  14:  -305.86328696530677   -2.02648e-05   1.71084e-05 DIIS
   @DF-RHF iter  15:  -305.86328977862320   -2.81332e-06   5.15987e-06 DIIS
   @DF-RHF iter  16:  -305.86329014045714   -3.61834e-07   1.73414e-06 DIIS
   @DF-RHF iter  17:  -305.86329021166694   -7.12098e-08   7.61038e-07 DIIS

  ==> Post-Iterations <==

    Orbital Energies (a.u.)
    -----------------------

    Doubly Occupied:                                                      

       1A    -20.614653     2A    -20.547803     3A    -11.380228  
       4A    -11.252959     5A    -11.250283     6A    -11.228175  
       7A     -1.471151     8A     -1.369632     9A     -1.101235  
      10A     -0.981133    11A     -0.865422    12A     -0.821408  
      13A     -0.725768    14A     -0.670698    15A     -0.664289  
      16A     -0.630406    17A     -0.596689    18A     -0.584315  
      19A     -0.550834    20A     -0.523681    21A     -0.509359  
      22A     -0.504733    23A     -0.472207    24A     -0.436715  

    Virtual:                                                              

      25A      0.180002    26A      0.199470    27A      0.251343  
      28A      0.276219    29A      0.282006    30A      0.295635  
      31A      0.322472    32A      0.334156    33A      0.343803  
      34A      0.381185    35A      0.410749    36A      0.428208  
      37A      0.504092    38A      0.576380    39A      0.696280  
      40A      0.707375    41A      0.728142    42A      0.781198  
      43A      0.816133    44A      0.837052    45A      0.872533  
      46A      0.890539    47A      0.926138    48A      0.950180  
      49A      1.004988    50A      1.031720    51A      1.046825  
      52A      1.097052    53A      1.122157    54A      1.129334  
      55A      1.163901    56A      1.180141    57A      1.193525  
      58A      1.197198    59A      1.213895    60A      1.234042  
      61A      1.265744    62A      1.316230    63A      1.350942  
      64A      1.365519    65A      1.406230    66A      1.510630  
      67A      1.576388    68A      1.655555    69A      1.673050  
      70A      1.746991    71A      1.837747    72A      1.884122  
      73A      1.945679    74A      1.969125    75A      2.017078  
      76A      2.059026    77A      2.107899    78A      2.133552  
      79A      2.146809    80A      2.184182    81A      2.216146  
      82A      2.271869    83A      2.317770    84A      2.368654  
      85A      2.412966    86A      2.449374    87A      2.604365  
      88A      2.629248    89A      2.675837    90A      2.697985  
      91A      2.750192    92A      2.803947    93A      2.830373  
      94A      2.934999    95A      2.999369    96A      3.043700  
      97A      3.128541    98A      3.237018    99A      3.392724  
     100A      3.483814   101A      4.305480   102A      4.512247  
     103A      4.625556   104A      4.714860   105A      4.842251  
     106A      4.960362  

    Final Occupation by Irrep:
              A 
    DOCC [    24 ]

  Energy converged.

  @DF-RHF Final Energy:  -305.86329021166694

   => Energetics <=

    Nuclear Repulsion Energy =            248.7430159249768451
    One-Electron Energy =                -909.7050960525501750
    Two-Electron Energy =                 355.0987899159060817
    DFT Exchange-Correlation Energy =       0.0000000000000000
    Empirical Dispersion Energy =           0.0000000000000000
    PCM Polarization Energy =               0.0000000000000000
    EFP Energy =                            0.0000000000000000
    Total Energy =                       -305.8632902116672767

    Alert: EFP and PCM quantities not currently incorporated into SCF psivars.

Properties will be evaluated at   0.000000,   0.000000,   0.000000 Bohr
  ==> Properties <==


Properties computed using the SCF density matrix

  Nuclear Dipole Moment: (a.u.)
     X:    -4.1520      Y:     6.8760      Z:     4.4454

  Electronic Dipole Moment: (a.u.)
     X:     4.0671      Y:    -5.0585      Z:    -3.8951

  Dipole Moment: (a.u.)
     X:    -0.0849      Y:     1.8175      Z:     0.5503     Total:     1.9009

  Dipole Moment: (Debye)
     X:    -0.2159      Y:     4.6196      Z:     1.3987     Total:     4.8315


  Saving occupied orbitals to File 180.

*** tstop() called on cx1-3-16-4.cx1.hpc.ic.ac.uk at Tue Jul  5 16:41:43 2016
Module time:
	user time   =       6.45 seconds =       0.11 minutes
	system time =       0.04 seconds =       0.00 minutes
	total time  =          7 seconds =       0.12 minutes
Total time:
	user time   =       6.45 seconds =       0.11 minutes
	system time =       0.04 seconds =       0.00 minutes
	total time  =          7 seconds =       0.12 minutes


Properties will be evaluated at   0.000000,   0.000000,   0.000000 Bohr

Properties computed using the  density matrix

  Nuclear Dipole Moment: (a.u.)
     X:    -4.1520      Y:     6.8760      Z:     4.4454

  Electronic Dipole Moment: (a.u.)
     X:     4.0671      Y:    -5.0585      Z:    -3.8951

  Dipole Moment: (a.u.)
     X:    -0.0849      Y:     1.8175      Z:     0.5503     Total:     1.9009

  Dipole Moment: (Debye)
     X:    -0.2159      Y:     4.6196      Z:     1.3987     Total:     4.8315

  Quadrupole Moment: (Debye Ang)
    XX:   -35.9485     YY:   -41.6021     ZZ:   -37.9437
    XY:     2.8924     XZ:    -0.1329     YZ:    -2.5670

  Traceless Quadrupole Moment: (Debye Ang)
    XX:     2.5496     YY:    -3.1040     ZZ:     0.5544
    XY:     2.8924     XZ:    -0.1329     YZ:    -2.5670

  Mulliken Charges: (a.u.)
   Center  Symbol    Alpha    Beta     Spin     Total
       1     H     0.26491  0.26491  0.00000  0.47018
       2     O     4.34687  4.34687  0.00000 -0.69373
       3     C     2.61314  2.61314  0.00000  0.77371
       4     C     3.23450  3.23450  0.00000 -0.46899
       5     O     4.26847  4.26847  0.00000 -0.53694
       6     C     3.16899  3.16899  0.00000 -0.33798
       7     H     0.39123  0.39123  0.00000  0.21753
       8     H     0.39953  0.39953  0.00000  0.20094
       9     C     3.24911  3.24911  0.00000 -0.49823
      10     H     0.42747  0.42747  0.00000  0.14506
      11     H     0.40514  0.40514  0.00000  0.18972
      12     H     0.40565  0.40565  0.00000  0.18870
      13     H     0.41297  0.41297  0.00000  0.17407
      14     H     0.41203  0.41203  0.00000  0.17595

   Total alpha = 24.00000, Total beta = 24.00000, Total charge =  0.00000


*** PSI4 exiting successfully. Buy a developer a beer!
