    -----------------------------------------------------------------------
          Psi4: An Open-Source Ab Initio Electronic Structure Package
                              Psi4 (no tag) Driver

                          Git: Rev {detached?}  

    J. M. Turney, A. C. Simmonett, R. M. Parrish, E. G. Hohenstein,
    F. A. Evangelista, J. T. Fermann, B. J. Mintz, L. A. Burns, J. J. Wilke,
    M. L. Abrams, N. J. Russ, M. L. Leininger, C. L. Janssen, E. T. Seidl,
    W. D. Allen, H. F. Schaefer, R. A. King, E. F. Valeev, C. D. Sherrill,
    and T. D. Crawford, WIREs Comput. Mol. Sci. 2, 556-565 (2012)
    (doi: 10.1002/wcms.93)

                         Additional Contributions by
    A. E. DePrince, M. Saitow, U. Bozkaya, A. Yu. Sokolov
    -----------------------------------------------------------------------


    Psi4 started on: Tue Jul  5 16:40:35 2016

    Process ID:  29184
    PSI4DATADIR: /export131/home/mjharvey/miniconda3/share
    Memory level set to 256.000 MB

  ==> Input File <==

--------------------------------------------------------------------------
set {
	reference rhf
	basis 6-31G*
}


set_num_threads( 1 )
memory 2 gb

molecule MOL {
0 1

H	 2.961545	 -2.404034	 -2.534847
C	 2.190400	 -2.780581	 -1.870544
C	 0.980845	 -1.847107	 -1.846764
H	 1.913745	 -3.772768	 -2.215877
H	 2.628846	 -2.885287	 -0.882087
C	 -0.127859	 -2.340084	 -0.922563
H	 0.573415	 -1.735946	 -2.846781
H	 1.297971	 -0.855131	 -1.529265
N	 -1.268658	 -1.446027	 -0.948991
H	 -0.462671	 -3.319079	 -1.254876
H	 0.271365	 -2.476484	 0.088077
C	 -1.217365	 -0.386708	 0.039277
H	 -1.355622	 -1.044301	 -1.863373
C	 -2.452633	 0.504241	 -0.042481
H	 -1.172857	 -0.848333	 1.022069
H	 -0.315698	 0.227728	 -0.054795
C	 -3.758029	 -0.289423	 -0.010781
H	 -2.394220	 1.093569	 -0.952170
H	 -2.440793	 1.210787	 0.785871
H	 -3.816659	 -0.981993	 -0.845726
H	 -4.617837	 0.370165	 -0.069296
H	 -3.847478	 -0.867502	 0.904682

	symmetry c1
}
set optking {
	frozen_dihedral = ("
		15 12 14 18
	")
}

ee = energy('scf')
oeprop('DIPOLE', 'QUADRUPOLE', 'MULLIKEN_CHARGES')
f=open( 'psi4out.xyz', 'w' )
f.write( "22  " )
f.write( str(ee) + "\n" )
f.write( MOL.save_string_xyz() )
f.close()
--------------------------------------------------------------------------

  Memory set to   2.000 GiB by Python script.

*** tstart() called on cx1-3-1-3.cx1.hpc.ic.ac.uk
*** at Tue Jul  5 16:40:36 2016


         ---------------------------------------------------------
                                   SCF
            by Justin Turney, Rob Parrish, and Andy Simmonett
                              RHF Reference
                        1 Threads,   2000 MiB Core
         ---------------------------------------------------------

  ==> Geometry <==

    Molecular point group: c1
    Full point group: C1

    Geometry (in Angstrom), charge = 0, multiplicity = 1:

       Center              X                  Y                   Z               Mass       
    ------------   -----------------  -----------------  -----------------  -----------------
           H          3.764963915141    -1.174248277348    -1.729082175051     1.007825032070
           C          2.993818915141    -1.550795277348    -1.064779175051    12.000000000000
           C          1.784263915141    -0.617321277348    -1.040999175051    12.000000000000
           H          2.717163915141    -2.542982277348    -1.410112175051     1.007825032070
           H          3.432264915141    -1.655501277348    -0.076322175051     1.007825032070
           C          0.675559915141    -1.110298277348    -0.116798175051    12.000000000000
           H          1.376833915141    -0.506160277348    -2.041016175051     1.007825032070
           H          2.101389915141     0.374654722652    -0.723500175051     1.007825032070
           N         -0.465239084859    -0.216241277348    -0.143226175051    14.003074004780
           H          0.340747915141    -2.089293277348    -0.449111175051     1.007825032070
           H          1.074783915141    -1.246698277348     0.893841824949     1.007825032070
           C         -0.413946084859     0.843077722652     0.845041824949    12.000000000000
           H         -0.552203084859     0.185484722652    -1.057608175051     1.007825032070
           C         -1.649214084859     1.734026722652     0.763283824949    12.000000000000
           H         -0.369438084859     0.381452722652     1.827833824949     1.007825032070
           H          0.487720915141     1.457513722652     0.750969824949     1.007825032070
           C         -2.954610084859     0.940362722652     0.794983824949    12.000000000000
           H         -1.590801084859     2.323354722652    -0.146405175051     1.007825032070
           H         -1.637374084859     2.440572722652     1.591635824949     1.007825032070
           H         -3.013240084859     0.247792722652    -0.039961175051     1.007825032070
           H         -3.814418084859     1.599950722652     0.736468824949     1.007825032070
           H         -3.044059084859     0.362283722652     1.710446824949     1.007825032070

  Running in c1 symmetry.

  Rotational constants: A =      0.28671  B =      0.03093  C =      0.02989 [cm^-1]
  Rotational constants: A =   8595.41539  B =    927.39125  C =    896.21650 [MHz]
  Nuclear repulsion =  321.390709959426431

  Charge       = 0
  Multiplicity = 1
  Electrons    = 58
  Nalpha       = 29
  Nbeta        = 29

  ==> Algorithm <==

  SCF Algorithm Type is DF.
  DIIS enabled.
  MOM disabled.
  Fractional occupation disabled.
  Guess Type is CORE.
  Energy threshold   = 1.00e-06
  Density threshold  = 1.00e-06
  Integral threshold = 0.00e+00

  ==> Primary Basis <==

  Basis Set: 6-31G*
    Number of shells: 72
    Number of basis function: 135
    Number of Cartesian functions: 135
    Spherical Harmonics?: false
    Max angular momentum: 2

  ==> Pre-Iterations <==

   -------------------------------------------------------
    Irrep   Nso     Nmo     Nalpha   Nbeta   Ndocc  Nsocc
   -------------------------------------------------------
     A        135     135       0       0       0       0
   -------------------------------------------------------
    Total     135     135      29      29      29       0
   -------------------------------------------------------

 OEINTS: Overlap, kinetic, potential, dipole, and quadrupole integrals
         stored in file 35.

  ==> Integral Setup <==

  ==> DFJK: Density-Fitted J/K Matrices <==

    J tasked:                  Yes
    K tasked:                  Yes
    wK tasked:                  No
    OpenMP threads:              1
    Integrals threads:           1
    Memory (MB):              1430
    Algorithm:                Core
    Integral Cache:           NONE
    Schwarz Cutoff:          1E-12
    Fitting Condition:       1E-12

   => Auxiliary Basis Set <=

  Basis Set: 
    Number of shells: 303
    Number of basis function: 942
    Number of Cartesian functions: 942
    Spherical Harmonics?: false
    Max angular momentum: 3

  Minimum eigenvalue in the overlap matrix is 3.7315132741E-03.
  Using Symmetric Orthogonalization.
  SCF Guess: Core (One-Electron) Hamiltonian.

  ==> Iterations <==

                           Total Energy        Delta E     RMS |[F,P]|

   @DF-RHF iter   1:  -196.64642019351174   -1.96646e+02   7.17223e-02 
   @DF-RHF iter   2:  -160.38006560173898    3.62664e+01   5.73370e-02 DIIS
   @DF-RHF iter   3:  -246.85498098386927   -8.64749e+01   4.29483e-02 DIIS
   @DF-RHF iter   4:  -271.35959018032770   -2.45046e+01   3.63364e-02 DIIS
   @DF-RHF iter   5:  -279.63741949007544   -8.27783e+00   2.64642e-02 DIIS
   @DF-RHF iter   6:  -290.14254657277866   -1.05051e+01   4.64308e-03 DIIS
   @DF-RHF iter   7:  -290.35545664030292   -2.12910e-01   1.33138e-03 DIIS
   @DF-RHF iter   8:  -290.37382587823959   -1.83692e-02   4.47087e-04 DIIS
   @DF-RHF iter   9:  -290.37644057589762   -2.61470e-03   8.21325e-05 DIIS
   @DF-RHF iter  10:  -290.37655188801818   -1.11312e-04   3.33384e-05 DIIS
   @DF-RHF iter  11:  -290.37656771812010   -1.58301e-05   9.44213e-06 DIIS
   @DF-RHF iter  12:  -290.37656924669329   -1.52857e-06   2.47719e-06 DIIS
   @DF-RHF iter  13:  -290.37656936615144   -1.19458e-07   7.21973e-07 DIIS

  ==> Post-Iterations <==

    Orbital Energies (a.u.)
    -----------------------

    Doubly Occupied:                                                      

       1A    -15.531407     2A    -11.238573     3A    -11.237600  
       4A    -11.215754     5A    -11.212649     6A    -11.211546  
       7A    -11.198264     8A     -1.207552     9A     -1.058307  
      10A     -1.021041    11A     -0.925214    12A     -0.877169  
      13A     -0.809343    14A     -0.794104    15A     -0.647206  
      16A     -0.637160    17A     -0.629310    18A     -0.601478  
      19A     -0.576609    20A     -0.550013    21A     -0.545055  
      22A     -0.518851    23A     -0.511016    24A     -0.489013  
      25A     -0.482030    26A     -0.474400    27A     -0.468047  
      28A     -0.454948    29A     -0.350280  

    Virtual:                                                              

      30A      0.228125    31A      0.238832    32A      0.257582  
      33A      0.278949    34A      0.281915    35A      0.306362  
      36A      0.308649    37A      0.314321    38A      0.325158  
      39A      0.332021    40A      0.345366    41A      0.348071  
      42A      0.358785    43A      0.362862    44A      0.391857  
      45A      0.407353    46A      0.423625    47A      0.429880  
      48A      0.443931    49A      0.468171    50A      0.487858  
      51A      0.716988    52A      0.737634    53A      0.744593  
      54A      0.746143    55A      0.752764    56A      0.753622  
      57A      0.773770    58A      0.797530    59A      0.840388  
      60A      0.890488    61A      0.930713    62A      0.949868  
      63A      0.953720    64A      0.965952    65A      0.976137  
      66A      0.995739    67A      1.079726    68A      1.097756  
      69A      1.119588    70A      1.136349    71A      1.156649  
      72A      1.160805    73A      1.171861    74A      1.183261  
      75A      1.191901    76A      1.198452    77A      1.202484  
      78A      1.211834    79A      1.223324    80A      1.239347  
      81A      1.247532    82A      1.252213    83A      1.276191  
      84A      1.288730    85A      1.292296    86A      1.344649  
      87A      1.418590    88A      1.492960    89A      1.606848  
      90A      1.666297    91A      1.690712    92A      1.721910  
      93A      1.729478    94A      1.850196    95A      1.859890  
      96A      1.932212    97A      1.990139    98A      2.010843  
      99A      2.100948   100A      2.146757   101A      2.199390  
     102A      2.216027   103A      2.260976   104A      2.277884  
     105A      2.286002   106A      2.308921   107A      2.342470  
     108A      2.350328   109A      2.403670   110A      2.452763  
     111A      2.476870   112A      2.533286   113A      2.559257  
     114A      2.617470   115A      2.646334   116A      2.671016  
     117A      2.698637   118A      2.708351   119A      2.747249  
     120A      2.764393   121A      2.843951   122A      2.853233  
     123A      2.910189   124A      2.993807   125A      3.042124  
     126A      3.091692   127A      3.147361   128A      3.274398  
     129A      4.390664   130A      4.606650   131A      4.622540  
     132A      4.757720   133A      4.774998   134A      4.916140  
     135A      4.956846  

    Final Occupation by Irrep:
              A 
    DOCC [    29 ]

  Energy converged.

  @DF-RHF Final Energy:  -290.37656936615144

   => Energetics <=

    Nuclear Repulsion Energy =            321.3907099594264309
    One-Electron Energy =               -1028.5868201168245832
    Two-Electron Energy =                 416.8195407912464816
    DFT Exchange-Correlation Energy =       0.0000000000000000
    Empirical Dispersion Energy =           0.0000000000000000
    PCM Polarization Energy =               0.0000000000000000
    EFP Energy =                            0.0000000000000000
    Total Energy =                       -290.3765693661516707

    Alert: EFP and PCM quantities not currently incorporated into SCF psivars.

Properties will be evaluated at   0.000000,   0.000000,   0.000000 Bohr
  ==> Properties <==


Properties computed using the SCF density matrix

  Nuclear Dipole Moment: (a.u.)
     X:     1.1960      Y:     0.1489      Z:    -0.1514

  Electronic Dipole Moment: (a.u.)
     X:    -0.8035      Y:     0.0710      Z:     0.0133

  Dipole Moment: (a.u.)
     X:     0.3925      Y:     0.2199      Z:    -0.1381     Total:     0.4706

  Dipole Moment: (Debye)
     X:     0.9976      Y:     0.5589      Z:    -0.3510     Total:     1.1962


  Saving occupied orbitals to File 180.

*** tstop() called on cx1-3-1-3.cx1.hpc.ic.ac.uk at Tue Jul  5 16:40:48 2016
Module time:
	user time   =      12.30 seconds =       0.20 minutes
	system time =       0.06 seconds =       0.00 minutes
	total time  =         12 seconds =       0.20 minutes
Total time:
	user time   =      12.30 seconds =       0.20 minutes
	system time =       0.06 seconds =       0.00 minutes
	total time  =         12 seconds =       0.20 minutes


Properties will be evaluated at   0.000000,   0.000000,   0.000000 Bohr

Properties computed using the  density matrix

  Nuclear Dipole Moment: (a.u.)
     X:     1.1960      Y:     0.1489      Z:    -0.1514

  Electronic Dipole Moment: (a.u.)
     X:    -0.8035      Y:     0.0710      Z:     0.0133

  Dipole Moment: (a.u.)
     X:     0.3925      Y:     0.2199      Z:    -0.1381     Total:     0.4706

  Dipole Moment: (Debye)
     X:     0.9976      Y:     0.5589      Z:    -0.3510     Total:     1.1962

  Quadrupole Moment: (Debye Ang)
    XX:   -49.8995     YY:   -47.8801     ZZ:   -45.7852
    XY:    -1.0748     XZ:     0.5797     YZ:    -0.1058

  Traceless Quadrupole Moment: (Debye Ang)
    XX:    -2.0446     YY:    -0.0252     ZZ:     2.0697
    XY:    -1.0748     XZ:     0.5797     YZ:    -0.1058

  Mulliken Charges: (a.u.)
   Center  Symbol    Alpha    Beta     Spin     Total
       1     H     0.41822  0.41822  0.00000  0.16356
       2     C     3.24345  3.24345  0.00000 -0.48689
       3     C     3.16342  3.16342  0.00000 -0.32684
       4     H     0.42030  0.42030  0.00000  0.15939
       5     H     0.42095  0.42095  0.00000  0.15810
       6     C     3.05113  3.05113  0.00000 -0.10226
       7     H     0.42474  0.42474  0.00000  0.15051
       8     H     0.42084  0.42084  0.00000  0.15833
       9     N     3.85329  3.85329  0.00000 -0.70658
      10     H     0.41808  0.41808  0.00000  0.16383
      11     H     0.42109  0.42109  0.00000  0.15782
      12     C     3.05499  3.05499  0.00000 -0.10999
      13     H     0.33400  0.33400  0.00000  0.33199
      14     C     3.16126  3.16126  0.00000 -0.32251
      15     H     0.42120  0.42120  0.00000  0.15760
      16     H     0.43435  0.43435  0.00000  0.13131
      17     C     3.23359  3.23359  0.00000 -0.46718
      18     H     0.42602  0.42602  0.00000  0.14796
      19     H     0.42085  0.42085  0.00000  0.15830
      20     H     0.41048  0.41048  0.00000  0.17905
      21     H     0.42473  0.42473  0.00000  0.15054
      22     H     0.42302  0.42302  0.00000  0.15397

   Total alpha = 29.00000, Total beta = 29.00000, Total charge = -0.00000


*** PSI4 exiting successfully. Buy a developer a beer!
