    -----------------------------------------------------------------------
          Psi4: An Open-Source Ab Initio Electronic Structure Package
                              Psi4 (no tag) Driver

                          Git: Rev {detached?}  

    J. M. Turney, A. C. Simmonett, R. M. Parrish, E. G. Hohenstein,
    F. A. Evangelista, J. T. Fermann, B. J. Mintz, L. A. Burns, J. J. Wilke,
    M. L. Abrams, N. J. Russ, M. L. Leininger, C. L. Janssen, E. T. Seidl,
    W. D. Allen, H. F. Schaefer, R. A. King, E. F. Valeev, C. D. Sherrill,
    and T. D. Crawford, WIREs Comput. Mol. Sci. 2, 556-565 (2012)
    (doi: 10.1002/wcms.93)

                         Additional Contributions by
    A. E. DePrince, M. Saitow, U. Bozkaya, A. Yu. Sokolov
    -----------------------------------------------------------------------


    Psi4 started on: Tue Jul  5 16:30:12 2016

    Process ID:  12170
    PSI4DATADIR: /export131/home/mjharvey/miniconda3/share
    Memory level set to 256.000 MB

  ==> Input File <==

--------------------------------------------------------------------------
set {
	reference rhf
	basis 6-31G*
}


set_num_threads( 1 )
memory 2 gb

molecule MOL {
0 1

H	 -0.022914	 2.531974	 -0.510316
C	 0.557503	 1.679937	 -0.867300
N	 0.538815	 0.649616	 0.000000
O	 1.130420	 1.700022	 -1.916381
C	 1.521968	 -0.411503	 0.000000
H	 -0.192644	 0.624219	 0.672761
H	 2.150599	 -0.357004	 -0.881901
H	 0.999455	 -1.354525	 0.000000
H	 2.150599	 -0.357004	 0.881901

	symmetry c1
}
set optking {
	frozen_dihedral = ("
		6 3 5 7
	")
}

ee = energy('scf')
oeprop('DIPOLE', 'QUADRUPOLE', 'MULLIKEN_CHARGES')
f=open( 'psi4out.xyz', 'w' )
f.write( "9  " )
f.write( str(ee) + "\n" )
f.write( MOL.save_string_xyz() )
f.close()
--------------------------------------------------------------------------

  Memory set to   2.000 GiB by Python script.

*** tstart() called on cx1-1-4-3.cx1.hpc.ic.ac.uk
*** at Tue Jul  5 16:30:12 2016


         ---------------------------------------------------------
                                   SCF
            by Justin Turney, Rob Parrish, and Andy Simmonett
                              RHF Reference
                        1 Threads,   2000 MiB Core
         ---------------------------------------------------------

  ==> Geometry <==

    Molecular point group: c1
    Full point group: C1

    Geometry (in Angstrom), charge = 0, multiplicity = 1:

       Center              X                  Y                   Z               Mass       
    ------------   -----------------  -----------------  -----------------  -----------------
           H         -0.966465812826     1.640912373405     0.182404760120     1.007825032070
           C         -0.386048812826     0.788875373405    -0.174579239880    12.000000000000
           N         -0.404736812826    -0.241445626595     0.692720760120    14.003074004780
           O          0.186868187174     0.808960373405    -1.223660239880    15.994914619560
           C          0.578416187174    -1.302564626595     0.692720760120    12.000000000000
           H         -1.136195812826    -0.266842626595     1.365481760120     1.007825032070
           H          1.207047187174    -1.248065626595    -0.189180239880     1.007825032070
           H          0.055903187174    -2.245586626595     0.692720760120     1.007825032070
           H          1.207047187174    -1.248065626595     1.574621760120     1.007825032070

  Running in c1 symmetry.

  Rotational constants: A =      0.69306  B =      0.20249  C =      0.16243 [cm^-1]
  Rotational constants: A =  20777.36397  B =   6070.45031  C =   4869.37990 [MHz]
  Nuclear repulsion =  122.293563056822748

  Charge       = 0
  Multiplicity = 1
  Electrons    = 32
  Nalpha       = 16
  Nbeta        = 16

  ==> Algorithm <==

  SCF Algorithm Type is DF.
  DIIS enabled.
  MOM disabled.
  Fractional occupation disabled.
  Guess Type is CORE.
  Energy threshold   = 1.00e-06
  Density threshold  = 1.00e-06
  Integral threshold = 0.00e+00

  ==> Primary Basis <==

  Basis Set: 6-31G*
    Number of shells: 34
    Number of basis function: 70
    Number of Cartesian functions: 70
    Spherical Harmonics?: false
    Max angular momentum: 2

  ==> Pre-Iterations <==

   -------------------------------------------------------
    Irrep   Nso     Nmo     Nalpha   Nbeta   Ndocc  Nsocc
   -------------------------------------------------------
     A         70      70       0       0       0       0
   -------------------------------------------------------
    Total      70      70      16      16      16       0
   -------------------------------------------------------

 OEINTS: Overlap, kinetic, potential, dipole, and quadrupole integrals
         stored in file 35.

  ==> Integral Setup <==

  ==> DFJK: Density-Fitted J/K Matrices <==

    J tasked:                  Yes
    K tasked:                  Yes
    wK tasked:                  No
    OpenMP threads:              1
    Integrals threads:           1
    Memory (MB):              1430
    Algorithm:                Core
    Integral Cache:           NONE
    Schwarz Cutoff:          1E-12
    Fitting Condition:       1E-12

   => Auxiliary Basis Set <=

  Basis Set: 
    Number of shells: 141
    Number of basis function: 449
    Number of Cartesian functions: 449
    Spherical Harmonics?: false
    Max angular momentum: 3

  Minimum eigenvalue in the overlap matrix is 4.7434615079E-03.
  Using Symmetric Orthogonalization.
  SCF Guess: Core (One-Electron) Hamiltonian.

  ==> Iterations <==

                           Total Energy        Delta E     RMS |[F,P]|

   @DF-RHF iter   1:  -166.85138958260148   -1.66851e+02   9.45076e-02 
   @DF-RHF iter   2:  -130.31084466525095    3.65405e+01   8.32506e-02 DIIS
   @DF-RHF iter   3:  -190.16296031301459   -5.98521e+01   5.34630e-02 DIIS
   @DF-RHF iter   4:  -207.12722686167268   -1.69643e+01   1.86957e-02 DIIS
   @DF-RHF iter   5:  -207.89651032351014   -7.69283e-01   5.24851e-03 DIIS
   @DF-RHF iter   6:  -207.95328833914169   -5.67780e-02   8.78105e-04 DIIS
   @DF-RHF iter   7:  -207.95552230040187   -2.23396e-03   2.02539e-04 DIIS
   @DF-RHF iter   8:  -207.95571698861869   -1.94688e-04   7.07303e-05 DIIS
   @DF-RHF iter   9:  -207.95573694689540   -1.99583e-05   3.57138e-05 DIIS
   @DF-RHF iter  10:  -207.95574147075331   -4.52386e-06   1.96711e-05 DIIS
   @DF-RHF iter  11:  -207.95574305627383   -1.58552e-06   8.30946e-06 DIIS
   @DF-RHF iter  12:  -207.95574331787401   -2.61600e-07   1.62872e-06 DIIS
   @DF-RHF iter  13:  -207.95574333626877   -1.83948e-08   5.78955e-07 DIIS

  ==> Post-Iterations <==

    Orbital Energies (a.u.)
    -----------------------

    Doubly Occupied:                                                      

       1A    -20.527493     2A    -15.587283     3A    -11.344004  
       4A    -11.261104     5A     -1.389287     6A     -1.235482  
       7A     -0.968332     8A     -0.807327     9A     -0.744292  
      10A     -0.641818    11A     -0.629620    12A     -0.593645  
      13A     -0.555531    14A     -0.533585    15A     -0.424372  
      16A     -0.388021  

    Virtual:                                                              

      17A      0.204980    18A      0.225132    19A      0.267975  
      20A      0.294866    21A      0.318424    22A      0.324813  
      23A      0.386113    24A      0.447553    25A      0.563740  
      26A      0.711693    27A      0.720530    28A      0.778367  
      29A      0.818627    30A      0.853674    31A      0.943294  
      32A      0.987748    33A      1.023487    34A      1.078111  
      35A      1.094790    36A      1.118830    37A      1.145187  
      38A      1.183757    39A      1.203422    40A      1.223567  
      41A      1.315615    42A      1.326869    43A      1.433879  
      44A      1.485933    45A      1.598248    46A      1.662411  
      47A      1.771835    48A      1.806556    49A      1.858621  
      50A      2.061721    51A      2.133655    52A      2.152304  
      53A      2.219804    54A      2.323865    55A      2.378871  
      56A      2.424233    57A      2.577293    58A      2.591556  
      59A      2.657832    60A      2.739133    61A      2.815598  
      62A      2.928621    63A      3.038180    64A      3.133696  
      65A      3.326402    66A      3.483580    67A      4.258210  
      68A      4.374360    69A      4.584167    70A      4.729909  

    Final Occupation by Irrep:
              A 
    DOCC [    16 ]

  Energy converged.

  @DF-RHF Final Energy:  -207.95574333626877

   => Energetics <=

    Nuclear Repulsion Energy =            122.2935630568227481
    One-Electron Energy =                -525.2362573901557425
    Two-Electron Energy =                 194.9869509970641275
    DFT Exchange-Correlation Energy =       0.0000000000000000
    Empirical Dispersion Energy =           0.0000000000000000
    PCM Polarization Energy =               0.0000000000000000
    EFP Energy =                            0.0000000000000000
    Total Energy =                       -207.9557433362688812

    Alert: EFP and PCM quantities not currently incorporated into SCF psivars.

Properties will be evaluated at   0.000000,   0.000000,   0.000000 Bohr
  ==> Properties <==


Properties computed using the SCF density matrix

  Nuclear Dipole Moment: (a.u.)
     X:     0.3464      Y:    -3.1525      Z:     3.3914

  Electronic Dipole Moment: (a.u.)
     X:    -0.8895      Y:     2.6698      Z:    -1.9945

  Dipole Moment: (a.u.)
     X:    -0.5430      Y:    -0.4827      Z:     1.3969     Total:     1.5746

  Dipole Moment: (Debye)
     X:    -1.3803      Y:    -1.2270      Z:     3.5506     Total:     4.0021


  Saving occupied orbitals to File 180.

*** tstop() called on cx1-1-4-3.cx1.hpc.ic.ac.uk at Tue Jul  5 16:30:15 2016
Module time:
	user time   =       2.12 seconds =       0.04 minutes
	system time =       0.03 seconds =       0.00 minutes
	total time  =          3 seconds =       0.05 minutes
Total time:
	user time   =       2.12 seconds =       0.04 minutes
	system time =       0.03 seconds =       0.00 minutes
	total time  =          3 seconds =       0.05 minutes


Properties will be evaluated at   0.000000,   0.000000,   0.000000 Bohr

Properties computed using the  density matrix

  Nuclear Dipole Moment: (a.u.)
     X:     0.3464      Y:    -3.1525      Z:     3.3914

  Electronic Dipole Moment: (a.u.)
     X:    -0.8895      Y:     2.6698      Z:    -1.9945

  Dipole Moment: (a.u.)
     X:    -0.5430      Y:    -0.4827      Z:     1.3969     Total:     1.5746

  Dipole Moment: (Debye)
     X:    -1.3803      Y:    -1.2270      Z:     3.5506     Total:     4.0021

  Quadrupole Moment: (Debye Ang)
    XX:   -22.1006     YY:   -23.0472     ZZ:   -26.7501
    XY:    -1.9400     XZ:    -0.6825     YZ:     1.5415

  Traceless Quadrupole Moment: (Debye Ang)
    XX:     1.8654     YY:     0.9188     ZZ:    -2.7841
    XY:    -1.9400     XZ:    -0.6825     YZ:     1.5415

  Mulliken Charges: (a.u.)
   Center  Symbol    Alpha    Beta     Spin     Total
       1     H     0.42862  0.42862  0.00000  0.14276
       2     C     2.74655  2.74655  0.00000  0.50690
       3     N     3.87670  3.87670  0.00000 -0.75340
       4     O     4.27955  4.27955  0.00000 -0.55911
       5     C     3.14347  3.14347  0.00000 -0.28694
       6     H     0.30905  0.30905  0.00000  0.38190
       7     H     0.38761  0.38761  0.00000  0.22478
       8     H     0.41420  0.41420  0.00000  0.17160
       9     H     0.41425  0.41425  0.00000  0.17151

   Total alpha = 16.00000, Total beta = 16.00000, Total charge =  0.00000


*** PSI4 exiting successfully. Buy a developer a beer!
