    -----------------------------------------------------------------------
          Psi4: An Open-Source Ab Initio Electronic Structure Package
                              Psi4 (no tag) Driver

                          Git: Rev {detached?}  

    J. M. Turney, A. C. Simmonett, R. M. Parrish, E. G. Hohenstein,
    F. A. Evangelista, J. T. Fermann, B. J. Mintz, L. A. Burns, J. J. Wilke,
    M. L. Abrams, N. J. Russ, M. L. Leininger, C. L. Janssen, E. T. Seidl,
    W. D. Allen, H. F. Schaefer, R. A. King, E. F. Valeev, C. D. Sherrill,
    and T. D. Crawford, WIREs Comput. Mol. Sci. 2, 556-565 (2012)
    (doi: 10.1002/wcms.93)

                         Additional Contributions by
    A. E. DePrince, M. Saitow, U. Bozkaya, A. Yu. Sokolov
    -----------------------------------------------------------------------


    Psi4 started on: Tue Jul  5 17:06:25 2016

    Process ID:  29290
    PSI4DATADIR: /export131/home/mjharvey/miniconda3/share
    Memory level set to 256.000 MB

  ==> Input File <==

--------------------------------------------------------------------------
set {
	reference rhf
	basis 6-31G*
}


set_num_threads( 1 )
memory 2 gb

molecule MOL {
0 1

H	 -3.420663	 1.227371	 -1.044276
O	 -3.452007	 0.283848	 -0.965577
C	 -3.181085	 -0.079926	 0.364119
C	 -1.765924	 0.277073	 0.805136
H	 -3.327791	 -1.152017	 0.410903
H	 -3.905698	 0.375695	 1.036898
C	 -0.677594	 -0.417312	 -0.014550
H	 -1.637766	 1.358238	 0.744969
H	 -1.659588	 0.017670	 1.857098
C	 0.738335	 -0.034840	 0.421385
H	 -0.814977	 -0.178223	 -1.064632
H	 -0.802730	 -1.495410	 0.071702
C	 0.869236	 0.124775	 1.938446
H	 1.434164	 -0.791093	 0.065969
H	 1.026982	 0.897268	 -0.062827
C	 0.093880	 1.308430	 2.528310
H	 1.921859	 0.219560	 2.200546
H	 0.519867	 -0.788460	 2.415687
C	 -0.003127	 1.307636	 4.055069
H	 -0.912094	 1.300853	 2.115697
H	 0.550250	 2.238738	 2.195959
H	 -0.444717	 0.383009	 4.417287
H	 -0.624475	 2.127520	 4.402281
H	 0.969136	 1.415979	 4.524250

	symmetry c1
}
set optking {
	frozen_dihedral = ("
		20 16 13 17,
		17 13 10 7,
		11 7 4 3,
		1 2 3 5,
		7 4 3 2
	")
}

ee = energy('scf')
oeprop('DIPOLE', 'QUADRUPOLE', 'MULLIKEN_CHARGES')
f=open( 'psi4out.xyz', 'w' )
f.write( "24  " )
f.write( str(ee) + "\n" )
f.write( MOL.save_string_xyz() )
f.close()
--------------------------------------------------------------------------

  Memory set to   2.000 GiB by Python script.

*** tstart() called on cx1-1-3-2.cx1.hpc.ic.ac.uk
*** at Tue Jul  5 17:06:25 2016


         ---------------------------------------------------------
                                   SCF
            by Justin Turney, Rob Parrish, and Andy Simmonett
                              RHF Reference
                        1 Threads,   2000 MiB Core
         ---------------------------------------------------------

  ==> Geometry <==

    Molecular point group: c1
    Full point group: C1

    Geometry (in Angstrom), charge = 0, multiplicity = 1:

       Center              X                  Y                   Z               Mass       
    ------------   -----------------  -----------------  -----------------  -----------------
           H         -2.442837367085     0.869268910032    -2.165599551308     1.007825032070
           O         -2.474181367085    -0.074254089968    -2.086900551308    15.994914619560
           C         -2.203259367085    -0.438028089968    -0.757204551308    12.000000000000
           C         -0.788098367085    -0.081029089968    -0.316187551308    12.000000000000
           H         -2.349965367085    -1.510119089968    -0.710420551308     1.007825032070
           H         -2.927872367085     0.017592910032    -0.084425551308     1.007825032070
           C          0.300231632915    -0.775414089968    -1.135873551308    12.000000000000
           H         -0.659940367085     1.000135910032    -0.376354551308     1.007825032070
           H         -0.681762367085    -0.340432089968     0.735774448692     1.007825032070
           C          1.716160632915    -0.392942089968    -0.699938551308    12.000000000000
           H          0.162848632915    -0.536325089968    -2.185955551308     1.007825032070
           H          0.175095632915    -1.853512089968    -1.049621551308     1.007825032070
           C          1.847061632915    -0.233327089968     0.817122448692    12.000000000000
           H          2.411989632915    -1.149195089968    -1.055354551308     1.007825032070
           H          2.004807632915     0.539165910032    -1.184150551308     1.007825032070
           C          1.071705632915     0.950327910032     1.406986448692    12.000000000000
           H          2.899684632915    -0.138542089968     1.079222448692     1.007825032070
           H          1.497692632915    -1.146562089968     1.294363448692     1.007825032070
           C          0.974698632915     0.949533910032     2.933745448692    12.000000000000
           H          0.065731632915     0.942750910032     0.994373448692     1.007825032070
           H          1.528075632915     1.880635910032     1.074635448692     1.007825032070
           H          0.533108632915     0.024906910032     3.295963448692     1.007825032070
           H          0.353350632915     1.769417910032     3.280957448692     1.007825032070
           H          1.946961632915     1.057876910032     3.402926448692     1.007825032070

  Running in c1 symmetry.

  Rotational constants: A =      0.10171  B =      0.03285  C =      0.02670 [cm^-1]
  Rotational constants: A =   3049.17945  B =    984.94600  C =    800.41459 [MHz]
  Nuclear repulsion =  405.533275922320456

  Charge       = 0
  Multiplicity = 1
  Electrons    = 66
  Nalpha       = 33
  Nbeta        = 33

  ==> Algorithm <==

  SCF Algorithm Type is DF.
  DIIS enabled.
  MOM disabled.
  Fractional occupation disabled.
  Guess Type is CORE.
  Energy threshold   = 1.00e-06
  Density threshold  = 1.00e-06
  Integral threshold = 0.00e+00

  ==> Primary Basis <==

  Basis Set: 6-31G*
    Number of shells: 80
    Number of basis function: 152
    Number of Cartesian functions: 152
    Spherical Harmonics?: false
    Max angular momentum: 2

  ==> Pre-Iterations <==

   -------------------------------------------------------
    Irrep   Nso     Nmo     Nalpha   Nbeta   Ndocc  Nsocc
   -------------------------------------------------------
     A        152     152       0       0       0       0
   -------------------------------------------------------
    Total     152     152      33      33      33       0
   -------------------------------------------------------

 OEINTS: Overlap, kinetic, potential, dipole, and quadrupole integrals
         stored in file 35.

  ==> Integral Setup <==

  ==> DFJK: Density-Fitted J/K Matrices <==

    J tasked:                  Yes
    K tasked:                  Yes
    wK tasked:                  No
    OpenMP threads:              1
    Integrals threads:           1
    Memory (MB):              1430
    Algorithm:                Core
    Integral Cache:           NONE
    Schwarz Cutoff:          1E-12
    Fitting Condition:       1E-12

   => Auxiliary Basis Set <=

  Basis Set: 
    Number of shells: 336
    Number of basis function: 1048
    Number of Cartesian functions: 1048
    Spherical Harmonics?: false
    Max angular momentum: 3

  Minimum eigenvalue in the overlap matrix is 3.4417004072E-03.
  Using Symmetric Orthogonalization.
  SCF Guess: Core (One-Electron) Hamiltonian.

  ==> Iterations <==

                           Total Energy        Delta E     RMS |[F,P]|

   @DF-RHF iter   1:  -272.27493395300661   -2.72275e+02   6.14634e-02 
   @DF-RHF iter   2:  -127.04921585848791    1.45226e+02   9.11832e-02 DIIS
   @DF-RHF iter   3:  -291.12653556362926   -1.64077e+02   3.82696e-02 DIIS
   @DF-RHF iter   4:  -183.89325289568677    1.07233e+02   7.96049e-02 DIIS
   @DF-RHF iter   5:  -276.87469645859841   -9.29814e+01   5.29360e-02 DIIS
   @DF-RHF iter   6:  -333.25907936733887   -5.63844e+01   2.44416e-02 DIIS
   @DF-RHF iter   7:  -348.85678225801797   -1.55977e+01   5.26507e-03 DIIS
   @DF-RHF iter   8:  -349.16590807912388   -3.09126e-01   1.81680e-03 DIIS
   @DF-RHF iter   9:  -349.20089511717566   -3.49870e-02   4.39013e-04 DIIS
   @DF-RHF iter  10:  -349.20386393024063   -2.96881e-03   1.46396e-04 DIIS
   @DF-RHF iter  11:  -349.20422626698900   -3.62337e-04   4.93297e-05 DIIS
   @DF-RHF iter  12:  -349.20426802451885   -4.17575e-05   1.58371e-05 DIIS
   @DF-RHF iter  13:  -349.20427273321087   -4.70869e-06   4.60771e-06 DIIS
   @DF-RHF iter  14:  -349.20427326795738   -5.34747e-07   1.22184e-06 DIIS
   @DF-RHF iter  15:  -349.20427330092849   -3.29711e-08   4.31227e-07 DIIS

  ==> Post-Iterations <==

    Orbital Energies (a.u.)
    -----------------------

    Doubly Occupied:                                                      

       1A    -20.553830     2A    -11.267030     3A    -11.217294  
       4A    -11.213909     5A    -11.213160     6A    -11.212222  
       7A    -11.207508     8A    -11.201554     9A     -1.360476  
      10A     -1.101163    11A     -1.037537    12A     -0.993608  
      13A     -0.915513    14A     -0.868183    15A     -0.793310  
      16A     -0.781705    17A     -0.681481    18A     -0.667561  
      19A     -0.633481    20A     -0.607422    21A     -0.592920  
      22A     -0.578327    23A     -0.570215    24A     -0.547158  
      25A     -0.523347    26A     -0.514813    27A     -0.497400  
      28A     -0.478343    29A     -0.471730    30A     -0.459543  
      31A     -0.452306    32A     -0.430727    33A     -0.409087  

    Virtual:                                                              

      34A      0.215135    35A      0.237479    36A      0.243592  
      37A      0.264135    38A      0.280415    39A      0.292366  
      40A      0.303143    41A      0.309997    42A      0.326805  
      43A      0.329520    44A      0.331898    45A      0.342002  
      46A      0.349896    47A      0.360925    48A      0.374610  
      49A      0.382649    50A      0.402639    51A      0.418438  
      52A      0.428276    53A      0.448419    54A      0.469552  
      55A      0.483061    56A      0.491607    57A      0.705750  
      58A      0.714924    59A      0.733563    60A      0.754076  
      61A      0.767619    62A      0.774409    63A      0.807243  
      64A      0.820903    65A      0.870760    66A      0.901058  
      67A      0.915260    68A      0.942919    69A      0.947146  
      70A      0.962133    71A      0.991701    72A      1.014779  
      73A      1.043790    74A      1.072311    75A      1.078705  
      76A      1.103637    77A      1.144359    78A      1.151272  
      79A      1.160962    80A      1.166489    81A      1.170863  
      82A      1.179781    83A      1.194612    84A      1.199432  
      85A      1.204036    86A      1.213624    87A      1.223800  
      88A      1.238783    89A      1.253594    90A      1.259631  
      91A      1.266867    92A      1.285888    93A      1.321281  
      94A      1.327169    95A      1.342198    96A      1.396437  
      97A      1.476035    98A      1.517889    99A      1.633299  
     100A      1.663480   101A      1.698127   102A      1.718587  
     103A      1.765291   104A      1.809460   105A      1.866365  
     106A      1.874022   107A      1.947028   108A      1.957288  
     109A      2.013886   110A      2.059202   111A      2.098862  
     112A      2.120368   113A      2.151126   114A      2.185597  
     115A      2.212221   116A      2.248565   117A      2.277055  
     118A      2.296211   119A      2.320206   120A      2.349173  
     121A      2.352053   122A      2.419830   123A      2.432647  
     124A      2.476621   125A      2.497383   126A      2.521746  
     127A      2.588670   128A      2.612533   129A      2.665827  
     130A      2.677017   131A      2.707815   132A      2.732339  
     133A      2.753744   134A      2.771102   135A      2.799052  
     136A      2.835470   137A      2.875893   138A      2.933008  
     139A      2.998588   140A      3.051399   141A      3.073157  
     142A      3.111322   143A      3.168969   144A      3.219025  
     145A      4.186473   146A      4.573539   147A      4.641192  
     148A      4.721594   149A      4.786536   150A      4.861943  
     151A      4.982543   152A      5.023278  

    Final Occupation by Irrep:
              A 
    DOCC [    33 ]

  Energy converged.

  @DF-RHF Final Energy:  -349.20427330092849

   => Energetics <=

    Nuclear Repulsion Energy =            405.5332759223204562
    One-Electron Energy =               -1277.3675173610408820
    Two-Electron Energy =                 522.6299681377920479
    DFT Exchange-Correlation Energy =       0.0000000000000000
    Empirical Dispersion Energy =           0.0000000000000000
    PCM Polarization Energy =               0.0000000000000000
    EFP Energy =                            0.0000000000000000
    Total Energy =                       -349.2042733009284348

    Alert: EFP and PCM quantities not currently incorporated into SCF psivars.

Properties will be evaluated at   0.000000,   0.000000,   0.000000 Bohr
  ==> Properties <==


Properties computed using the SCF density matrix

  Nuclear Dipole Moment: (a.u.)
     X:     4.2226      Y:     1.3375      Z:     5.9395

  Electronic Dipole Moment: (a.u.)
     X:    -4.0894      Y:    -0.9141      Z:    -5.5366

  Dipole Moment: (a.u.)
     X:     0.1332      Y:     0.4233      Z:     0.4029     Total:     0.5994

  Dipole Moment: (Debye)
     X:     0.3387      Y:     1.0760      Z:     1.0241     Total:     1.5236


  Saving occupied orbitals to File 180.

*** tstop() called on cx1-1-3-2.cx1.hpc.ic.ac.uk at Tue Jul  5 17:06:47 2016
Module time:
	user time   =      21.16 seconds =       0.35 minutes
	system time =       0.21 seconds =       0.00 minutes
	total time  =         22 seconds =       0.37 minutes
Total time:
	user time   =      21.16 seconds =       0.35 minutes
	system time =       0.21 seconds =       0.00 minutes
	total time  =         22 seconds =       0.37 minutes


Properties will be evaluated at   0.000000,   0.000000,   0.000000 Bohr

Properties computed using the  density matrix

  Nuclear Dipole Moment: (a.u.)
     X:     4.2226      Y:     1.3375      Z:     5.9395

  Electronic Dipole Moment: (a.u.)
     X:    -4.0894      Y:    -0.9141      Z:    -5.5366

  Dipole Moment: (a.u.)
     X:     0.1332      Y:     0.4233      Z:     0.4029     Total:     0.5994

  Dipole Moment: (Debye)
     X:     0.3387      Y:     1.0760      Z:     1.0241     Total:     1.5236

  Quadrupole Moment: (Debye Ang)
    XX:   -56.3743     YY:   -51.3496     ZZ:   -59.0235
    XY:    -3.3737     XZ:    -4.5407     YZ:    -3.8173

  Traceless Quadrupole Moment: (Debye Ang)
    XX:    -0.7918     YY:     4.2329     ZZ:    -3.4411
    XY:    -3.3737     XZ:    -4.5407     YZ:    -3.8173

  Mulliken Charges: (a.u.)
   Center  Symbol    Alpha    Beta     Spin     Total
       1     H     0.28335  0.28335  0.00000  0.43330
       2     O     4.36931  4.36931  0.00000 -0.73862
       3     C     2.99063  2.99063  0.00000  0.01873
       4     C     3.19769  3.19769  0.00000 -0.39539
       5     H     0.41704  0.41704  0.00000  0.16592
       6     H     0.42894  0.42894  0.00000  0.14211
       7     C     3.14759  3.14759  0.00000 -0.29518
       8     H     0.41859  0.41859  0.00000  0.16282
       9     H     0.40916  0.40916  0.00000  0.18168
      10     C     3.15532  3.15532  0.00000 -0.31064
      11     H     0.40946  0.40946  0.00000  0.18108
      12     H     0.42201  0.42201  0.00000  0.15598
      13     C     3.15935  3.15935  0.00000 -0.31870
      14     H     0.41777  0.41777  0.00000  0.16445
      15     H     0.42381  0.42381  0.00000  0.15239
      16     C     3.15880  3.15880  0.00000 -0.31759
      17     H     0.41959  0.41959  0.00000  0.16082
      18     H     0.42578  0.42578  0.00000  0.14843
      19     C     3.23757  3.23757  0.00000 -0.47514
      20     H     0.41477  0.41477  0.00000  0.17046
      21     H     0.42584  0.42584  0.00000  0.14831
      22     H     0.42506  0.42506  0.00000  0.14988
      23     H     0.42129  0.42129  0.00000  0.15742
      24     H     0.42127  0.42127  0.00000  0.15745

   Total alpha = 33.00000, Total beta = 33.00000, Total charge = -0.00000


*** PSI4 exiting successfully. Buy a developer a beer!
