    -----------------------------------------------------------------------
          Psi4: An Open-Source Ab Initio Electronic Structure Package
                              Psi4 (no tag) Driver

                          Git: Rev {detached?}  

    J. M. Turney, A. C. Simmonett, R. M. Parrish, E. G. Hohenstein,
    F. A. Evangelista, J. T. Fermann, B. J. Mintz, L. A. Burns, J. J. Wilke,
    M. L. Abrams, N. J. Russ, M. L. Leininger, C. L. Janssen, E. T. Seidl,
    W. D. Allen, H. F. Schaefer, R. A. King, E. F. Valeev, C. D. Sherrill,
    and T. D. Crawford, WIREs Comput. Mol. Sci. 2, 556-565 (2012)
    (doi: 10.1002/wcms.93)

                         Additional Contributions by
    A. E. DePrince, M. Saitow, U. Bozkaya, A. Yu. Sokolov
    -----------------------------------------------------------------------


    Psi4 started on: Tue Jul  5 16:27:47 2016

    Process ID:  31389
    PSI4DATADIR: /export131/home/mjharvey/miniconda3/share
    Memory level set to 256.000 MB

  ==> Input File <==

--------------------------------------------------------------------------
set {
	reference rhf
	basis 6-31G*
}


set_num_threads( 1 )
memory 2 gb

molecule MOL {
0 1

H	 1.148083	 -1.049780	 0.784252
O	 1.319262	 -0.618148	 -0.041729
C	 0.709265	 0.639550	 -0.033818
C	 -0.731618	 0.623890	 0.404579
H	 0.777076	 1.014908	 -1.048565
H	 1.265711	 1.335604	 0.593001
C	 -1.452642	 -0.459442	 0.612620
H	 -1.174915	 1.597538	 0.545927
H	 -1.049355	 -1.444689	 0.464034
H	 -2.479071	 -0.396506	 0.926403

	symmetry c1
}
set optking {
	frozen_dihedral = ("
		5 3 4 7,
		3 4 7 9
	")
}

ee = energy('scf')
oeprop('DIPOLE', 'QUADRUPOLE', 'MULLIKEN_CHARGES')
f=open( 'psi4out.xyz', 'w' )
f.write( "10  " )
f.write( str(ee) + "\n" )
f.write( MOL.save_string_xyz() )
f.close()
--------------------------------------------------------------------------

  Memory set to   2.000 GiB by Python script.

*** tstart() called on cx1-3-5-2.cx1.hpc.ic.ac.uk
*** at Tue Jul  5 16:27:48 2016


         ---------------------------------------------------------
                                   SCF
            by Justin Turney, Rob Parrish, and Andy Simmonett
                              RHF Reference
                        1 Threads,   2000 MiB Core
         ---------------------------------------------------------

  ==> Geometry <==

    Molecular point group: c1
    Full point group: C1

    Geometry (in Angstrom), charge = 0, multiplicity = 1:

       Center              X                  Y                   Z               Mass       
    ------------   -----------------  -----------------  -----------------  -----------------
           H          1.115740191532    -1.064012798450     0.553110282623     1.007825032070
           O          1.286919191532    -0.632380798450    -0.272870717377    15.994914619560
           C          0.676922191532     0.625317201550    -0.264959717377    12.000000000000
           C         -0.763960808468     0.609657201550     0.173437282623    12.000000000000
           H          0.744733191532     1.000675201550    -1.279706717377     1.007825032070
           H          1.233368191532     1.321371201550     0.361859282623     1.007825032070
           C         -1.484984808468    -0.473674798450     0.381478282623    12.000000000000
           H         -1.207257808468     1.583305201550     0.314785282623     1.007825032070
           H         -1.081697808468    -1.458921798450     0.232892282623     1.007825032070
           H         -2.511413808468    -0.410738798450     0.695261282623     1.007825032070

  Running in c1 symmetry.

  Rotational constants: A =      0.57681  B =      0.19930  C =      0.15390 [cm^-1]
  Rotational constants: A =  17292.20739  B =   5974.83229  C =   4613.93113 [MHz]
  Nuclear repulsion =  119.530990574106099

  Charge       = 0
  Multiplicity = 1
  Electrons    = 32
  Nalpha       = 16
  Nbeta        = 16

  ==> Algorithm <==

  SCF Algorithm Type is DF.
  DIIS enabled.
  MOM disabled.
  Fractional occupation disabled.
  Guess Type is CORE.
  Energy threshold   = 1.00e-06
  Density threshold  = 1.00e-06
  Integral threshold = 0.00e+00

  ==> Primary Basis <==

  Basis Set: 6-31G*
    Number of shells: 36
    Number of basis function: 72
    Number of Cartesian functions: 72
    Spherical Harmonics?: false
    Max angular momentum: 2

  ==> Pre-Iterations <==

   -------------------------------------------------------
    Irrep   Nso     Nmo     Nalpha   Nbeta   Ndocc  Nsocc
   -------------------------------------------------------
     A         72      72       0       0       0       0
   -------------------------------------------------------
    Total      72      72      16      16      16       0
   -------------------------------------------------------

 OEINTS: Overlap, kinetic, potential, dipole, and quadrupole integrals
         stored in file 35.

  ==> Integral Setup <==

  ==> DFJK: Density-Fitted J/K Matrices <==

    J tasked:                  Yes
    K tasked:                  Yes
    wK tasked:                  No
    OpenMP threads:              1
    Integrals threads:           1
    Memory (MB):              1430
    Algorithm:                Core
    Integral Cache:           NONE
    Schwarz Cutoff:          1E-12
    Fitting Condition:       1E-12

   => Auxiliary Basis Set <=

  Basis Set: 
    Number of shells: 150
    Number of basis function: 474
    Number of Cartesian functions: 474
    Spherical Harmonics?: false
    Max angular momentum: 3

  Minimum eigenvalue in the overlap matrix is 3.7230964155E-03.
  Using Symmetric Orthogonalization.
  SCF Guess: Core (One-Electron) Hamiltonian.

  ==> Iterations <==

                           Total Energy        Delta E     RMS |[F,P]|

   @DF-RHF iter   1:  -158.44596909302129   -1.58446e+02   8.90672e-02 
   @DF-RHF iter   2:  -123.79969478103133    3.46463e+01   8.14332e-02 DIIS
   @DF-RHF iter   3:  -168.40508680774371   -4.46054e+01   5.79799e-02 DIIS
   @DF-RHF iter   4:  -188.22891526183173   -1.98238e+01   3.36611e-02 DIIS
   @DF-RHF iter   5:  -191.70830186201681   -3.47939e+00   9.57189e-03 DIIS
   @DF-RHF iter   6:  -191.87428641670277   -1.65985e-01   3.82463e-03 DIIS
   @DF-RHF iter   7:  -191.90885198001922   -3.45656e-02   1.64112e-03 DIIS
   @DF-RHF iter   8:  -191.91599496837216   -7.14299e-03   4.43851e-04 DIIS
   @DF-RHF iter   9:  -191.91666202788906   -6.67060e-04   1.15074e-04 DIIS
   @DF-RHF iter  10:  -191.91672095186510   -5.89240e-05   3.61677e-05 DIIS
   @DF-RHF iter  11:  -191.91672799974168   -7.04788e-06   1.43285e-05 DIIS
   @DF-RHF iter  12:  -191.91672920816359   -1.20842e-06   4.13816e-06 DIIS
   @DF-RHF iter  13:  -191.91672929371191   -8.55483e-08   9.20435e-07 DIIS

  ==> Post-Iterations <==

    Orbital Energies (a.u.)
    -----------------------

    Doubly Occupied:                                                      

       1A    -20.559754     2A    -11.278476     3A    -11.235003  
       4A    -11.223217     5A     -1.368884     6A     -1.060728  
       7A     -0.930752     8A     -0.771420     9A     -0.686046  
      10A     -0.663281    11A     -0.619506    12A     -0.569880  
      13A     -0.544799    14A     -0.488709    15A     -0.450043  
      16A     -0.367818  

    Virtual:                                                              

      17A      0.181151    18A      0.234729    19A      0.262494  
      20A      0.292416    21A      0.321171    22A      0.334776  
      23A      0.349484    24A      0.393564    25A      0.469258  
      26A      0.532557    27A      0.731944    28A      0.766725  
      29A      0.781069    30A      0.818019    31A      0.857174  
      32A      0.898684    33A      0.909676    34A      0.913161  
      35A      1.015625    36A      1.079371    37A      1.125593  
      38A      1.158319    39A      1.166857    40A      1.197935  
      41A      1.208776    42A      1.270163    43A      1.331701  
      44A      1.358258    45A      1.414686    46A      1.456875  
      47A      1.525330    48A      1.675964    49A      1.778908  
      50A      1.809142    51A      1.955714    52A      1.986977  
      53A      2.026445    54A      2.180962    55A      2.269604  
      56A      2.280237    57A      2.370851    58A      2.482091  
      59A      2.518640    60A      2.526864    61A      2.691806  
      62A      2.737192    63A      2.793346    64A      2.829082  
      65A      2.875193    66A      3.098456    67A      3.218264  
      68A      3.323068    69A      4.191350    70A      4.535169  
      71A      4.639060    72A      4.853702  

    Final Occupation by Irrep:
              A 
    DOCC [    16 ]

  Energy converged.

  @DF-RHF Final Energy:  -191.91672929371191

   => Energetics <=

    Nuclear Repulsion Energy =            119.5309905741060987
    One-Electron Energy =                -497.2586994018891460
    Two-Electron Energy =                 185.8109795340711230
    DFT Exchange-Correlation Energy =       0.0000000000000000
    Empirical Dispersion Energy =           0.0000000000000000
    PCM Polarization Energy =               0.0000000000000000
    EFP Energy =                            0.0000000000000000
    Total Energy =                       -191.9167292937119100

    Alert: EFP and PCM quantities not currently incorporated into SCF psivars.

Properties will be evaluated at   0.000000,   0.000000,   0.000000 Bohr
  ==> Properties <==


Properties computed using the SCF density matrix

  Nuclear Dipole Moment: (a.u.)
     X:    -1.5936      Y:     0.9079      Z:     0.8220

  Electronic Dipole Moment: (a.u.)
     X:     1.2385      Y:    -0.6000      Z:    -0.3135

  Dipole Moment: (a.u.)
     X:    -0.3551      Y:     0.3079      Z:     0.5085     Total:     0.6925

  Dipole Moment: (Debye)
     X:    -0.9027      Y:     0.7827      Z:     1.2924     Total:     1.7601


  Saving occupied orbitals to File 180.

*** tstop() called on cx1-3-5-2.cx1.hpc.ic.ac.uk at Tue Jul  5 16:27:51 2016
Module time:
	user time   =       2.70 seconds =       0.05 minutes
	system time =       0.03 seconds =       0.00 minutes
	total time  =          3 seconds =       0.05 minutes
Total time:
	user time   =       2.70 seconds =       0.05 minutes
	system time =       0.03 seconds =       0.00 minutes
	total time  =          3 seconds =       0.05 minutes


Properties will be evaluated at   0.000000,   0.000000,   0.000000 Bohr

Properties computed using the  density matrix

  Nuclear Dipole Moment: (a.u.)
     X:    -1.5936      Y:     0.9079      Z:     0.8220

  Electronic Dipole Moment: (a.u.)
     X:     1.2385      Y:    -0.6000      Z:    -0.3135

  Dipole Moment: (a.u.)
     X:    -0.3551      Y:     0.3079      Z:     0.5085     Total:     0.6925

  Dipole Moment: (Debye)
     X:    -0.9027      Y:     0.7827      Z:     1.2924     Total:     1.7601

  Quadrupole Moment: (Debye Ang)
    XX:   -26.8224     YY:   -22.6567     ZZ:   -25.7112
    XY:     1.0199     XZ:     1.2181     YZ:    -2.2147

  Traceless Quadrupole Moment: (Debye Ang)
    XX:    -1.7589     YY:     2.4067     ZZ:    -0.6478
    XY:     1.0199     XZ:     1.2181     YZ:    -2.2147

  Mulliken Charges: (a.u.)
   Center  Symbol    Alpha    Beta     Spin     Total
       1     H     0.28086  0.28086  0.00000  0.43829
       2     O     4.36845  4.36845  0.00000 -0.73690
       3     C     2.99664  2.99664  0.00000  0.00672
       4     C     3.09351  3.09351  0.00000 -0.18701
       5     H     0.40857  0.40857  0.00000  0.18286
       6     H     0.42491  0.42491  0.00000  0.15019
       7     C     3.20033  3.20033  0.00000 -0.40067
       8     H     0.40854  0.40854  0.00000  0.18291
       9     H     0.40898  0.40898  0.00000  0.18205
      10     H     0.40922  0.40922  0.00000  0.18156

   Total alpha = 16.00000, Total beta = 16.00000, Total charge = -0.00000


*** PSI4 exiting successfully. Buy a developer a beer!
