
    -----------------------------------------------------------------------
          Psi4: An Open-Source Ab Initio Electronic Structure Package
                               Psi4 1.1 release

                         Git: Rev {HEAD} add49b9 


    R. M. Parrish, L. A. Burns, D. G. A. Smith, A. C. Simmonett,
    A. E. DePrince III, E. G. Hohenstein, U. Bozkaya, A. Yu. Sokolov,
    R. Di Remigio, R. M. Richard, J. F. Gonthier, A. M. James,
    H. R. McAlexander, A. Kumar, M. Saitow, X. Wang, B. P. Pritchard,
    P. Verma, H. F. Schaefer III, K. Patkowski, R. A. King, E. F. Valeev,
    F. A. Evangelista, J. M. Turney, T. D. Crawford, and C. D. Sherrill,
    J. Chem. Theory Comput. in press (2017).
    (doi: 10.1021/acs.jctc.7b00174)

    -----------------------------------------------------------------------


    Psi4 started on: Thursday, 21 September 2017 02:46PM

    Process ID:  24675
    PSIDATADIR: /home/raimis/opt/miniconda3/envs/htmd/share/psi4
    Memory:     500.0 MiB
    Threads:    1
    
  ==> Input File <==

--------------------------------------------------------------------------
set_num_threads( 8 )
memory 2.000000 gb

set { reference rks }
set { basis cc-pVDZ }

molecule MOL {
    0 1
    noreorient
    nocom
    symmetry c1
    O    1.014300  -0.002300   0.060500
    O    2.462400  -0.107500  -0.002400
    H    0.821200  -0.823600  -0.430600
    H    2.626279   0.036202   0.949088
}

set optking { frozen_dihedral = (" 3 1 2 4 ") }

energy, wfn = energy('B3LYP-D3', return_wfn=True)

import os
os.chdir(os.environ['HTMD_PSI4_WORKDIR'])

oeprop(wfn, 'DIPOLE', 'QUADRUPOLE', 'MULLIKEN_CHARGES')

with open('psi4out.xyz', 'w') as f:
    f.write('4 ' )
    f.write('%.12f\n' % energy)
    f.write(MOL.save_string_xyz())
--------------------------------------------------------------------------
  Threads set to 8 by Python driver.

  Memory set to   1.863 GiB by Python driver.

*** tstart() called on computer03
*** at Thu Sep 21 14:46:34 2017

   => Loading Basis Set <=

    Name: CC-PVDZ
    Role: ORBITAL
    Keyword: BASIS
    atoms 1-2 entry O          line   190 file /home/raimis/opt/miniconda3/envs/htmd/share/psi4/basis/cc-pvdz.gbs 
    atoms 3-4 entry H          line    20 file /home/raimis/opt/miniconda3/envs/htmd/share/psi4/basis/cc-pvdz.gbs 


         ---------------------------------------------------------
                                   SCF
            by Justin Turney, Rob Parrish, and Andy Simmonett
                              RKS Reference
                        8 Threads,   1907 MiB Core
         ---------------------------------------------------------

  ==> Geometry <==

    Molecular point group: c1
    Full point group: C1

    Geometry (in Angstrom), charge = 0, multiplicity = 1:

       Center              X                  Y                   Z               Mass       
    ------------   -----------------  -----------------  -----------------  -----------------
           O          1.014300000000    -0.002300000000     0.060500000000    15.994914619560
           O          2.462400000000    -0.107500000000    -0.002400000000    15.994914619560
           H          0.821200000000    -0.823600000000    -0.430600000000     1.007825032070
           H          2.626279000000     0.036202000000     0.949088000000     1.007825032070

  Running in c1 symmetry.

  Rotational constants: A =      9.62666  B =      0.13856  C =      0.13731 [cm^-1]
  Rotational constants: A = 288599.92363  B =   4153.89449  C =   4116.39894 [MHz]
  Nuclear repulsion =   36.794231440161958

  Charge       = 0
  Multiplicity = 1
  Electrons    = 18
  Nalpha       = 9
  Nbeta        = 9

  ==> Algorithm <==

  SCF Algorithm Type is DF.
  DIIS enabled.
  MOM disabled.
  Fractional occupation disabled.
  Guess Type is SAD.
  Energy threshold   = 1.00e-06
  Density threshold  = 1.00e-06
  Integral threshold = 0.00e+00

  ==> Primary Basis <==

  Basis Set: CC-PVDZ
    Blend: CC-PVDZ
    Number of shells: 18
    Number of basis function: 38
    Number of Cartesian functions: 40
    Spherical Harmonics?: true
    Max angular momentum: 2

  ==> DFT Potential <==

   => B3LYP Composite Functional <= 

    B3LYP Hybrid-GGA Exchange-Correlation Functional (VWN1-RPA)

    P.J. Stephens et. al., J. Phys. Chem., 98, 11623-11627, 1994

    Points   =           5000
    Deriv    =              1
    GGA      =           TRUE
    Meta     =          FALSE

    X_LRC        =          FALSE
    X_Hybrid     =           TRUE
    X_Alpha      =   2.000000E-01
    X_Omega      =   0.000000E+00
    C_LRC        =          FALSE
    C_Hybrid     =          FALSE
    C_Alpha      =   0.000000E+00
    C_Omega      =   0.000000E+00

   => Exchange Functionals <=

    0.8000    B3_X
    0.2000      HF 

   => Correlation Functionals <=

    0.1900 VWN3RPA_C
    0.8100   LYP_C

   => Molecular Quadrature <=

    Radial Scheme    =       TREUTLER
    Pruning Scheme   =           FLAT
    Nuclear Scheme   =       TREUTLER

    BS radius alpha  =              1
    Pruning alpha    =              1
    Radial Points    =             75
    Spherical Points =            302
    Total Points     =          88340
    Total Blocks     =             91
    Max Points       =           4986
    Max Functions    =             38

   => -D3ZERO: Empirical Dispersion <=

    Grimme's -D3 (zero-damping) Dispersion Correction
    Grimme S.; Antony J.; Ehrlich S.; Krieg H. (2010), J. Chem. Phys., 132: 154104

        S6 =   1.000000E+00
        S8 =   1.703000E+00
       SR6 =   1.261000E+00
    ALPHA6 =   1.400000E+01

   => Loading Basis Set <=

    Name: (CC-PVDZ AUX)
    Role: JKFIT
    Keyword: DF_BASIS_SCF
    atoms 1-2 entry O          line   220 file /home/raimis/opt/miniconda3/envs/htmd/share/psi4/basis/cc-pvdz-jkfit.gbs 
    atoms 3-4 entry H          line    50 file /home/raimis/opt/miniconda3/envs/htmd/share/psi4/basis/cc-pvdz-jkfit.gbs 

  ==> Pre-Iterations <==

   -------------------------------------------------------
    Irrep   Nso     Nmo     Nalpha   Nbeta   Ndocc  Nsocc
   -------------------------------------------------------
     A         38      38       0       0       0       0
   -------------------------------------------------------
    Total      38      38       9       9       9       0
   -------------------------------------------------------

  ==> Integral Setup <==

  ==> DFJK: Density-Fitted J/K Matrices <==

    J tasked:                  Yes
    K tasked:                  Yes
    wK tasked:                  No
    OpenMP threads:              8
    Integrals threads:           8
    Memory (MB):              1430
    Algorithm:                Core
    Integral Cache:           NONE
    Schwarz Cutoff:          1E-12
    Fitting Condition:       1E-12

   => Auxiliary Basis Set <=

  Basis Set: (CC-PVDZ AUX)
    Blend: CC-PVDZ-JKFIT
    Number of shells: 66
    Number of basis function: 186
    Number of Cartesian functions: 212
    Spherical Harmonics?: true
    Max angular momentum: 3

  Minimum eigenvalue in the overlap matrix is 2.4885068814E-02.
  Using Symmetric Orthogonalization.

  SCF Guess: Superposition of Atomic Densities via on-the-fly atomic UHF.

  ==> Iterations <==

                           Total Energy        Delta E     RMS |[F,P]|

   @DF-RKS iter   0:  -151.76428615709571   -1.51764e+02   5.71358e-02 
   @DF-RKS iter   1:  -151.53106793501854    2.33218e-01   6.84666e-03 
   @DF-RKS iter   2:  -151.54374830422265   -1.26804e-02   3.79892e-03 DIIS
   @DF-RKS iter   3:  -151.54972957179424   -5.98127e-03   1.12294e-03 DIIS
   @DF-RKS iter   4:  -151.55034160003441   -6.12028e-04   1.63393e-04 DIIS
   @DF-RKS iter   5:  -151.55035293195698   -1.13319e-05   4.53795e-05 DIIS
   @DF-RKS iter   6:  -151.55035369239681   -7.60440e-07   1.97465e-05 DIIS
   @DF-RKS iter   7:  -151.55035389695917   -2.04562e-07   9.69903e-07 DIIS

  ==> Post-Iterations <==

    Orbital Energies (a.u.)
    -----------------------

    Doubly Occupied:                                                      

       1A    -19.186981     2A    -19.186940     3A     -1.111123  
       4A     -0.886374     5A     -0.505518     6A     -0.494582  
       7A     -0.407763     8A     -0.326183     9A     -0.258404  

    Virtual:                                                              

      10A      0.025602    11A      0.051126    12A      0.104143  
      13A      0.572905    14A      0.581825    15A      0.845784  
      16A      0.870131    17A      0.878521    18A      0.952753  
      19A      1.016692    20A      1.065038    21A      1.203878  
      22A      1.284936    23A      1.376875    24A      1.436394  
      25A      1.669351    26A      1.737707    27A      2.063027  
      28A      2.087487    29A      2.371894    30A      2.408512  
      31A      2.595493    32A      2.895796    33A      2.898004  
      34A      3.028375    35A      3.148545    36A      3.502222  
      37A      3.519293    38A      3.831536  

    Final Occupation by Irrep:
              A 
    DOCC [     9 ]

  Energy converged.

  @DF-RKS Final Energy:  -151.55035389695917

   => Energetics <=

    Nuclear Repulsion Energy =             36.7942314401619583
    One-Electron Energy =                -281.5768122472974255
    Two-Electron Energy =                 107.6951687828674977
    DFT Exchange-Correlation Energy =     -14.4626165226911922
    Empirical Dispersion Energy =          -0.0003253500000000
    PCM Polarization Energy =               0.0000000000000000
    EFP Energy =                            0.0000000000000000
    Total Energy =                       -151.5503538969591375



Properties will be evaluated at   0.000000,   0.000000,   0.000000 Bohr

Properties computed using the SCF density matrix

  Nuclear Dipole Moment: (a.u.)
     X:    59.0749      Y:    -3.1479      Z:     1.8581

  Electronic Dipole Moment: (a.u.)
     X:   -59.0948      Y:     2.6872      Z:    -1.5451

  Dipole Moment: (a.u.)
     X:    -0.0199      Y:    -0.4608      Z:     0.3131     Total:     0.5574

  Dipole Moment: (Debye)
     X:    -0.0505      Y:    -1.1711      Z:     0.7958     Total:     1.4168


*** tstop() called on computer03 at Thu Sep 21 14:46:46 2017
Module time:
	user time   =      12.57 seconds =       0.21 minutes
	system time =       0.49 seconds =       0.01 minutes
	total time  =         12 seconds =       0.20 minutes
Total time:
	user time   =      12.57 seconds =       0.21 minutes
	system time =       0.49 seconds =       0.01 minutes
	total time  =         12 seconds =       0.20 minutes


Properties will be evaluated at   0.000000,   0.000000,   0.000000 Bohr

Properties computed using the  density matrix

  Nuclear Dipole Moment: (a.u.)
     X:    59.0749      Y:    -3.1479      Z:     1.8581

  Electronic Dipole Moment: (a.u.)
     X:   -59.0948      Y:     2.6872      Z:    -1.5451

  Dipole Moment: (a.u.)
     X:    -0.0199      Y:    -0.4608      Z:     0.3131     Total:     0.5574

  Dipole Moment: (Debye)
     X:    -0.0505      Y:    -1.1711      Z:     0.7958     Total:     1.4168

  Quadrupole Moment: (Debye Ang)
    XX:   -11.0736     YY:   -10.7422     ZZ:    -9.7214
    XY:    -0.3465     XZ:     3.9047     YZ:     1.0215

  Traceless Quadrupole Moment: (Debye Ang)
    XX:    -0.5612     YY:    -0.2298     ZZ:     0.7910
    XY:    -0.3465     XZ:     3.9047     YZ:     1.0215

  Mulliken Charges: (a.u.)
   Center  Symbol    Alpha    Beta     Spin     Total
       1     O     4.09119  4.09119  0.00000 -0.18237
       2     O     4.09117  4.09117  0.00000 -0.18233
       3     H     0.40881  0.40881  0.00000  0.18238
       4     H     0.40883  0.40883  0.00000  0.18233

   Total alpha =  9.00000, Total beta =  9.00000, Total charge =  0.00000


*** Psi4 exiting successfully. Buy a developer a beer!
