    -----------------------------------------------------------------------
          Psi4: An Open-Source Ab Initio Electronic Structure Package
                              Psi4 (no tag) Driver

                          Git: Rev {detached?}  

    J. M. Turney, A. C. Simmonett, R. M. Parrish, E. G. Hohenstein,
    F. A. Evangelista, J. T. Fermann, B. J. Mintz, L. A. Burns, J. J. Wilke,
    M. L. Abrams, N. J. Russ, M. L. Leininger, C. L. Janssen, E. T. Seidl,
    W. D. Allen, H. F. Schaefer, R. A. King, E. F. Valeev, C. D. Sherrill,
    and T. D. Crawford, WIREs Comput. Mol. Sci. 2, 556-565 (2012)
    (doi: 10.1002/wcms.93)

                         Additional Contributions by
    A. E. DePrince, M. Saitow, U. Bozkaya, A. Yu. Sokolov
    -----------------------------------------------------------------------


    Psi4 started on: Tue Jul  5 16:34:19 2016

    Process ID:  25479
    PSI4DATADIR: /export131/home/mjharvey/miniconda3/share
    Memory level set to 256.000 MB

  ==> Input File <==

--------------------------------------------------------------------------
set {
	reference rhf
	basis 6-31G*
}


set_num_threads( 1 )
memory 2 gb

molecule MOL {
0 1

H	 -2.798360	 -0.862255	 -0.071053
N	 -1.863561	 -0.715187	 0.256814
C	 -1.344686	 0.554728	 -0.219830
H	 -1.300452	 -1.461917	 -0.101532
C	 0.018572	 0.353338	 -0.847605
H	 -1.989803	 1.046548	 -0.949172
H	 -1.239283	 1.226201	 0.626808
O	 0.904520	 -0.062816	 0.151895
H	 -0.036766	 -0.397790	 -1.635250
H	 0.359482	 1.287234	 -1.289028
C	 2.222811	 -0.204566	 -0.271883
H	 2.807711	 -0.528190	 0.578327
H	 2.309192	 -0.948915	 -1.061480
H	 2.625627	 0.736892	 -0.639585

	symmetry c1
}
set optking {
	frozen_dihedral = ("
		8 5 3 6,
		5 8 11 13,
		11 8 5 3
	")
}

ee = energy('scf')
oeprop('DIPOLE', 'QUADRUPOLE', 'MULLIKEN_CHARGES')
f=open( 'psi4out.xyz', 'w' )
f.write( "14  " )
f.write( str(ee) + "\n" )
f.write( MOL.save_string_xyz() )
f.close()
--------------------------------------------------------------------------

  Memory set to   2.000 GiB by Python script.

*** tstart() called on cx1-3-6-4.cx1.hpc.ic.ac.uk
*** at Tue Jul  5 16:34:19 2016


         ---------------------------------------------------------
                                   SCF
            by Justin Turney, Rob Parrish, and Andy Simmonett
                              RHF Reference
                        1 Threads,   2000 MiB Core
         ---------------------------------------------------------

  ==> Geometry <==

    Molecular point group: c1
    Full point group: C1

    Geometry (in Angstrom), charge = 0, multiplicity = 1:

       Center              X                  Y                   Z               Mass       
    ------------   -----------------  -----------------  -----------------  -----------------
           H         -2.796703102704    -0.829232060457     0.123750489989     1.007825032070
           N         -1.861904102704    -0.682164060457     0.451617489989    14.003074004780
           C         -1.343029102704     0.587750939543    -0.025026510011    12.000000000000
           H         -1.298795102704    -1.428894060457     0.093271489989     1.007825032070
           C          0.020228897296     0.386360939543    -0.652801510011    12.000000000000
           H         -1.988146102704     1.079570939543    -0.754368510011     1.007825032070
           H         -1.237626102704     1.259223939543     0.821611489989     1.007825032070
           O          0.906176897296    -0.029793060457     0.346698489989    15.994914619560
           H         -0.035109102704    -0.364767060457    -1.440446510011     1.007825032070
           H          0.361138897296     1.320256939543    -1.094224510011     1.007825032070
           C          2.224467897296    -0.171543060457    -0.077079510011    12.000000000000
           H          2.809367897296    -0.495167060457     0.773130489989     1.007825032070
           H          2.310848897296    -0.915892060457    -0.866676510011     1.007825032070
           H          2.627283897296     0.769914939543    -0.444781510011     1.007825032070

  Running in c1 symmetry.

  Rotational constants: A =      0.45128  B =      0.08929  C =      0.08168 [cm^-1]
  Rotational constants: A =  13528.94027  B =   2676.82972  C =   2448.61757 [MHz]
  Nuclear repulsion =  194.734876355639244

  Charge       = 0
  Multiplicity = 1
  Electrons    = 42
  Nalpha       = 21
  Nbeta        = 21

  ==> Algorithm <==

  SCF Algorithm Type is DF.
  DIIS enabled.
  MOM disabled.
  Fractional occupation disabled.
  Guess Type is CORE.
  Energy threshold   = 1.00e-06
  Density threshold  = 1.00e-06
  Integral threshold = 0.00e+00

  ==> Primary Basis <==

  Basis Set: 6-31G*
    Number of shells: 48
    Number of basis function: 93
    Number of Cartesian functions: 93
    Spherical Harmonics?: false
    Max angular momentum: 2

  ==> Pre-Iterations <==

   -------------------------------------------------------
    Irrep   Nso     Nmo     Nalpha   Nbeta   Ndocc  Nsocc
   -------------------------------------------------------
     A         93      93       0       0       0       0
   -------------------------------------------------------
    Total      93      93      21      21      21       0
   -------------------------------------------------------

 OEINTS: Overlap, kinetic, potential, dipole, and quadrupole integrals
         stored in file 35.

  ==> Integral Setup <==

  ==> DFJK: Density-Fitted J/K Matrices <==

    J tasked:                  Yes
    K tasked:                  Yes
    wK tasked:                  No
    OpenMP threads:              1
    Integrals threads:           1
    Memory (MB):              1430
    Algorithm:                Core
    Integral Cache:           NONE
    Schwarz Cutoff:          1E-12
    Fitting Condition:       1E-12

   => Auxiliary Basis Set <=

  Basis Set: 
    Number of shells: 201
    Number of basis function: 630
    Number of Cartesian functions: 630
    Spherical Harmonics?: false
    Max angular momentum: 3

  Minimum eigenvalue in the overlap matrix is 4.3790938151E-03.
  Using Symmetric Orthogonalization.
  SCF Guess: Core (One-Electron) Hamiltonian.

  ==> Iterations <==

                           Total Energy        Delta E     RMS |[F,P]|

   @DF-RHF iter   1:  -201.57541488546684   -2.01575e+02   7.99288e-02 
   @DF-RHF iter   2:  -154.88879364877039    4.66866e+01   6.69278e-02 DIIS
   @DF-RHF iter   3:  -211.39931735182864   -5.65105e+01   6.10789e-02 DIIS
   @DF-RHF iter   4:  -239.05245825250967   -2.76531e+01   4.13548e-02 DIIS
   @DF-RHF iter   5:  -247.80445768354014   -8.75200e+00   8.27199e-03 DIIS
   @DF-RHF iter   6:  -248.06771635135317   -2.63259e-01   3.30856e-03 DIIS
   @DF-RHF iter   7:  -248.11237018603077   -4.46538e-02   8.48922e-04 DIIS
   @DF-RHF iter   8:  -248.11566506107454   -3.29488e-03   2.67027e-04 DIIS
   @DF-RHF iter   9:  -248.11606389236300   -3.98831e-04   8.33561e-05 DIIS
   @DF-RHF iter  10:  -248.11611231791750   -4.84256e-05   2.88246e-05 DIIS
   @DF-RHF iter  11:  -248.11611874753305   -6.42962e-06   7.70261e-06 DIIS
   @DF-RHF iter  12:  -248.11611913671322   -3.89180e-07   2.81480e-06 DIIS
   @DF-RHF iter  13:  -248.11611919354107   -5.68278e-08   5.37266e-07 DIIS

  ==> Post-Iterations <==

    Orbital Energies (a.u.)
    -----------------------

    Doubly Occupied:                                                      

       1A    -20.557605     2A    -15.527463     3A    -11.272058  
       4A    -11.266932     5A    -11.240808     6A     -1.382287  
       7A     -1.175803     8A     -1.000091     9A     -0.907239  
      10A     -0.823348    11A     -0.687212    12A     -0.671130  
      13A     -0.650002    14A     -0.610434    15A     -0.583268  
      16A     -0.576241    17A     -0.519898    18A     -0.497782  
      19A     -0.474512    20A     -0.420574    21A     -0.375943  

    Virtual:                                                              

      22A      0.226169    23A      0.253841    24A      0.277393  
      25A      0.292146    26A      0.310982    27A      0.319963  
      28A      0.327882    29A      0.341002    30A      0.349328  
      31A      0.370374    32A      0.428366    33A      0.444875  
      34A      0.463207    35A      0.722355    36A      0.763432  
      37A      0.771504    38A      0.804700    39A      0.811869  
      40A      0.866420    41A      0.883215    42A      0.927202  
      43A      0.991817    44A      1.018496    45A      1.062345  
      46A      1.091152    47A      1.119562    48A      1.132948  
      49A      1.153859    50A      1.164765    51A      1.184243  
      52A      1.206364    53A      1.219889    54A      1.242208  
      55A      1.251788    56A      1.269182    57A      1.308238  
      58A      1.378963    59A      1.418893    60A      1.538109  
      61A      1.663428    62A      1.676046    63A      1.729327  
      64A      1.757885    65A      1.787519    66A      1.943078  
      67A      2.036716    68A      2.081926    69A      2.221342  
      70A      2.247826    71A      2.309116    72A      2.388329  
      73A      2.393294    74A      2.430634    75A      2.470709  
      76A      2.497034    77A      2.503092    78A      2.608801  
      79A      2.619722    80A      2.684160    81A      2.740283  
      82A      2.831116    83A      2.882116    84A      2.895654  
      85A      3.022857    86A      3.105420    87A      3.193379  
      88A      3.338457    89A      4.218822    90A      4.360890  
      91A      4.652087    92A      4.697251    93A      4.894858  

    Final Occupation by Irrep:
              A 
    DOCC [    21 ]

  Energy converged.

  @DF-RHF Final Energy:  -248.11611919354107

   => Energetics <=

    Nuclear Repulsion Energy =            194.7348763556392441
    One-Electron Energy =                -723.2606401559967253
    Two-Electron Energy =                 280.4096446068169826
    DFT Exchange-Correlation Energy =       0.0000000000000000
    Empirical Dispersion Energy =           0.0000000000000000
    PCM Polarization Energy =               0.0000000000000000
    EFP Energy =                            0.0000000000000000
    Total Energy =                       -248.1161191935404986

    Alert: EFP and PCM quantities not currently incorporated into SCF psivars.

Properties will be evaluated at   0.000000,   0.000000,   0.000000 Bohr
  ==> Properties <==


Properties computed using the SCF density matrix

  Nuclear Dipole Moment: (a.u.)
     X:     0.7150      Y:     0.3722      Z:    -2.6140

  Electronic Dipole Moment: (a.u.)
     X:    -0.5431      Y:    -0.2870      Z:     1.5001

  Dipole Moment: (a.u.)
     X:     0.1719      Y:     0.0851      Z:    -1.1139     Total:     1.1303

  Dipole Moment: (Debye)
     X:     0.4369      Y:     0.2163      Z:    -2.8312     Total:     2.8729


  Saving occupied orbitals to File 180.

*** tstop() called on cx1-3-6-4.cx1.hpc.ic.ac.uk at Tue Jul  5 16:34:24 2016
Module time:
	user time   =       4.80 seconds =       0.08 minutes
	system time =       0.06 seconds =       0.00 minutes
	total time  =          5 seconds =       0.08 minutes
Total time:
	user time   =       4.80 seconds =       0.08 minutes
	system time =       0.06 seconds =       0.00 minutes
	total time  =          5 seconds =       0.08 minutes


Properties will be evaluated at   0.000000,   0.000000,   0.000000 Bohr

Properties computed using the  density matrix

  Nuclear Dipole Moment: (a.u.)
     X:     0.7150      Y:     0.3722      Z:    -2.6140

  Electronic Dipole Moment: (a.u.)
     X:    -0.5431      Y:    -0.2870      Z:     1.5001

  Dipole Moment: (a.u.)
     X:     0.1719      Y:     0.0851      Z:    -1.1139     Total:     1.1303

  Dipole Moment: (Debye)
     X:     0.4369      Y:     0.2163      Z:    -2.8312     Total:     2.8729

  Quadrupole Moment: (Debye Ang)
    XX:   -27.4104     YY:   -30.9209     ZZ:   -35.0381
    XY:    -0.3326     XZ:     2.6434     YZ:     1.2408

  Traceless Quadrupole Moment: (Debye Ang)
    XX:     3.7127     YY:     0.2022     ZZ:    -3.9150
    XY:    -0.3326     XZ:     2.6434     YZ:     1.2408

  Mulliken Charges: (a.u.)
   Center  Symbol    Alpha    Beta     Spin     Total
       1     H     0.33451  0.33451  0.00000  0.33097
       2     N     3.92081  3.92081  0.00000 -0.84161
       3     C     3.05694  3.05694  0.00000 -0.11387
       4     H     0.32875  0.32875  0.00000  0.34249
       5     C     3.00722  3.00722  0.00000 -0.01444
       6     H     0.42882  0.42882  0.00000  0.14236
       7     H     0.41047  0.41047  0.00000  0.17906
       8     O     4.30031  4.30031  0.00000 -0.60061
       9     H     0.43384  0.43384  0.00000  0.13232
      10     H     0.42788  0.42788  0.00000  0.14424
      11     C     3.07938  3.07938  0.00000 -0.15876
      12     H     0.41005  0.41005  0.00000  0.17991
      13     H     0.43130  0.43130  0.00000  0.13740
      14     H     0.42973  0.42973  0.00000  0.14053

   Total alpha = 21.00000, Total beta = 21.00000, Total charge = -0.00000


*** PSI4 exiting successfully. Buy a developer a beer!
