    -----------------------------------------------------------------------
          Psi4: An Open-Source Ab Initio Electronic Structure Package
                              Psi4 (no tag) Driver

                          Git: Rev {detached?}  

    J. M. Turney, A. C. Simmonett, R. M. Parrish, E. G. Hohenstein,
    F. A. Evangelista, J. T. Fermann, B. J. Mintz, L. A. Burns, J. J. Wilke,
    M. L. Abrams, N. J. Russ, M. L. Leininger, C. L. Janssen, E. T. Seidl,
    W. D. Allen, H. F. Schaefer, R. A. King, E. F. Valeev, C. D. Sherrill,
    and T. D. Crawford, WIREs Comput. Mol. Sci. 2, 556-565 (2012)
    (doi: 10.1002/wcms.93)

                         Additional Contributions by
    A. E. DePrince, M. Saitow, U. Bozkaya, A. Yu. Sokolov
    -----------------------------------------------------------------------


    Psi4 started on: Tue Jul  5 16:26:52 2016

    Process ID:  20293
    PSI4DATADIR: /export131/home/mjharvey/miniconda3/share
    Memory level set to 256.000 MB

  ==> Input File <==

--------------------------------------------------------------------------
set {
	reference rhf
	basis 6-31G*
}


set_num_threads( 1 )
memory 2 gb

molecule MOL {
0 1

H	 -2.672831	 0.730263	 0.055977
O	 -2.315789	 -0.143634	 -0.024262
C	 -0.945151	 -0.064130	 -0.333158
H	 -0.813375	 -0.223047	 -1.403232
C	 -0.232801	 -1.184051	 0.407206
C	 -0.355424	 1.302939	 0.054523
H	 -0.318824	 -0.992899	 1.473524
H	 -0.742411	 -2.122033	 0.217954
C	 1.248522	 -1.270719	 -0.013048
H	 -0.546144	 2.018388	 -0.742941
H	 -0.890929	 1.656788	 0.930149
C	 1.156425	 1.235120	 0.355905
H	 1.825384	 -1.683246	 0.809111
H	 1.357782	 -1.965923	 -0.840362
C	 1.828244	 0.099899	 -0.419275
H	 1.626109	 2.185622	 0.123525
H	 1.309438	 1.071213	 1.419539
H	 2.901447	 0.112642	 -0.255830
H	 1.681817	 0.263413	 -1.484607

	symmetry c1
}
ee = energy('scf')
oeprop('DIPOLE', 'QUADRUPOLE', 'MULLIKEN_CHARGES')
f=open( 'psi4out.xyz', 'w' )
f.write( "19  " )
f.write( str(ee) + "\n" )
f.write( MOL.save_string_xyz() )
f.close()
--------------------------------------------------------------------------

  Memory set to   2.000 GiB by Python script.

*** tstart() called on cx1-3-15-2.cx1.hpc.ic.ac.uk
*** at Tue Jul  5 16:26:52 2016


         ---------------------------------------------------------
                                   SCF
            by Justin Turney, Rob Parrish, and Andy Simmonett
                              RHF Reference
                        1 Threads,   2000 MiB Core
         ---------------------------------------------------------

  ==> Geometry <==

    Molecular point group: c1
    Full point group: C1

    Geometry (in Angstrom), charge = 0, multiplicity = 1:

       Center              X                  Y                   Z               Mass       
    ------------   -----------------  -----------------  -----------------  -----------------
           H         -2.673943111951     0.728357802516     0.050552379317     1.007825032070
           O         -2.316901111951    -0.145539197484    -0.029686620683    15.994914619560
           C         -0.946263111951    -0.066035197484    -0.338582620683    12.000000000000
           H         -0.814487111951    -0.224952197484    -1.408656620683     1.007825032070
           C         -0.233913111951    -1.185956197484     0.401781379317    12.000000000000
           C         -0.356536111951     1.301033802516     0.049098379317    12.000000000000
           H         -0.319936111951    -0.994804197484     1.468099379317     1.007825032070
           H         -0.743523111951    -2.123938197484     0.212529379317     1.007825032070
           C          1.247409888049    -1.272624197484    -0.018472620683    12.000000000000
           H         -0.547256111951     2.016482802516    -0.748365620683     1.007825032070
           H         -0.892041111951     1.654882802516     0.924724379317     1.007825032070
           C          1.155312888049     1.233214802516     0.350480379317    12.000000000000
           H          1.824271888049    -1.685151197484     0.803686379317     1.007825032070
           H          1.356669888049    -1.967828197484    -0.845786620683     1.007825032070
           C          1.827131888049     0.097993802516    -0.424699620683    12.000000000000
           H          1.624996888049     2.183716802516     0.118100379317     1.007825032070
           H          1.308325888049     1.069307802516     1.414114379317     1.007825032070
           H          2.900334888049     0.110736802516    -0.261254620683     1.007825032070
           H          1.680704888049     0.261507802516    -1.490031620683     1.007825032070

  Running in c1 symmetry.

  Rotational constants: A =      0.14109  B =      0.07577  C =      0.05522 [cm^-1]
  Rotational constants: A =   4229.89805  B =   2271.66051  C =   1655.37447 [MHz]
  Nuclear repulsion =  331.644252839848036

  Charge       = 0
  Multiplicity = 1
  Electrons    = 56
  Nalpha       = 28
  Nbeta        = 28

  ==> Algorithm <==

  SCF Algorithm Type is DF.
  DIIS enabled.
  MOM disabled.
  Fractional occupation disabled.
  Guess Type is CORE.
  Energy threshold   = 1.00e-06
  Density threshold  = 1.00e-06
  Integral threshold = 0.00e+00

  ==> Primary Basis <==

  Basis Set: 6-31G*
    Number of shells: 66
    Number of basis function: 129
    Number of Cartesian functions: 129
    Spherical Harmonics?: false
    Max angular momentum: 2

  ==> Pre-Iterations <==

   -------------------------------------------------------
    Irrep   Nso     Nmo     Nalpha   Nbeta   Ndocc  Nsocc
   -------------------------------------------------------
     A        129     129       0       0       0       0
   -------------------------------------------------------
    Total     129     129      28      28      28       0
   -------------------------------------------------------

 OEINTS: Overlap, kinetic, potential, dipole, and quadrupole integrals
         stored in file 35.

  ==> Integral Setup <==

  ==> DFJK: Density-Fitted J/K Matrices <==

    J tasked:                  Yes
    K tasked:                  Yes
    wK tasked:                  No
    OpenMP threads:              1
    Integrals threads:           1
    Memory (MB):              1430
    Algorithm:                Core
    Integral Cache:           NONE
    Schwarz Cutoff:          1E-12
    Fitting Condition:       1E-12

   => Auxiliary Basis Set <=

  Basis Set: 
    Number of shells: 276
    Number of basis function: 867
    Number of Cartesian functions: 867
    Spherical Harmonics?: false
    Max angular momentum: 3

  Minimum eigenvalue in the overlap matrix is 2.1019708818E-03.
  Using Symmetric Orthogonalization.
  SCF Guess: Core (One-Electron) Hamiltonian.

  ==> Iterations <==

                           Total Energy        Delta E     RMS |[F,P]|

   @DF-RHF iter   1:  -247.64668983331956   -2.47647e+02   6.64333e-02 
   @DF-RHF iter   2:  -206.25981231652031    4.13869e+01   5.54311e-02 DIIS
   @DF-RHF iter   3:  -229.06183907286675   -2.28020e+01   6.55415e-02 DIIS
   @DF-RHF iter   4:  -302.14888619551380   -7.30870e+01   2.01048e-02 DIIS
   @DF-RHF iter   5:  -308.19570817029751   -6.04682e+00   1.01626e-02 DIIS
   @DF-RHF iter   6:  -309.00117194007180   -8.05464e-01   2.12522e-03 DIIS
   @DF-RHF iter   7:  -309.03495841632946   -3.37865e-02   1.02553e-03 DIIS
   @DF-RHF iter   8:  -309.04506897188548   -1.01106e-02   3.89409e-04 DIIS
   @DF-RHF iter   9:  -309.04660545054821   -1.53648e-03   1.26426e-04 DIIS
   @DF-RHF iter  10:  -309.04675011413030   -1.44664e-04   4.55612e-05 DIIS
   @DF-RHF iter  11:  -309.04677927011937   -2.91560e-05   8.09907e-06 DIIS
   @DF-RHF iter  12:  -309.04678040756937   -1.13745e-06   2.31643e-06 DIIS
   @DF-RHF iter  13:  -309.04678050316852   -9.55991e-08   4.76726e-07 DIIS

  ==> Post-Iterations <==

    Orbital Energies (a.u.)
    -----------------------

    Doubly Occupied:                                                      

       1A    -20.548637     2A    -11.268561     3A    -11.221164  
       4A    -11.220588     5A    -11.217416     6A    -11.215078  
       7A    -11.207032     8A     -1.358660     9A     -1.109943  
      10A     -1.004599    11A     -0.988719    12A     -0.847295  
      13A     -0.838181    14A     -0.740279    15A     -0.680277  
      16A     -0.668440    17A     -0.625315    18A     -0.599167  
      19A     -0.581704    20A     -0.548839    21A     -0.527196  
      22A     -0.520936    23A     -0.501819    24A     -0.484993  
      25A     -0.467759    26A     -0.449820    27A     -0.426585  
      28A     -0.412815  

    Virtual:                                                              

      29A      0.217456    30A      0.239393    31A      0.247648  
      32A      0.278956    33A      0.293309    34A      0.302657  
      35A      0.306705    36A      0.322485    37A      0.336201  
      38A      0.353247    39A      0.357833    40A      0.378878  
      41A      0.386644    42A      0.400809    43A      0.427628  
      44A      0.460048    45A      0.487859    46A      0.500030  
      47A      0.526128    48A      0.721772    49A      0.727785  
      50A      0.767160    51A      0.780892    52A      0.797488  
      53A      0.809007    54A      0.824849    55A      0.880560  
      56A      0.924576    57A      0.934030    58A      0.954368  
      59A      0.978022    60A      0.983483    61A      1.021719  
      62A      1.030524    63A      1.042433    64A      1.115522  
      65A      1.130206    66A      1.134544    67A      1.146475  
      68A      1.162662    69A      1.172390    70A      1.179139  
      71A      1.184344    72A      1.203927    73A      1.217807  
      74A      1.233091    75A      1.244370    76A      1.261845  
      77A      1.292904    78A      1.336231    79A      1.404455  
      80A      1.417918    81A      1.500931    82A      1.561880  
      83A      1.609978    84A      1.634632    85A      1.674559  
      86A      1.750189    87A      1.860678    88A      1.892111  
      89A      1.938020    90A      2.007625    91A      2.029779  
      92A      2.088112    93A      2.106147    94A      2.162299  
      95A      2.168094    96A      2.190046    97A      2.233010  
      98A      2.275332    99A      2.293997   100A      2.334334  
     101A      2.360602   102A      2.411008   103A      2.425129  
     104A      2.462329   105A      2.480856   106A      2.545798  
     107A      2.593626   108A      2.627517   109A      2.644545  
     110A      2.727629   111A      2.763893   112A      2.786752  
     113A      2.800535   114A      2.845081   115A      2.893369  
     116A      2.933254   117A      3.007872   118A      3.027681  
     119A      3.064382   120A      3.098471   121A      3.207120  
     122A      3.316469   123A      4.279657   124A      4.585360  
     125A      4.702192   126A      4.747370   127A      4.885063  
     128A      4.973418   129A      5.148676  

    Final Occupation by Irrep:
              A 
    DOCC [    28 ]

  Energy converged.

  @DF-RHF Final Energy:  -309.04678050316852

   => Energetics <=

    Nuclear Repulsion Energy =            331.6442528398480363
    One-Electron Energy =               -1076.8182259547256763
    Two-Electron Energy =                 436.1271926117102566
    DFT Exchange-Correlation Energy =       0.0000000000000000
    Empirical Dispersion Energy =           0.0000000000000000
    PCM Polarization Energy =               0.0000000000000000
    EFP Energy =                            0.0000000000000000
    Total Energy =                       -309.0467805031673834

    Alert: EFP and PCM quantities not currently incorporated into SCF psivars.

Properties will be evaluated at   0.000000,   0.000000,   0.000000 Bohr
  ==> Properties <==


Properties computed using the SCF density matrix

  Nuclear Dipole Moment: (a.u.)
     X:     4.3988      Y:     0.9633      Z:     0.2227

  Electronic Dipole Moment: (a.u.)
     X:    -3.9699      Y:    -0.3621      Z:    -0.2577

  Dipole Moment: (a.u.)
     X:     0.4290      Y:     0.6012      Z:    -0.0350     Total:     0.7394

  Dipole Moment: (Debye)
     X:     1.0904      Y:     1.5282      Z:    -0.0889     Total:     1.8794


  Saving occupied orbitals to File 180.

*** tstop() called on cx1-3-15-2.cx1.hpc.ic.ac.uk at Tue Jul  5 16:27:06 2016
Module time:
	user time   =      13.71 seconds =       0.23 minutes
	system time =       0.08 seconds =       0.00 minutes
	total time  =         14 seconds =       0.23 minutes
Total time:
	user time   =      13.71 seconds =       0.23 minutes
	system time =       0.08 seconds =       0.00 minutes
	total time  =         14 seconds =       0.23 minutes


Properties will be evaluated at   0.000000,   0.000000,   0.000000 Bohr

Properties computed using the  density matrix

  Nuclear Dipole Moment: (a.u.)
     X:     4.3988      Y:     0.9633      Z:     0.2227

  Electronic Dipole Moment: (a.u.)
     X:    -3.9699      Y:    -0.3621      Z:    -0.2577

  Dipole Moment: (a.u.)
     X:     0.4290      Y:     0.6012      Z:    -0.0350     Total:     0.7394

  Dipole Moment: (Debye)
     X:     1.0904      Y:     1.5282      Z:    -0.0889     Total:     1.8794

  Quadrupole Moment: (Debye Ang)
    XX:   -47.7692     YY:   -43.9453     ZZ:   -44.7829
    XY:    -4.4743     XZ:     0.0675     YZ:     0.1077

  Traceless Quadrupole Moment: (Debye Ang)
    XX:    -2.2700     YY:     1.5538     ZZ:     0.7162
    XY:    -4.4743     XZ:     0.0675     YZ:     0.1077

  Mulliken Charges: (a.u.)
   Center  Symbol    Alpha    Beta     Spin     Total
       1     H     0.28058  0.28058  0.00000  0.43883
       2     O     4.38354  4.38354  0.00000 -0.76708
       3     C     2.89547  2.89547  0.00000  0.20906
       4     H     0.42687  0.42687  0.00000  0.14625
       5     C     3.16671  3.16671  0.00000 -0.33341
       6     C     3.18663  3.18663  0.00000 -0.37326
       7     H     0.41938  0.41938  0.00000  0.16125
       8     H     0.40878  0.40878  0.00000  0.18243
       9     C     3.16168  3.16168  0.00000 -0.32335
      10     H     0.41773  0.41773  0.00000  0.16454
      11     H     0.41906  0.41906  0.00000  0.16187
      12     C     3.16205  3.16205  0.00000 -0.32409
      13     H     0.41811  0.41811  0.00000  0.16378
      14     H     0.41804  0.41804  0.00000  0.16391
      15     C     3.16436  3.16436  0.00000 -0.32871
      16     H     0.41600  0.41600  0.00000  0.16799
      17     H     0.41807  0.41807  0.00000  0.16385
      18     H     0.41606  0.41606  0.00000  0.16789
      19     H     0.42087  0.42087  0.00000  0.15825

   Total alpha = 28.00000, Total beta = 28.00000, Total charge = -0.00000


*** PSI4 exiting successfully. Buy a developer a beer!
