    -----------------------------------------------------------------------
          Psi4: An Open-Source Ab Initio Electronic Structure Package
                              Psi4 (no tag) Driver

                          Git: Rev {detached?}  

    J. M. Turney, A. C. Simmonett, R. M. Parrish, E. G. Hohenstein,
    F. A. Evangelista, J. T. Fermann, B. J. Mintz, L. A. Burns, J. J. Wilke,
    M. L. Abrams, N. J. Russ, M. L. Leininger, C. L. Janssen, E. T. Seidl,
    W. D. Allen, H. F. Schaefer, R. A. King, E. F. Valeev, C. D. Sherrill,
    and T. D. Crawford, WIREs Comput. Mol. Sci. 2, 556-565 (2012)
    (doi: 10.1002/wcms.93)

                         Additional Contributions by
    A. E. DePrince, M. Saitow, U. Bozkaya, A. Yu. Sokolov
    -----------------------------------------------------------------------


    Psi4 started on: Tue Jul 26 13:30:40 2016

    Process ID:  10908
    PSI4DATADIR: /export131/home/mjharvey/miniconda3/share
    Memory level set to 256.000 MB

  ==> Input File <==

--------------------------------------------------------------------------
set {
	reference rhf
	basis 6-31G*
}


set_num_threads( 24 )
memory 2 gb

molecule MOL {
0 1

H	 -4.212968	 -1.711582	 -0.297354
C	 -3.384727	 -1.171869	 0.119184
C	 -2.163829	 -1.430439	 -0.288298
H	 -3.581784	 -0.426637	 0.867755
O	 -1.081000	 -0.797000	 0.234000
H	 -1.946922	 -2.167478	 -1.040597
C	 0.151000	 -0.997000	 -0.369000
C	 1.143000	 0.077000	 0.017000
H	 0.082000	 -1.019000	 -1.451000
H	 0.537000	 -1.944000	 -0.023000
F	 0.942633	 0.429544	 1.278564
F	 2.391066	 -0.347800	 -0.086844
F	 1.021272	 1.154467	 -0.729697

	symmetry c1
}
set optking {
	frozen_dihedral = ("
		11 8 7 9,
		6 3 2 1,
		6 3 5 7
	")
}

ee = energy('scf')
oeprop('DIPOLE', 'QUADRUPOLE', 'MULLIKEN_CHARGES')
f=open( 'psi4out.xyz', 'w' )
f.write( "13  " )
f.write( str(ee) + "\n" )
f.write( MOL.save_string_xyz() )
f.close()
--------------------------------------------------------------------------

  Memory set to   2.000 GiB by Python script.

*** tstart() called on cx1b.hpc.ic.ac.uk
*** at Tue Jul 26 13:30:41 2016


         ---------------------------------------------------------
                                   SCF
            by Justin Turney, Rob Parrish, and Andy Simmonett
                              RHF Reference
                       24 Threads,   2000 MiB Core
         ---------------------------------------------------------

  ==> Geometry <==

    Molecular point group: c1
    Full point group: C1

    Geometry (in Angstrom), charge = 0, multiplicity = 1:

       Center              X                  Y                   Z               Mass       
    ------------   -----------------  -----------------  -----------------  -----------------
           H         -4.254214466111    -1.403279103173    -0.331534413645     1.007825032070
           C         -3.425973466111    -0.863566103173     0.085003586355    12.000000000000
           C         -2.205075466111    -1.122136103173    -0.322478413645    12.000000000000
           H         -3.623030466111    -0.118334103173     0.833574586355     1.007825032070
           O         -1.122246466111    -0.488697103173     0.199819586355    15.994914619560
           H         -1.988168466111    -1.859175103173    -1.074777413645     1.007825032070
           C          0.109753533889    -0.688697103173    -0.403180413645    12.000000000000
           C          1.101753533889     0.385302896827    -0.017180413645    12.000000000000
           H          0.040753533889    -0.710697103173    -1.485180413645     1.007825032070
           H          0.495753533889    -1.635697103173    -0.057180413645     1.007825032070
           F          0.901386533889     0.737846896827     1.244383586355    18.998403224000
           F          2.349819533889    -0.039497103173    -0.121024413645    18.998403224000
           F          0.980025533889     1.462769896827    -0.763877413645    18.998403224000

  Running in c1 symmetry.

  Rotational constants: A =      0.16892  B =      0.03382  C =      0.03329 [cm^-1]
  Rotational constants: A =   5064.01034  B =   1013.80940  C =    998.10975 [MHz]
  Nuclear repulsion =  405.624249106904870

  Charge       = 0
  Multiplicity = 1
  Electrons    = 64
  Nalpha       = 32
  Nbeta        = 32

  ==> Algorithm <==

  SCF Algorithm Type is DF.
  DIIS enabled.
  MOM disabled.
  Fractional occupation disabled.
  Guess Type is CORE.
  Energy threshold   = 1.00e-06
  Density threshold  = 1.00e-06
  Integral threshold = 0.00e+00

  ==> Primary Basis <==

  Basis Set: 6-31G*
    Number of shells: 58
    Number of basis function: 130
    Number of Cartesian functions: 130
    Spherical Harmonics?: false
    Max angular momentum: 2

  ==> Pre-Iterations <==

   -------------------------------------------------------
    Irrep   Nso     Nmo     Nalpha   Nbeta   Ndocc  Nsocc
   -------------------------------------------------------
     A        130     130       0       0       0       0
   -------------------------------------------------------
    Total     130     130      32      32      32       0
   -------------------------------------------------------

 OEINTS: Overlap, kinetic, potential, dipole, and quadrupole integrals
         stored in file 35.

  ==> Integral Setup <==

  ==> DFJK: Density-Fitted J/K Matrices <==

    J tasked:                  Yes
    K tasked:                  Yes
    wK tasked:                  No
    OpenMP threads:             24
    Integrals threads:          24
    Memory (MB):              1430
    Algorithm:                Core
    Integral Cache:           NONE
    Schwarz Cutoff:          1E-12
    Fitting Condition:       1E-12

   => Auxiliary Basis Set <=

  Basis Set: 
    Number of shells: 237
    Number of basis function: 773
    Number of Cartesian functions: 773
    Spherical Harmonics?: false
    Max angular momentum: 3

  Minimum eigenvalue in the overlap matrix is 1.7229097078E-03.
  Using Symmetric Orthogonalization.
  SCF Guess: Core (One-Electron) Hamiltonian.

  ==> Iterations <==

                           Total Energy        Delta E     RMS |[F,P]|

   @DF-RHF iter   1:  -441.41484677457362   -4.41415e+02   7.46554e-02 
   @DF-RHF iter   2:  -165.93130210838882    2.75484e+02   1.01231e-01 DIIS
   @DF-RHF iter   3:  -489.83015806097279   -3.23899e+02   3.67524e-02 DIIS
   @DF-RHF iter   4:  -363.57450316626495    1.26256e+02   7.79966e-02 DIIS
   @DF-RHF iter   5:  -491.72590791495264   -1.28151e+02   4.54490e-02 DIIS
   @DF-RHF iter   6:  -526.70039548635759   -3.49745e+01   1.07193e-02 DIIS
   @DF-RHF iter   7:  -527.40961797979139   -7.09222e-01   4.54505e-03 DIIS
   @DF-RHF iter   8:  -527.52422578730602   -1.14608e-01   5.78029e-04 DIIS
   @DF-RHF iter   9:  -527.52932198058966   -5.09619e-03   2.16715e-04 DIIS
   @DF-RHF iter  10:  -527.52989699323803   -5.75013e-04   8.48425e-05 DIIS
   @DF-RHF iter  11:  -527.52998012558032   -8.31323e-05   3.64795e-05 DIIS
   @DF-RHF iter  12:  -527.52999467919585   -1.45536e-05   7.59537e-06 DIIS
   @DF-RHF iter  13:  -527.52999543286046   -7.53665e-07   2.67668e-06 DIIS
   @DF-RHF iter  14:  -527.52999553645304   -1.03593e-07   7.91033e-07 DIIS

  ==> Post-Iterations <==

    Orbital Energies (a.u.)
    -----------------------

    Doubly Occupied:                                                      

       1A    -26.346673     2A    -26.342212     3A    -26.332958  
       4A    -20.604527     5A    -11.506405     6A    -11.317699  
       7A    -11.302646     8A    -11.219377     9A     -1.740237  
      10A     -1.640893    11A     -1.632534    12A     -1.435933  
      13A     -1.086616    14A     -1.016310    15A     -0.922781  
      16A     -0.835438    17A     -0.830089    18A     -0.807628  
      19A     -0.799446    20A     -0.718899    21A     -0.715279  
      22A     -0.695483    23A     -0.681035    24A     -0.657836  
      25A     -0.652212    26A     -0.642951    27A     -0.639267  
      28A     -0.574762    29A     -0.558505    30A     -0.526844  
      31A     -0.510812    32A     -0.353269  

    Virtual:                                                              

      33A      0.183400    34A      0.231674    35A      0.265776  
      36A      0.287169    37A      0.293342    38A      0.306628  
      39A      0.336934    40A      0.413258    41A      0.426873  
      42A      0.461292    43A      0.479930    44A      0.499884  
      45A      0.518914    46A      0.688998    47A      0.724690  
      48A      0.739280    49A      0.743236    50A      0.752319  
      51A      0.768151    52A      0.814796    53A      0.834196  
      54A      0.856278    55A      0.921963    56A      0.943011  
      57A      0.964525    58A      1.080649    59A      1.085402  
      60A      1.123060    61A      1.139041    62A      1.149966  
      63A      1.209279    64A      1.246252    65A      1.284876  
      66A      1.345265    67A      1.351617    68A      1.354313  
      69A      1.399429    70A      1.410925    71A      1.443480  
      72A      1.499964    73A      1.508977    74A      1.609635  
      75A      1.628948    76A      1.639305    77A      1.652104  
      78A      1.670186    79A      1.681640    80A      1.705729  
      81A      1.713679    82A      1.803168    83A      1.831574  
      84A      1.926907    85A      1.951417    86A      1.990181  
      87A      2.004299    88A      2.020025    89A      2.120741  
      90A      2.138680    91A      2.148221    92A      2.162345  
      93A      2.216088    94A      2.257913    95A      2.273642  
      96A      2.304639    97A      2.314864    98A      2.336020  
      99A      2.389128   100A      2.398838   101A      2.415597  
     102A      2.447331   103A      2.452741   104A      2.487785  
     105A      2.530599   106A      2.611732   107A      2.625334  
     108A      2.713279   109A      2.717723   110A      2.813131  
     111A      2.866665   112A      2.900877   113A      2.997957  
     114A      3.103038   115A      3.132403   116A      3.167013  
     117A      3.170917   118A      3.349965   119A      3.411605  
     120A      3.427207   121A      3.454397   122A      3.479657  
     123A      4.351765   124A      4.548467   125A      4.607729  
     126A      4.737815   127A      4.797731   128A      4.927177  
     129A      5.093943   130A      5.791903  

    Final Occupation by Irrep:
              A 
    DOCC [    32 ]

  Energy converged.

  @DF-RHF Final Energy:  -527.52999553645304

   => Energetics <=

    Nuclear Repulsion Energy =            405.6242491069048697
    One-Electron Energy =               -1535.0135018568723808
    Two-Electron Energy =                 601.8592572135147520
    DFT Exchange-Correlation Energy =       0.0000000000000000
    Empirical Dispersion Energy =           0.0000000000000000
    PCM Polarization Energy =               0.0000000000000000
    EFP Energy =                            0.0000000000000000
    Total Energy =                       -527.5299955364527023

    Alert: EFP and PCM quantities not currently incorporated into SCF psivars.

Properties will be evaluated at   0.000000,   0.000000,   0.000000 Bohr
  ==> Properties <==


Properties computed using the SCF density matrix

  Nuclear Dipole Moment: (a.u.)
     X:   -12.7425      Y:    -7.4101      Z:    -2.3210

  Electronic Dipole Moment: (a.u.)
     X:    12.4271      Y:     6.5424      Z:     1.6277

  Dipole Moment: (a.u.)
     X:    -0.3154      Y:    -0.8677      Z:    -0.6933     Total:     1.1545

  Dipole Moment: (Debye)
     X:    -0.8016      Y:    -2.2054      Z:    -1.7622     Total:     2.9346


  Saving occupied orbitals to File 180.

*** tstop() called on cx1b.hpc.ic.ac.uk at Tue Jul 26 13:30:46 2016
Module time:
	user time   =      60.12 seconds =       1.00 minutes
	system time =       2.48 seconds =       0.04 minutes
	total time  =          5 seconds =       0.08 minutes
Total time:
	user time   =      60.12 seconds =       1.00 minutes
	system time =       2.48 seconds =       0.04 minutes
	total time  =          5 seconds =       0.08 minutes


Properties will be evaluated at   0.000000,   0.000000,   0.000000 Bohr

Properties computed using the  density matrix

  Nuclear Dipole Moment: (a.u.)
     X:   -12.7425      Y:    -7.4101      Z:    -2.3210

  Electronic Dipole Moment: (a.u.)
     X:    12.4271      Y:     6.5424      Z:     1.6277

  Dipole Moment: (a.u.)
     X:    -0.3154      Y:    -0.8677      Z:    -0.6933     Total:     1.1545

  Dipole Moment: (Debye)
     X:    -0.8016      Y:    -2.2054      Z:    -1.7622     Total:     2.9346

  Quadrupole Moment: (Debye Ang)
    XX:   -44.3856     YY:   -43.3504     ZZ:   -44.6271
    XY:     0.3809     XZ:     0.7823     YZ:     2.6201

  Traceless Quadrupole Moment: (Debye Ang)
    XX:    -0.2646     YY:     0.7706     ZZ:    -0.5060
    XY:     0.3809     XZ:     0.7823     YZ:     2.6201

  Mulliken Charges: (a.u.)
   Center  Symbol    Alpha    Beta     Spin     Total
       1     H     0.40701  0.40701  0.00000  0.18599
       2     C     3.23370  3.23370  0.00000 -0.46740
       3     C     2.89608  2.89608  0.00000  0.20784
       4     H     0.40002  0.40002  0.00000  0.19996
       5     O     4.30322  4.30322  0.00000 -0.60644
       6     H     0.40887  0.40887  0.00000  0.18226
       7     C     3.05752  3.05752  0.00000 -0.11504
       8     C     2.44669  2.44669  0.00000  1.10661
       9     H     0.40611  0.40611  0.00000  0.18778
      10     H     0.40473  0.40473  0.00000  0.19055
      11     F     4.67852  4.67852  0.00000 -0.35704
      12     F     4.68197  4.68197  0.00000 -0.36394
      13     F     4.67557  4.67557  0.00000 -0.35114

   Total alpha = 32.00000, Total beta = 32.00000, Total charge =  0.00000


*** PSI4 exiting successfully. Buy a developer a beer!
