    -----------------------------------------------------------------------
          Psi4: An Open-Source Ab Initio Electronic Structure Package
                              Psi4 (no tag) Driver

                          Git: Rev {detached?}  

    J. M. Turney, A. C. Simmonett, R. M. Parrish, E. G. Hohenstein,
    F. A. Evangelista, J. T. Fermann, B. J. Mintz, L. A. Burns, J. J. Wilke,
    M. L. Abrams, N. J. Russ, M. L. Leininger, C. L. Janssen, E. T. Seidl,
    W. D. Allen, H. F. Schaefer, R. A. King, E. F. Valeev, C. D. Sherrill,
    and T. D. Crawford, WIREs Comput. Mol. Sci. 2, 556-565 (2012)
    (doi: 10.1002/wcms.93)

                         Additional Contributions by
    A. E. DePrince, M. Saitow, U. Bozkaya, A. Yu. Sokolov
    -----------------------------------------------------------------------


    Psi4 started on: Tue Jul  5 16:35:24 2016

    Process ID:  19145
    PSI4DATADIR: /export131/home/mjharvey/miniconda3/share
    Memory level set to 256.000 MB

  ==> Input File <==

--------------------------------------------------------------------------
set {
	reference rhf
	basis 6-31G*
}


set_num_threads( 1 )
memory 2 gb

molecule MOL {
0 1

H	 -2.205262	 -1.124847	 -0.345075
O	 -2.347518	 -0.290803	 0.079804
C	 -1.184022	 0.487508	 -0.006784
C	 0.062599	 -0.378592	 0.031606
H	 -1.176523	 1.099369	 -0.904519
H	 -1.187323	 1.153111	 0.844927
O	 -0.043959	 -1.331029	 -0.978982
H	 0.152937	 -0.862108	 1.006301
H	 0.944499	 0.244194	 -0.106143
C	 1.051901	 -2.183439	 -1.086827
H	 1.203606	 -2.754072	 -0.172501
H	 0.853769	 -2.869137	 -1.898901
H	 1.964096	 -1.631937	 -1.304857

	symmetry c1
}
set optking {
	frozen_dihedral = ("
		8 4 3 5,
		10 7 4 8,
		4 7 10 13
	")
}

ee = energy('scf')
oeprop('DIPOLE', 'QUADRUPOLE', 'MULLIKEN_CHARGES')
f=open( 'psi4out.xyz', 'w' )
f.write( "13  " )
f.write( str(ee) + "\n" )
f.write( MOL.save_string_xyz() )
f.close()
--------------------------------------------------------------------------

  Memory set to   2.000 GiB by Python script.

*** tstart() called on cx1-49-4-2.cx1.hpc.ic.ac.uk
*** at Tue Jul  5 16:35:25 2016


         ---------------------------------------------------------
                                   SCF
            by Justin Turney, Rob Parrish, and Andy Simmonett
                              RHF Reference
                        1 Threads,   2000 MiB Core
         ---------------------------------------------------------

  ==> Geometry <==

    Molecular point group: c1
    Full point group: C1

    Geometry (in Angstrom), charge = 0, multiplicity = 1:

       Center              X                  Y                   Z               Mass       
    ------------   -----------------  -----------------  -----------------  -----------------
           H         -1.698616341336    -0.367033595063     0.049779518638     1.007825032070
           O         -1.840872341336     0.467010404937     0.474658518638    15.994914619560
           C         -0.677376341336     1.245321404937     0.388070518638    12.000000000000
           C          0.569244658664     0.379221404937     0.426460518638    12.000000000000
           H         -0.669877341336     1.857182404937    -0.509664481362     1.007825032070
           H         -0.680677341336     1.910924404937     1.239781518638     1.007825032070
           O          0.462686658664    -0.573215595063    -0.584127481362    15.994914619560
           H          0.659582658664    -0.104294595063     1.401155518638     1.007825032070
           H          1.451144658664     1.002007404937     0.288711518638     1.007825032070
           C          1.558546658664    -1.425625595063    -0.691972481362    12.000000000000
           H          1.710251658664    -1.996258595063     0.222353518638     1.007825032070
           H          1.360414658664    -2.111323595063    -1.504046481362     1.007825032070
           H          2.470741658664    -0.874123595063    -0.910002481362     1.007825032070

  Running in c1 symmetry.

  Rotational constants: A =      0.44639  B =      0.09337  C =      0.08323 [cm^-1]
  Rotational constants: A =  13382.33834  B =   2799.27483  C =   2495.16052 [MHz]
  Nuclear repulsion =  194.846180880881008

  Charge       = 0
  Multiplicity = 1
  Electrons    = 42
  Nalpha       = 21
  Nbeta        = 21

  ==> Algorithm <==

  SCF Algorithm Type is DF.
  DIIS enabled.
  MOM disabled.
  Fractional occupation disabled.
  Guess Type is CORE.
  Energy threshold   = 1.00e-06
  Density threshold  = 1.00e-06
  Integral threshold = 0.00e+00

  ==> Primary Basis <==

  Basis Set: 6-31G*
    Number of shells: 46
    Number of basis function: 91
    Number of Cartesian functions: 91
    Spherical Harmonics?: false
    Max angular momentum: 2

  ==> Pre-Iterations <==

   -------------------------------------------------------
    Irrep   Nso     Nmo     Nalpha   Nbeta   Ndocc  Nsocc
   -------------------------------------------------------
     A         91      91       0       0       0       0
   -------------------------------------------------------
    Total      91      91      21      21      21       0
   -------------------------------------------------------

 OEINTS: Overlap, kinetic, potential, dipole, and quadrupole integrals
         stored in file 35.

  ==> Integral Setup <==

  ==> DFJK: Density-Fitted J/K Matrices <==

    J tasked:                  Yes
    K tasked:                  Yes
    wK tasked:                  No
    OpenMP threads:              1
    Integrals threads:           1
    Memory (MB):              1430
    Algorithm:                Core
    Integral Cache:           NONE
    Schwarz Cutoff:          1E-12
    Fitting Condition:       1E-12

   => Auxiliary Basis Set <=

  Basis Set: 
    Number of shells: 192
    Number of basis function: 605
    Number of Cartesian functions: 605
    Spherical Harmonics?: false
    Max angular momentum: 3

  Minimum eigenvalue in the overlap matrix is 4.5136751848E-03.
  Using Symmetric Orthogonalization.
  SCF Guess: Core (One-Electron) Hamiltonian.

  ==> Iterations <==

                           Total Energy        Delta E     RMS |[F,P]|

   @DF-RHF iter   1:  -223.72423832788056   -2.23724e+02   7.94454e-02 
   @DF-RHF iter   2:  -168.34959820341132    5.53746e+01   6.74804e-02 DIIS
   @DF-RHF iter   3:  -230.62642154293630   -6.22768e+01   6.90249e-02 DIIS
   @DF-RHF iter   4:  -255.53251373017579   -2.49061e+01   4.03327e-02 DIIS
   @DF-RHF iter   5:  -267.55877079970003   -1.20263e+01   9.69582e-03 DIIS
   @DF-RHF iter   6:  -267.87953275874656   -3.20762e-01   4.22138e-03 DIIS
   @DF-RHF iter   7:  -267.94264528362987   -6.31125e-02   1.44012e-03 DIIS
   @DF-RHF iter   8:  -267.95094463034991   -8.29935e-03   5.76257e-04 DIIS
   @DF-RHF iter   9:  -267.95255138916559   -1.60676e-03   2.10274e-04 DIIS
   @DF-RHF iter  10:  -267.95278391036913   -2.32521e-04   6.19510e-05 DIIS
   @DF-RHF iter  11:  -267.95280584914894   -2.19388e-05   2.08463e-05 DIIS
   @DF-RHF iter  12:  -267.95280821092581   -2.36178e-06   3.54588e-06 DIIS
   @DF-RHF iter  13:  -267.95280831360185   -1.02676e-07   7.45406e-07 DIIS

  ==> Post-Iterations <==

    Orbital Energies (a.u.)
    -----------------------

    Doubly Occupied:                                                      

       1A    -20.573227     2A    -20.544475     3A    -11.277677  
       4A    -11.277272     5A    -11.268116     6A     -1.401134  
       7A     -1.349553     8A     -1.021908     9A     -0.925365  
      10A     -0.838845    11A     -0.697955    12A     -0.686534  
      13A     -0.671482    14A     -0.630739    15A     -0.592451  
      16A     -0.579165    17A     -0.544266    18A     -0.498666  
      19A     -0.476268    20A     -0.435293    21A     -0.427982  

    Virtual:                                                              

      22A      0.230111    23A      0.266947    24A      0.270726  
      25A      0.298166    26A      0.309137    27A      0.320625  
      28A      0.328552    29A      0.338864    30A      0.358405  
      31A      0.408171    32A      0.438114    33A      0.444383  
      34A      0.721225    35A      0.749164    36A      0.761063  
      37A      0.807503    38A      0.816851    39A      0.835691  
      40A      0.884087    41A      0.940237    42A      0.988212  
      43A      1.088146    44A      1.093609    45A      1.106996  
      46A      1.136380    47A      1.147079    48A      1.150902  
      49A      1.177194    50A      1.206284    51A      1.227948  
      52A      1.244109    53A      1.286863    54A      1.339704  
      55A      1.372793    56A      1.404453    57A      1.537386  
      58A      1.555175    59A      1.647785    60A      1.694242  
      61A      1.706072    62A      1.764596    63A      1.834783  
      64A      1.939223    65A      1.978270    66A      2.024231  
      67A      2.160341    68A      2.227859    69A      2.256860  
      70A      2.371305    71A      2.409765    72A      2.434970  
      73A      2.456125    74A      2.481954    75A      2.514015  
      76A      2.604501    77A      2.642231    78A      2.717848  
      79A      2.772681    80A      2.783646    81A      2.870615  
      82A      2.913153    83A      3.040991    84A      3.175906  
      85A      3.196344    86A      3.337028    87A      4.195982  
      88A      4.364672    89A      4.634670    90A      4.686372  
      91A      4.869552  

    Final Occupation by Irrep:
              A 
    DOCC [    21 ]

  Energy converged.

  @DF-RHF Final Energy:  -267.95280831360185

   => Energetics <=

    Nuclear Repulsion Energy =            194.8461808808810076
    One-Electron Energy =                -752.1611711153523174
    Two-Electron Energy =                 289.3621819208699435
    DFT Exchange-Correlation Energy =       0.0000000000000000
    Empirical Dispersion Energy =           0.0000000000000000
    PCM Polarization Energy =               0.0000000000000000
    EFP Energy =                            0.0000000000000000
    Total Energy =                       -267.9528083136013947

    Alert: EFP and PCM quantities not currently incorporated into SCF psivars.

Properties will be evaluated at   0.000000,   0.000000,   0.000000 Bohr
  ==> Properties <==


Properties computed using the SCF density matrix

  Nuclear Dipole Moment: (a.u.)
     X:     4.3085      Y:    -0.6407      Z:     0.2602

  Electronic Dipole Moment: (a.u.)
     X:    -3.1629      Y:     0.3808      Z:    -0.2719

  Dipole Moment: (a.u.)
     X:     1.1456      Y:    -0.2599      Z:    -0.0118     Total:     1.1748

  Dipole Moment: (Debye)
     X:     2.9118      Y:    -0.6606      Z:    -0.0299     Total:     2.9859


  Saving occupied orbitals to File 180.

*** tstop() called on cx1-49-4-2.cx1.hpc.ic.ac.uk at Tue Jul  5 16:35:30 2016
Module time:
	user time   =       5.04 seconds =       0.08 minutes
	system time =       0.04 seconds =       0.00 minutes
	total time  =          5 seconds =       0.08 minutes
Total time:
	user time   =       5.04 seconds =       0.08 minutes
	system time =       0.04 seconds =       0.00 minutes
	total time  =          5 seconds =       0.08 minutes


Properties will be evaluated at   0.000000,   0.000000,   0.000000 Bohr

Properties computed using the  density matrix

  Nuclear Dipole Moment: (a.u.)
     X:     4.3085      Y:    -0.6407      Z:     0.2602

  Electronic Dipole Moment: (a.u.)
     X:    -3.1629      Y:     0.3808      Z:    -0.2719

  Dipole Moment: (a.u.)
     X:     1.1456      Y:    -0.2599      Z:    -0.0118     Total:     1.1748

  Dipole Moment: (Debye)
     X:     2.9118      Y:    -0.6606      Z:    -0.0299     Total:     2.9859

  Quadrupole Moment: (Debye Ang)
    XX:   -34.3691     YY:   -28.1530     ZZ:   -32.1181
    XY:     0.9516     XZ:     1.5512     YZ:     0.8876

  Traceless Quadrupole Moment: (Debye Ang)
    XX:    -2.8224     YY:     3.3937     ZZ:    -0.5713
    XY:     0.9516     XZ:     1.5512     YZ:     0.8876

  Mulliken Charges: (a.u.)
   Center  Symbol    Alpha    Beta     Spin     Total
       1     H     0.27071  0.27071  0.00000  0.45859
       2     O     4.37949  4.37949  0.00000 -0.75898
       3     C     2.98641  2.98641  0.00000  0.02718
       4     C     3.01348  3.01348  0.00000 -0.02696
       5     H     0.42408  0.42408  0.00000  0.15183
       6     H     0.41914  0.41914  0.00000  0.16172
       7     O     4.31079  4.31079  0.00000 -0.62157
       8     H     0.42467  0.42467  0.00000  0.15066
       9     H     0.42798  0.42798  0.00000  0.14405
      10     C     3.08111  3.08111  0.00000 -0.16223
      11     H     0.42646  0.42646  0.00000  0.14708
      12     H     0.40940  0.40940  0.00000  0.18120
      13     H     0.42628  0.42628  0.00000  0.14744

   Total alpha = 21.00000, Total beta = 21.00000, Total charge = -0.00000


*** PSI4 exiting successfully. Buy a developer a beer!
