    -----------------------------------------------------------------------
          Psi4: An Open-Source Ab Initio Electronic Structure Package
                              Psi4 (no tag) Driver

                          Git: Rev {detached?}  

    J. M. Turney, A. C. Simmonett, R. M. Parrish, E. G. Hohenstein,
    F. A. Evangelista, J. T. Fermann, B. J. Mintz, L. A. Burns, J. J. Wilke,
    M. L. Abrams, N. J. Russ, M. L. Leininger, C. L. Janssen, E. T. Seidl,
    W. D. Allen, H. F. Schaefer, R. A. King, E. F. Valeev, C. D. Sherrill,
    and T. D. Crawford, WIREs Comput. Mol. Sci. 2, 556-565 (2012)
    (doi: 10.1002/wcms.93)

                         Additional Contributions by
    A. E. DePrince, M. Saitow, U. Bozkaya, A. Yu. Sokolov
    -----------------------------------------------------------------------


    Psi4 started on: Tue Jul  5 16:31:06 2016

    Process ID:   1661
    PSI4DATADIR: /export131/home/mjharvey/miniconda3/share
    Memory level set to 256.000 MB

  ==> Input File <==

--------------------------------------------------------------------------
set {
	reference rhf
	basis 6-31G*
}


set_num_threads( 1 )
memory 2 gb

molecule MOL {
0 1

H	 -1.836216	 1.387520	 -0.000064
C	 -1.301823	 0.443321	 -0.000031
O	 -0.003969	 0.658512	 0.000451
O	 -1.829879	 -0.616434	 -0.000857
C	 0.850537	 -0.484732	 0.000380
C	 1.147737	 -0.829281	 -1.442976
H	 0.348993	 -1.294814	 0.511789
H	 1.750704	 -0.247719	 0.550669
H	 0.234103	 -1.055907	 -1.980515
H	 1.797198	 -1.697276	 -1.487906
H	 1.642606	 -0.003828	 -1.941595

	symmetry c1
}
set optking {
	frozen_dihedral = ("
		5 3 2 4
	")
}

ee = energy('scf')
oeprop('DIPOLE', 'QUADRUPOLE', 'MULLIKEN_CHARGES')
f=open( 'psi4out.xyz', 'w' )
f.write( "11  " )
f.write( str(ee) + "\n" )
f.write( MOL.save_string_xyz() )
f.close()
--------------------------------------------------------------------------

  Memory set to   2.000 GiB by Python script.

*** tstart() called on cx1-3-6-1.cx1.hpc.ic.ac.uk
*** at Tue Jul  5 16:31:06 2016


         ---------------------------------------------------------
                                   SCF
            by Justin Turney, Rob Parrish, and Andy Simmonett
                              RHF Reference
                        1 Threads,   2000 MiB Core
         ---------------------------------------------------------

  ==> Geometry <==

    Molecular point group: c1
    Full point group: C1

    Geometry (in Angstrom), charge = 0, multiplicity = 1:

       Center              X                  Y                   Z               Mass       
    ------------   -----------------  -----------------  -----------------  -----------------
           H         -1.606510816597     1.559192522244     0.293028978700     1.007825032070
           C         -1.072117816597     0.614993522244     0.293061978700    12.000000000000
           O          0.225736183403     0.830184522244     0.293543978700    15.994914619560
           O         -1.600173816597    -0.444761477756     0.292235978700    15.994914619560
           C          1.080242183403    -0.313059477756     0.293472978700    12.000000000000
           C          1.377442183403    -0.657608477756    -1.149883021300    12.000000000000
           H          0.578698183403    -1.123141477756     0.804881978700     1.007825032070
           H          1.980409183403    -0.076046477756     0.843761978700     1.007825032070
           H          0.463808183403    -0.884234477756    -1.687422021300     1.007825032070
           H          2.026903183403    -1.525603477756    -1.194813021300     1.007825032070
           H          1.872311183403     0.167844522244    -1.648502021300     1.007825032070

  Running in c1 symmetry.

  Rotational constants: A =      0.35947  B =      0.12485  C =      0.10901 [cm^-1]
  Rotational constants: A =  10776.55163  B =   3742.95032  C =   3268.15815 [MHz]
  Nuclear repulsion =  182.677280143033585

  Charge       = 0
  Multiplicity = 1
  Electrons    = 40
  Nalpha       = 20
  Nbeta        = 20

  ==> Algorithm <==

  SCF Algorithm Type is DF.
  DIIS enabled.
  MOM disabled.
  Fractional occupation disabled.
  Guess Type is CORE.
  Energy threshold   = 1.00e-06
  Density threshold  = 1.00e-06
  Integral threshold = 0.00e+00

  ==> Primary Basis <==

  Basis Set: 6-31G*
    Number of shells: 42
    Number of basis function: 87
    Number of Cartesian functions: 87
    Spherical Harmonics?: false
    Max angular momentum: 2

  ==> Pre-Iterations <==

   -------------------------------------------------------
    Irrep   Nso     Nmo     Nalpha   Nbeta   Ndocc  Nsocc
   -------------------------------------------------------
     A         87      87       0       0       0       0
   -------------------------------------------------------
    Total      87      87      20      20      20       0
   -------------------------------------------------------

 OEINTS: Overlap, kinetic, potential, dipole, and quadrupole integrals
         stored in file 35.

  ==> Integral Setup <==

  ==> DFJK: Density-Fitted J/K Matrices <==

    J tasked:                  Yes
    K tasked:                  Yes
    wK tasked:                  No
    OpenMP threads:              1
    Integrals threads:           1
    Memory (MB):              1430
    Algorithm:                Core
    Integral Cache:           NONE
    Schwarz Cutoff:          1E-12
    Fitting Condition:       1E-12

   => Auxiliary Basis Set <=

  Basis Set: 
    Number of shells: 174
    Number of basis function: 555
    Number of Cartesian functions: 555
    Spherical Harmonics?: false
    Max angular momentum: 3

  Minimum eigenvalue in the overlap matrix is 4.7531716769E-03.
  Using Symmetric Orthogonalization.
  SCF Guess: Core (One-Electron) Hamiltonian.

  ==> Iterations <==

                           Total Energy        Delta E     RMS |[F,P]|

   @DF-RHF iter   1:  -216.20727591683087   -2.16207e+02   8.39061e-02 
   @DF-RHF iter   2:  -158.11066044773295    5.80966e+01   9.42074e-02 DIIS
   @DF-RHF iter   3:  -249.95175616572450   -9.18411e+01   3.66017e-02 DIIS
   @DF-RHF iter   4:  -233.27798660950296    1.66738e+01   6.87816e-02 DIIS
   @DF-RHF iter   5:  -261.22428573470950   -2.79463e+01   3.13765e-02 DIIS
   @DF-RHF iter   6:  -266.21518803998867   -4.99090e+00   1.17547e-02 DIIS
   @DF-RHF iter   7:  -266.68030724262132   -4.65119e-01   6.11284e-03 DIIS
   @DF-RHF iter   8:  -266.80445598276890   -1.24149e-01   1.95494e-03 DIIS
   @DF-RHF iter   9:  -266.82309815465828   -1.86422e-02   8.05147e-04 DIIS
   @DF-RHF iter  10:  -266.82605721144910   -2.95906e-03   3.42929e-04 DIIS
   @DF-RHF iter  11:  -266.82666191666272   -6.04705e-04   9.25501e-05 DIIS
   @DF-RHF iter  12:  -266.82671107943804   -4.91628e-05   2.05369e-05 DIIS
   @DF-RHF iter  13:  -266.82671419479925   -3.11536e-06   4.92731e-06 DIIS
   @DF-RHF iter  14:  -266.82671445152505   -2.56726e-07   1.65480e-06 DIIS
   @DF-RHF iter  15:  -266.82671448259225   -3.10672e-08   7.65052e-07 DIIS

  ==> Post-Iterations <==

    Orbital Energies (a.u.)
    -----------------------

    Doubly Occupied:                                                      

       1A    -20.612750     2A    -20.557216     3A    -11.380081  
       4A    -11.290390     5A    -11.222074     6A     -1.477512  
       7A     -1.374733     8A     -1.048706     9A     -0.908173  
      10A     -0.799603    11A     -0.746849    12A     -0.686246  
      13A     -0.654929    14A     -0.621988    15A     -0.572738  
      16A     -0.542575    17A     -0.536580    18A     -0.499513  
      19A     -0.457185    20A     -0.455060  

    Virtual:                                                              

      21A      0.194568    22A      0.250194    23A      0.275778  
      24A      0.291398    25A      0.305507    26A      0.314135  
      27A      0.339367    28A      0.350597    29A      0.397713  
      30A      0.457161    31A      0.509321    32A      0.689550  
      33A      0.711279    34A      0.743518    35A      0.780949  
      36A      0.795663    37A      0.858104    38A      0.909555  
      39A      0.923364    40A      0.986926    41A      1.037053  
      42A      1.093848    43A      1.104527    44A      1.117423  
      45A      1.160432    46A      1.170861    47A      1.195502  
      48A      1.231909    49A      1.238065    50A      1.286270  
      51A      1.323774    52A      1.373141    53A      1.402355  
      54A      1.511137    55A      1.621366    56A      1.695163  
      57A      1.720008    58A      1.749716    59A      1.822421  
      60A      1.891778    61A      1.924995    62A      2.071001  
      63A      2.134065    64A      2.148556    65A      2.210520  
      66A      2.244207    67A      2.263904    68A      2.360994  
      69A      2.433882    70A      2.503463    71A      2.562342  
      72A      2.615680    73A      2.670141    74A      2.734505  
      75A      2.764704    76A      2.845720    77A      2.942142  
      78A      3.042494    79A      3.086447    80A      3.291042  
      81A      3.330294    82A      3.466829    83A      4.290230  
      84A      4.413489    85A      4.595164    86A      4.641178  
      87A      4.858149  

    Final Occupation by Irrep:
              A 
    DOCC [    20 ]

  Energy converged.

  @DF-RHF Final Energy:  -266.82671448259225

   => Energetics <=

    Nuclear Repulsion Energy =            182.6772801430335846
    One-Electron Energy =                -726.1182558059147141
    Two-Electron Energy =                 276.6142611802898159
    DFT Exchange-Correlation Energy =       0.0000000000000000
    Empirical Dispersion Energy =           0.0000000000000000
    PCM Polarization Energy =               0.0000000000000000
    EFP Energy =                            0.0000000000000000
    Total Energy =                       -266.8267144825912851

    Alert: EFP and PCM quantities not currently incorporated into SCF psivars.

Properties will be evaluated at   0.000000,   0.000000,   0.000000 Bohr
  ==> Properties <==


Properties computed using the SCF density matrix

  Nuclear Dipole Moment: (a.u.)
     X:     4.9766      Y:    -1.7625      Z:    -2.4244

  Electronic Dipole Moment: (a.u.)
     X:    -4.2797      Y:     2.1013      Z:     2.3886

  Dipole Moment: (a.u.)
     X:     0.6970      Y:     0.3388      Z:    -0.0357     Total:     0.7758

  Dipole Moment: (Debye)
     X:     1.7715      Y:     0.8612      Z:    -0.0909     Total:     1.9718


  Saving occupied orbitals to File 180.

*** tstop() called on cx1-3-6-1.cx1.hpc.ic.ac.uk at Tue Jul  5 16:31:10 2016
Module time:
	user time   =       3.44 seconds =       0.06 minutes
	system time =       0.03 seconds =       0.00 minutes
	total time  =          4 seconds =       0.07 minutes
Total time:
	user time   =       3.44 seconds =       0.06 minutes
	system time =       0.03 seconds =       0.00 minutes
	total time  =          4 seconds =       0.07 minutes


Properties will be evaluated at   0.000000,   0.000000,   0.000000 Bohr

Properties computed using the  density matrix

  Nuclear Dipole Moment: (a.u.)
     X:     4.9766      Y:    -1.7625      Z:    -2.4244

  Electronic Dipole Moment: (a.u.)
     X:    -4.2797      Y:     2.1013      Z:     2.3886

  Dipole Moment: (a.u.)
     X:     0.6970      Y:     0.3388      Z:    -0.0357     Total:     0.7758

  Dipole Moment: (Debye)
     X:     1.7715      Y:     0.8612      Z:    -0.0909     Total:     1.9718

  Quadrupole Moment: (Debye Ang)
    XX:   -31.0871     YY:   -30.1209     ZZ:   -29.3441
    XY:    -5.1967     XZ:     0.6038     YZ:     0.1614

  Traceless Quadrupole Moment: (Debye Ang)
    XX:    -0.9031     YY:     0.0632     ZZ:     0.8399
    XY:    -5.1967     XZ:     0.6038     YZ:     0.1614

  Mulliken Charges: (a.u.)
   Center  Symbol    Alpha    Beta     Spin     Total
       1     H     0.41001  0.41001  0.00000  0.17997
       2     C     2.72706  2.72706  0.00000  0.54587
       3     O     4.28966  4.28966  0.00000 -0.57931
       4     O     4.26469  4.26469  0.00000 -0.52939
       5     C     3.01754  3.01754  0.00000 -0.03508
       6     C     3.25030  3.25030  0.00000 -0.50060
       7     H     0.39764  0.39764  0.00000  0.20471
       8     H     0.40734  0.40734  0.00000  0.18533
       9     H     0.40576  0.40576  0.00000  0.18848
      10     H     0.41766  0.41766  0.00000  0.16469
      11     H     0.41234  0.41234  0.00000  0.17533

   Total alpha = 20.00000, Total beta = 20.00000, Total charge =  0.00000


*** PSI4 exiting successfully. Buy a developer a beer!
