    -----------------------------------------------------------------------
          Psi4: An Open-Source Ab Initio Electronic Structure Package
                              Psi4 (no tag) Driver

                          Git: Rev {detached?}  

    J. M. Turney, A. C. Simmonett, R. M. Parrish, E. G. Hohenstein,
    F. A. Evangelista, J. T. Fermann, B. J. Mintz, L. A. Burns, J. J. Wilke,
    M. L. Abrams, N. J. Russ, M. L. Leininger, C. L. Janssen, E. T. Seidl,
    W. D. Allen, H. F. Schaefer, R. A. King, E. F. Valeev, C. D. Sherrill,
    and T. D. Crawford, WIREs Comput. Mol. Sci. 2, 556-565 (2012)
    (doi: 10.1002/wcms.93)

                         Additional Contributions by
    A. E. DePrince, M. Saitow, U. Bozkaya, A. Yu. Sokolov
    -----------------------------------------------------------------------


    Psi4 started on: Tue Jul  5 16:23:15 2016

    Process ID:   5766
    PSI4DATADIR: /export131/home/mjharvey/miniconda3/share
    Memory level set to 256.000 MB

  ==> Input File <==

--------------------------------------------------------------------------
set {
	reference rhf
	basis 6-31G*
}


set_num_threads( 1 )
memory 2 gb

molecule MOL {
0 1

H	 -1.070890	 -1.366565	 0.180696
O	 -1.422729	 -0.573567	 -0.196946
C	 -0.731407	 0.539437	 0.309156
C	 0.680193	 0.672443	 -0.251532
H	 -1.319765	 1.404033	 0.030086
H	 -0.700012	 0.506517	 1.397677
C	 0.978796	 2.051780	 -0.839725
H	 1.389374	 0.451623	 0.540898
H	 0.814544	 -0.086187	 -1.019627
H	 0.924744	 2.826695	 -0.080923
H	 1.977171	 2.087248	 -1.262756
H	 0.277185	 2.304275	 -1.631086

	symmetry c1
}
set optking {
	frozen_dihedral = ("
		1 2 3 4
	")
}

ee = energy('scf')
oeprop('DIPOLE', 'QUADRUPOLE', 'MULLIKEN_CHARGES')
f=open( 'psi4out.xyz', 'w' )
f.write( "12  " )
f.write( str(ee) + "\n" )
f.write( MOL.save_string_xyz() )
f.close()
--------------------------------------------------------------------------

  Memory set to   2.000 GiB by Python script.

*** tstart() called on cx1-1-3-4.cx1.hpc.ic.ac.uk
*** at Tue Jul  5 16:23:15 2016


         ---------------------------------------------------------
                                   SCF
            by Justin Turney, Rob Parrish, and Andy Simmonett
                              RHF Reference
                        1 Threads,   2000 MiB Core
         ---------------------------------------------------------

  ==> Geometry <==

    Molecular point group: c1
    Full point group: C1

    Geometry (in Angstrom), charge = 0, multiplicity = 1:

       Center              X                  Y                   Z               Mass       
    ------------   -----------------  -----------------  -----------------  -----------------
           H         -0.915786077021    -2.002305638303     0.420379892056     1.007825032070
           O         -1.267625077021    -1.209307638303     0.042737892056    15.994914619560
           C         -0.576303077021    -0.096303638303     0.548839892056    12.000000000000
           C          0.835296922979     0.036702361697    -0.011848107944    12.000000000000
           H         -1.164661077021     0.768292361697     0.269769892056     1.007825032070
           H         -0.544908077021    -0.129223638303     1.637360892056     1.007825032070
           C          1.133899922979     1.416039361697    -0.600041107944    12.000000000000
           H          1.544477922979    -0.184117638303     0.780581892056     1.007825032070
           H          0.969647922979    -0.721927638303    -0.779943107944     1.007825032070
           H          1.079847922979     2.190954361697     0.158760892056     1.007825032070
           H          2.132274922979     1.451507361697    -1.023072107944     1.007825032070
           H          0.432288922979     1.668534361697    -1.391402107944     1.007825032070

  Running in c1 symmetry.

  Rotational constants: A =      0.73200  B =      0.12956  C =      0.12682 [cm^-1]
  Rotational constants: A =  21944.93872  B =   3884.18910  C =   3801.86228 [MHz]
  Nuclear repulsion =  131.140655767593017

  Charge       = 0
  Multiplicity = 1
  Electrons    = 34
  Nalpha       = 17
  Nbeta        = 17

  ==> Algorithm <==

  SCF Algorithm Type is DF.
  DIIS enabled.
  MOM disabled.
  Fractional occupation disabled.
  Guess Type is CORE.
  Energy threshold   = 1.00e-06
  Density threshold  = 1.00e-06
  Integral threshold = 0.00e+00

  ==> Primary Basis <==

  Basis Set: 6-31G*
    Number of shells: 40
    Number of basis function: 76
    Number of Cartesian functions: 76
    Spherical Harmonics?: false
    Max angular momentum: 2

  ==> Pre-Iterations <==

   -------------------------------------------------------
    Irrep   Nso     Nmo     Nalpha   Nbeta   Ndocc  Nsocc
   -------------------------------------------------------
     A         76      76       0       0       0       0
   -------------------------------------------------------
    Total      76      76      17      17      17       0
   -------------------------------------------------------

 OEINTS: Overlap, kinetic, potential, dipole, and quadrupole integrals
         stored in file 35.

  ==> Integral Setup <==

  ==> DFJK: Density-Fitted J/K Matrices <==

    J tasked:                  Yes
    K tasked:                  Yes
    wK tasked:                  No
    OpenMP threads:              1
    Integrals threads:           1
    Memory (MB):              1430
    Algorithm:                Core
    Integral Cache:           NONE
    Schwarz Cutoff:          1E-12
    Fitting Condition:       1E-12

   => Auxiliary Basis Set <=

  Basis Set: 
    Number of shells: 168
    Number of basis function: 524
    Number of Cartesian functions: 524
    Spherical Harmonics?: false
    Max angular momentum: 3

  Minimum eigenvalue in the overlap matrix is 4.5486893594E-03.
  Using Symmetric Orthogonalization.
  SCF Guess: Core (One-Electron) Hamiltonian.

  ==> Iterations <==

                           Total Energy        Delta E     RMS |[F,P]|

   @DF-RHF iter   1:  -156.03493789646322   -1.56035e+02   8.61792e-02 
   @DF-RHF iter   2:  -113.86297457902862    4.21720e+01   7.90337e-02 DIIS
   @DF-RHF iter   3:  -162.73517374407365   -4.88722e+01   6.75499e-02 DIIS
   @DF-RHF iter   4:  -192.10501022112848   -2.93698e+01   1.81735e-02 DIIS
   @DF-RHF iter   5:  -193.04722651499608   -9.42216e-01   4.40471e-03 DIIS
   @DF-RHF iter   6:  -193.09969850613336   -5.24720e-02   1.12610e-03 DIIS
   @DF-RHF iter   7:  -193.10338586266775   -3.68736e-03   3.48678e-04 DIIS
   @DF-RHF iter   8:  -193.10381782976540   -4.31967e-04   1.08572e-04 DIIS
   @DF-RHF iter   9:  -193.10386133330186   -4.35035e-05   3.33247e-05 DIIS
   @DF-RHF iter  10:  -193.10386639012225   -5.05682e-06   8.19319e-06 DIIS
   @DF-RHF iter  11:  -193.10386681595148   -4.25829e-07   2.68250e-06 DIIS
   @DF-RHF iter  12:  -193.10386686051217   -4.45607e-08   6.07335e-07 DIIS

  ==> Post-Iterations <==

    Orbital Energies (a.u.)
    -----------------------

    Doubly Occupied:                                                      

       1A    -20.551909     2A    -11.266300     3A    -11.215881  
       4A    -11.213809     5A     -1.358985     6A     -1.050863  
       7A     -0.918293     8A     -0.817023     9A     -0.691843  
      10A     -0.625672    11A     -0.612073    12A     -0.582729  
      13A     -0.530873    14A     -0.515222    15A     -0.489076  
      16A     -0.463710    17A     -0.427804  

    Virtual:                                                              

      18A      0.226611    19A      0.244688    20A      0.288152  
      21A      0.290089    22A      0.315333    23A      0.325890  
      24A      0.334647    25A      0.345585    26A      0.419376  
      27A      0.447920    28A      0.465050    29A      0.729299  
      30A      0.735760    31A      0.766322    32A      0.805161  
      33A      0.841511    34A      0.892528    35A      0.945014  
      36A      0.957767    37A      1.018306    38A      1.085532  
      39A      1.142830    40A      1.162598    41A      1.169513  
      42A      1.174151    43A      1.182247    44A      1.204809  
      45A      1.228499    46A      1.252163    47A      1.286040  
      48A      1.319689    49A      1.434447    50A      1.542349  
      51A      1.679521    52A      1.688104    53A      1.829065  
      54A      1.898237    55A      1.985045    56A      2.058756  
      57A      2.090561    58A      2.220745    59A      2.252130  
      60A      2.319766    61A      2.359479    62A      2.424789  
      63A      2.537186    64A      2.611930    65A      2.662544  
      66A      2.687934    67A      2.734187    68A      2.823649  
      69A      2.888239    70A      2.942981    71A      3.083302  
      72A      3.214746    73A      4.169663    74A      4.573090  
      75A      4.728397    76A      4.930573  

    Final Occupation by Irrep:
              A 
    DOCC [    17 ]

  Energy converged.

  @DF-RHF Final Energy:  -193.10386686051217

   => Energetics <=

    Nuclear Repulsion Energy =            131.1406557675930173
    One-Electron Energy =                -521.8250008444028936
    Two-Electron Energy =                 197.5804782162979336
    DFT Exchange-Correlation Energy =       0.0000000000000000
    Empirical Dispersion Energy =           0.0000000000000000
    PCM Polarization Energy =               0.0000000000000000
    EFP Energy =                            0.0000000000000000
    Total Energy =                       -193.1038668605119710

    Alert: EFP and PCM quantities not currently incorporated into SCF psivars.

Properties will be evaluated at   0.000000,   0.000000,   0.000000 Bohr
  ==> Properties <==


Properties computed using the SCF density matrix

  Nuclear Dipole Moment: (a.u.)
     X:     3.3062      Y:     2.8457      Z:     0.0681

  Electronic Dipole Moment: (a.u.)
     X:    -2.7372      Y:    -2.8919      Z:     0.3715

  Dipole Moment: (a.u.)
     X:     0.5690      Y:    -0.0462      Z:     0.4396     Total:     0.7205

  Dipole Moment: (Debye)
     X:     1.4462      Y:    -0.1173      Z:     1.1175     Total:     1.8314


  Saving occupied orbitals to File 180.

*** tstop() called on cx1-1-3-4.cx1.hpc.ic.ac.uk at Tue Jul  5 16:23:20 2016
Module time:
	user time   =       4.42 seconds =       0.07 minutes
	system time =       0.04 seconds =       0.00 minutes
	total time  =          5 seconds =       0.08 minutes
Total time:
	user time   =       4.42 seconds =       0.07 minutes
	system time =       0.04 seconds =       0.00 minutes
	total time  =          5 seconds =       0.08 minutes


Properties will be evaluated at   0.000000,   0.000000,   0.000000 Bohr

Properties computed using the  density matrix

  Nuclear Dipole Moment: (a.u.)
     X:     3.3062      Y:     2.8457      Z:     0.0681

  Electronic Dipole Moment: (a.u.)
     X:    -2.7372      Y:    -2.8919      Z:     0.3715

  Dipole Moment: (a.u.)
     X:     0.5690      Y:    -0.0462      Z:     0.4396     Total:     0.7205

  Dipole Moment: (Debye)
     X:     1.4462      Y:    -0.1173      Z:     1.1175     Total:     1.8314

  Quadrupole Moment: (Debye Ang)
    XX:   -30.0900     YY:   -23.8616     ZZ:   -26.0752
    XY:    -1.7235     XZ:    -0.8353     YZ:    -1.6749

  Traceless Quadrupole Moment: (Debye Ang)
    XX:    -3.4144     YY:     2.8140     ZZ:     0.6004
    XY:    -1.7235     XZ:    -0.8353     YZ:    -1.6749

  Mulliken Charges: (a.u.)
   Center  Symbol    Alpha    Beta     Spin     Total
       1     H     0.28313  0.28313  0.00000  0.43373
       2     O     4.36968  4.36968  0.00000 -0.73936
       3     C     2.99619  2.99619  0.00000  0.00763
       4     C     3.17167  3.17167  0.00000 -0.34334
       5     H     0.41415  0.41415  0.00000  0.17171
       6     H     0.42989  0.42989  0.00000  0.14022
       7     C     3.24510  3.24510  0.00000 -0.49019
       8     H     0.42270  0.42270  0.00000  0.15459
       9     H     0.41148  0.41148  0.00000  0.17703
      10     H     0.42135  0.42135  0.00000  0.15730
      11     H     0.41805  0.41805  0.00000  0.16390
      12     H     0.41661  0.41661  0.00000  0.16677

   Total alpha = 17.00000, Total beta = 17.00000, Total charge = -0.00000


*** PSI4 exiting successfully. Buy a developer a beer!
