    -----------------------------------------------------------------------
          Psi4: An Open-Source Ab Initio Electronic Structure Package
                              Psi4 (no tag) Driver

                          Git: Rev {detached?}  

    J. M. Turney, A. C. Simmonett, R. M. Parrish, E. G. Hohenstein,
    F. A. Evangelista, J. T. Fermann, B. J. Mintz, L. A. Burns, J. J. Wilke,
    M. L. Abrams, N. J. Russ, M. L. Leininger, C. L. Janssen, E. T. Seidl,
    W. D. Allen, H. F. Schaefer, R. A. King, E. F. Valeev, C. D. Sherrill,
    and T. D. Crawford, WIREs Comput. Mol. Sci. 2, 556-565 (2012)
    (doi: 10.1002/wcms.93)

                         Additional Contributions by
    A. E. DePrince, M. Saitow, U. Bozkaya, A. Yu. Sokolov
    -----------------------------------------------------------------------


    Psi4 started on: Tue Jul  5 16:43:05 2016

    Process ID:   9379
    PSI4DATADIR: /export131/home/mjharvey/miniconda3/share
    Memory level set to 256.000 MB

  ==> Input File <==

--------------------------------------------------------------------------
set {
	reference rhf
	basis 6-31G*
}


set_num_threads( 1 )
memory 2 gb

molecule MOL {
0 1

H	 -2.365627	 -1.312883	 -0.379134
C	 -1.358347	 -1.274295	 0.019669
C	 -0.681945	 0.000119	 -0.470601
H	 -0.826096	 -2.155117	 -0.321105
H	 -1.409554	 -1.292283	 1.100109
C	 -1.357790	 1.274691	 0.020220
N	 0.739525	 -0.000142	 0.006128
H	 -0.594190	 0.000341	 -1.545128
H	 -2.364980	 1.313977	 -0.378631
H	 -0.825080	 2.155361	 -0.320114
H	 -1.409060	 1.292170	 1.100671
O	 1.319336	 -1.041487	 0.006741
O	 1.200670	 1.044343	 0.355123

	symmetry c1
}
ee = energy('scf')
oeprop('DIPOLE', 'QUADRUPOLE', 'MULLIKEN_CHARGES')
f=open( 'psi4out.xyz', 'w' )
f.write( "13  " )
f.write( str(ee) + "\n" )
f.write( MOL.save_string_xyz() )
f.close()
--------------------------------------------------------------------------

  Memory set to   2.000 GiB by Python script.

*** tstart() called on cx1-3-6-2.cx1.hpc.ic.ac.uk
*** at Tue Jul  5 16:43:06 2016


         ---------------------------------------------------------
                                   SCF
            by Justin Turney, Rob Parrish, and Andy Simmonett
                              RHF Reference
                        1 Threads,   2000 MiB Core
         ---------------------------------------------------------

  ==> Geometry <==

    Molecular point group: c1
    Full point group: C1

    Geometry (in Angstrom), charge = 0, multiplicity = 1:

       Center              X                  Y                   Z               Mass       
    ------------   -----------------  -----------------  -----------------  -----------------
           H         -2.365791969565    -1.313460794891    -0.378641028413     1.007825032070
           C         -1.358511969565    -1.274872794891     0.020161971587    12.000000000000
           C         -0.682109969565    -0.000458794891    -0.470108028413    12.000000000000
           H         -0.826260969565    -2.155694794891    -0.320612028413     1.007825032070
           H         -1.409718969565    -1.292860794891     1.100601971587     1.007825032070
           C         -1.357954969565     1.274113205109     0.020712971587    12.000000000000
           N          0.739360030435    -0.000719794891     0.006620971587    14.003074004780
           H         -0.594354969565    -0.000236794891    -1.544635028413     1.007825032070
           H         -2.365144969565     1.313399205109    -0.378138028413     1.007825032070
           H         -0.825244969565     2.154783205109    -0.319621028413     1.007825032070
           H         -1.409224969565     1.291592205109     1.101163971587     1.007825032070
           O          1.319171030435    -1.042064794891     0.007233971587    15.994914619560
           O          1.200505030435     1.043765205109     0.355615971587    15.994914619560

  Running in c1 symmetry.

  Rotational constants: A =      0.17022  B =      0.12482  C =      0.07777 [cm^-1]
  Rotational constants: A =   5103.02333  B =   3741.98405  C =   2331.50625 [MHz]
  Nuclear repulsion =  257.750634006199903

  Charge       = 0
  Multiplicity = 1
  Electrons    = 48
  Nalpha       = 24
  Nbeta        = 24

  ==> Algorithm <==

  SCF Algorithm Type is DF.
  DIIS enabled.
  MOM disabled.
  Fractional occupation disabled.
  Guess Type is CORE.
  Energy threshold   = 1.00e-06
  Density threshold  = 1.00e-06
  Integral threshold = 0.00e+00

  ==> Primary Basis <==

  Basis Set: 6-31G*
    Number of shells: 50
    Number of basis function: 104
    Number of Cartesian functions: 104
    Spherical Harmonics?: false
    Max angular momentum: 2

  ==> Pre-Iterations <==

   -------------------------------------------------------
    Irrep   Nso     Nmo     Nalpha   Nbeta   Ndocc  Nsocc
   -------------------------------------------------------
     A        104     104       0       0       0       0
   -------------------------------------------------------
    Total     104     104      24      24      24       0
   -------------------------------------------------------

 OEINTS: Overlap, kinetic, potential, dipole, and quadrupole integrals
         stored in file 35.

  ==> Integral Setup <==

  ==> DFJK: Density-Fitted J/K Matrices <==

    J tasked:                  Yes
    K tasked:                  Yes
    wK tasked:                  No
    OpenMP threads:              1
    Integrals threads:           1
    Memory (MB):              1430
    Algorithm:                Core
    Integral Cache:           NONE
    Schwarz Cutoff:          1E-12
    Fitting Condition:       1E-12

   => Auxiliary Basis Set <=

  Basis Set: 
    Number of shells: 207
    Number of basis function: 661
    Number of Cartesian functions: 661
    Spherical Harmonics?: false
    Max angular momentum: 3

  Minimum eigenvalue in the overlap matrix is 2.6654210440E-03.
  Using Symmetric Orthogonalization.
  SCF Guess: Core (One-Electron) Hamiltonian.

  ==> Iterations <==

                           Total Energy        Delta E     RMS |[F,P]|

   @DF-RHF iter   1:  -237.59006192680351   -2.37590e+02   8.67849e-02 
   @DF-RHF iter   2:  -211.29678706771915    2.62933e+01   6.88100e-02 DIIS
   @DF-RHF iter   3:  -257.82307860396065   -4.65263e+01   7.18665e-02 DIIS
   @DF-RHF iter   4:  -317.39048078745316   -5.95674e+01   2.24995e-02 DIIS
   @DF-RHF iter   5:  -321.34840186694998   -3.95792e+00   7.68070e-03 DIIS
   @DF-RHF iter   6:  -321.69946990192182   -3.51068e-01   2.37578e-03 DIIS
   @DF-RHF iter   7:  -321.72830257634257   -2.88327e-02   1.04179e-03 DIIS
   @DF-RHF iter   8:  -321.73336138353272   -5.05881e-03   6.36243e-04 DIIS
   @DF-RHF iter   9:  -321.73558887510580   -2.22749e-03   2.65317e-04 DIIS
   @DF-RHF iter  10:  -321.73606110218441   -4.72227e-04   9.32908e-05 DIIS
   @DF-RHF iter  11:  -321.73612732112281   -6.62189e-05   3.84923e-05 DIIS
   @DF-RHF iter  12:  -321.73614019602530   -1.28749e-05   1.02141e-05 DIIS
   @DF-RHF iter  13:  -321.73614182154358   -1.62552e-06   4.28261e-06 DIIS
   @DF-RHF iter  14:  -321.73614226285270   -4.41309e-07   1.89994e-06 DIIS
   @DF-RHF iter  15:  -321.73614238162679   -1.18774e-07   7.27532e-07 DIIS

  ==> Post-Iterations <==

    Orbital Energies (a.u.)
    -----------------------

    Doubly Occupied:                                                      

       1A    -20.600440     2A    -20.599615     3A    -15.844485  
       4A    -11.306822     5A    -11.241698     6A    -11.238696  
       7A     -1.629914     8A     -1.415769     9A     -1.142770  
      10A     -0.966756    11A     -0.958227    12A     -0.812932  
      13A     -0.765095    14A     -0.726202    15A     -0.720251  
      16A     -0.637906    17A     -0.595856    18A     -0.580708  
      19A     -0.572084    20A     -0.525206    21A     -0.518219  
      22A     -0.479544    23A     -0.473028    24A     -0.448085  

    Virtual:                                                              

      25A      0.121091    26A      0.222926    27A      0.261932  
      28A      0.272650    29A      0.284035    30A      0.301219  
      31A      0.330036    32A      0.339207    33A      0.347371  
      34A      0.388090    35A      0.399911    36A      0.535446  
      37A      0.615410    38A      0.679230    39A      0.696693  
      40A      0.723616    41A      0.756215    42A      0.811767  
      43A      0.843308    44A      0.892859    45A      0.934541  
      46A      0.955125    47A      0.965660    48A      1.019979  
      49A      1.051750    50A      1.069712    51A      1.108463  
      52A      1.116084    53A      1.135488    54A      1.152932  
      55A      1.176367    56A      1.194703    57A      1.204991  
      58A      1.222942    59A      1.253954    60A      1.266369  
      61A      1.313553    62A      1.323127    63A      1.371421  
      64A      1.397076    65A      1.567045    66A      1.591892  
      67A      1.694083    68A      1.755999    69A      1.815574  
      70A      1.845856    71A      1.962888    72A      1.993726  
      73A      2.023415    74A      2.082032    75A      2.121965  
      76A      2.136323    77A      2.189931    78A      2.209618  
      79A      2.235831    80A      2.298310    81A      2.348617  
      82A      2.403509    83A      2.424173    84A      2.437603  
      85A      2.519039    86A      2.572570    87A      2.597388  
      88A      2.696687    89A      2.704842    90A      2.825972  
      91A      2.890071    92A      2.916256    93A      2.924042  
      94A      3.088044    95A      3.230894    96A      3.296501  
      97A      3.331277    98A      3.512435    99A      4.131659  
     100A      4.223568   101A      4.306535   102A      4.606591  
     103A      4.716995   104A      4.947231  

    Final Occupation by Irrep:
              A 
    DOCC [    24 ]

  Energy converged.

  @DF-RHF Final Energy:  -321.73614238162679

   => Energetics <=

    Nuclear Repulsion Energy =            257.7506340061999026
    One-Electron Energy =                -949.3730436590859654
    Two-Electron Energy =                 369.8862672712593849
    DFT Exchange-Correlation Energy =       0.0000000000000000
    Empirical Dispersion Energy =           0.0000000000000000
    PCM Polarization Energy =               0.0000000000000000
    EFP Energy =                            0.0000000000000000
    Total Energy =                       -321.7361423816266779

    Alert: EFP and PCM quantities not currently incorporated into SCF psivars.

Properties will be evaluated at   0.000000,   0.000000,   0.000000 Bohr
  ==> Properties <==


Properties computed using the SCF density matrix

  Nuclear Dipole Moment: (a.u.)
     X:    -9.1732      Y:    -0.0023      Z:    -0.6919

  Electronic Dipole Moment: (a.u.)
     X:     7.6337      Y:    -0.0019      Z:     0.2265

  Dipole Moment: (a.u.)
     X:    -1.5396      Y:    -0.0042      Z:    -0.4654     Total:     1.6084

  Dipole Moment: (Debye)
     X:    -3.9133      Y:    -0.0106      Z:    -1.1830     Total:     4.0882


  Saving occupied orbitals to File 180.

*** tstop() called on cx1-3-6-2.cx1.hpc.ic.ac.uk at Tue Jul  5 16:43:12 2016
Module time:
	user time   =       6.04 seconds =       0.10 minutes
	system time =       0.05 seconds =       0.00 minutes
	total time  =          6 seconds =       0.10 minutes
Total time:
	user time   =       6.04 seconds =       0.10 minutes
	system time =       0.05 seconds =       0.00 minutes
	total time  =          6 seconds =       0.10 minutes


Properties will be evaluated at   0.000000,   0.000000,   0.000000 Bohr

Properties computed using the  density matrix

  Nuclear Dipole Moment: (a.u.)
     X:    -9.1732      Y:    -0.0023      Z:    -0.6919

  Electronic Dipole Moment: (a.u.)
     X:     7.6337      Y:    -0.0019      Z:     0.2265

  Dipole Moment: (a.u.)
     X:    -1.5396      Y:    -0.0042      Z:    -0.4654     Total:     1.6084

  Dipole Moment: (Debye)
     X:    -3.9133      Y:    -0.0106      Z:    -1.1830     Total:     4.0882

  Quadrupole Moment: (Debye Ang)
    XX:   -39.3578     YY:   -38.7306     ZZ:   -34.3478
    XY:     0.3815     XZ:    -0.6621     YZ:    -0.8101

  Traceless Quadrupole Moment: (Debye Ang)
    XX:    -1.8791     YY:    -1.2519     ZZ:     3.1310
    XY:     0.3815     XZ:    -0.6621     YZ:    -0.8101

  Mulliken Charges: (a.u.)
   Center  Symbol    Alpha    Beta     Spin     Total
       1     H     0.41016  0.41016  0.00000  0.17969
       2     C     3.24740  3.24740  0.00000 -0.49479
       3     C     3.03138  3.03138  0.00000 -0.06277
       4     H     0.39147  0.39147  0.00000  0.21705
       5     H     0.40741  0.40741  0.00000  0.18518
       6     C     3.24286  3.24286  0.00000 -0.48572
       7     N     3.21320  3.21320  0.00000  0.57361
       8     H     0.38422  0.38422  0.00000  0.23156
       9     H     0.41272  0.41272  0.00000  0.17455
      10     H     0.39453  0.39453  0.00000  0.21094
      11     H     0.40650  0.40650  0.00000  0.18701
      12     O     4.22914  4.22914  0.00000 -0.45827
      13     O     4.22902  4.22902  0.00000 -0.45804

   Total alpha = 24.00000, Total beta = 24.00000, Total charge = -0.00000


*** PSI4 exiting successfully. Buy a developer a beer!
