    -----------------------------------------------------------------------
          Psi4: An Open-Source Ab Initio Electronic Structure Package
                              Psi4 (no tag) Driver

                          Git: Rev {detached?}  

    J. M. Turney, A. C. Simmonett, R. M. Parrish, E. G. Hohenstein,
    F. A. Evangelista, J. T. Fermann, B. J. Mintz, L. A. Burns, J. J. Wilke,
    M. L. Abrams, N. J. Russ, M. L. Leininger, C. L. Janssen, E. T. Seidl,
    W. D. Allen, H. F. Schaefer, R. A. King, E. F. Valeev, C. D. Sherrill,
    and T. D. Crawford, WIREs Comput. Mol. Sci. 2, 556-565 (2012)
    (doi: 10.1002/wcms.93)

                         Additional Contributions by
    A. E. DePrince, M. Saitow, U. Bozkaya, A. Yu. Sokolov
    -----------------------------------------------------------------------


    Psi4 started on: Tue Jul  5 16:34:23 2016

    Process ID:  23427
    PSI4DATADIR: /export131/home/mjharvey/miniconda3/share
    Memory level set to 256.000 MB

  ==> Input File <==

--------------------------------------------------------------------------
set {
	reference rhf
	basis 6-31G*
}


set_num_threads( 1 )
memory 2 gb

molecule MOL {
0 1

H	 -1.748661	 -2.220942	 -0.005015
C	 -1.343207	 -1.225221	 -0.013879
N	 -0.055091	 -1.100174	 -0.261126
C	 -2.150779	 -0.125890	 0.222726
C	 0.449969	 0.122615	 -0.277109
H	 -3.200618	 -0.238980	 0.422496
N	 -1.660212	 1.097703	 0.209594
C	 -0.371804	 1.219904	 -0.038265
C	 1.928147	 0.267347	 -0.541394
H	 0.029131	 2.217482	 -0.051283
C	 2.571475	 1.362037	 0.316391
H	 2.406311	 -0.683444	 -0.331113
H	 2.088657	 0.481461	 -1.593329
H	 3.637608	 1.421078	 0.121783
H	 2.428991	 1.152726	 1.370130
H	 2.136426	 2.333176	 0.102073

	symmetry c1
}
ee = energy('scf')
oeprop('DIPOLE', 'QUADRUPOLE', 'MULLIKEN_CHARGES')
f=open( 'psi4out.xyz', 'w' )
f.write( "16  " )
f.write( str(ee) + "\n" )
f.write( MOL.save_string_xyz() )
f.close()
--------------------------------------------------------------------------

  Memory set to   2.000 GiB by Python script.

*** tstart() called on cx1-3-6-2.cx1.hpc.ic.ac.uk
*** at Tue Jul  5 16:34:24 2016


         ---------------------------------------------------------
                                   SCF
            by Justin Turney, Rob Parrish, and Andy Simmonett
                              RHF Reference
                        1 Threads,   2000 MiB Core
         ---------------------------------------------------------

  ==> Geometry <==

    Molecular point group: c1
    Full point group: C1

    Geometry (in Angstrom), charge = 0, multiplicity = 1:

       Center              X                  Y                   Z               Mass       
    ------------   -----------------  -----------------  -----------------  -----------------
           H         -1.719279740256    -2.442212065948     0.038142201338     1.007825032070
           C         -1.313825740256    -1.446491065948     0.029278201338    12.000000000000
           N         -0.025709740256    -1.321444065948    -0.217968798662    14.003074004780
           C         -2.121397740256    -0.347160065948     0.265883201338    12.000000000000
           C          0.479350259744    -0.098655065948    -0.233951798662    12.000000000000
           H         -3.171236740256    -0.460250065948     0.465653201338     1.007825032070
           N         -1.630830740256     0.876432934052     0.252751201338    14.003074004780
           C         -0.342422740256     0.998633934052     0.004892201338    12.000000000000
           C          1.957528259744     0.046076934052    -0.498236798662    12.000000000000
           H          0.058512259744     1.996211934052    -0.008125798662     1.007825032070
           C          2.600856259744     1.140766934052     0.359548201338    12.000000000000
           H          2.435692259744    -0.904714065948    -0.287955798662     1.007825032070
           H          2.118038259744     0.260190934052    -1.550171798662     1.007825032070
           H          3.666989259744     1.199807934052     0.164940201338     1.007825032070
           H          2.458372259744     0.931455934052     1.413287201338     1.007825032070
           H          2.165807259744     2.111905934052     0.145230201338     1.007825032070

  Running in c1 symmetry.

  Rotational constants: A =      0.16574  B =      0.05298  C =      0.04190 [cm^-1]
  Rotational constants: A =   4968.71810  B =   1588.22057  C =   1256.18693 [MHz]
  Nuclear repulsion =  350.266762808685769

  Charge       = 0
  Multiplicity = 1
  Electrons    = 58
  Nalpha       = 29
  Nbeta        = 29

  ==> Algorithm <==

  SCF Algorithm Type is DF.
  DIIS enabled.
  MOM disabled.
  Fractional occupation disabled.
  Guess Type is CORE.
  Energy threshold   = 1.00e-06
  Density threshold  = 1.00e-06
  Integral threshold = 0.00e+00

  ==> Primary Basis <==

  Basis Set: 6-31G*
    Number of shells: 64
    Number of basis function: 136
    Number of Cartesian functions: 136
    Spherical Harmonics?: false
    Max angular momentum: 2

  ==> Pre-Iterations <==

   -------------------------------------------------------
    Irrep   Nso     Nmo     Nalpha   Nbeta   Ndocc  Nsocc
   -------------------------------------------------------
     A        136     136       0       0       0       0
   -------------------------------------------------------
    Total     136     136      29      29      29       0
   -------------------------------------------------------

 OEINTS: Overlap, kinetic, potential, dipole, and quadrupole integrals
         stored in file 35.

  ==> Integral Setup <==

  ==> DFJK: Density-Fitted J/K Matrices <==

    J tasked:                  Yes
    K tasked:                  Yes
    wK tasked:                  No
    OpenMP threads:              1
    Integrals threads:           1
    Memory (MB):              1430
    Algorithm:                Core
    Integral Cache:           NONE
    Schwarz Cutoff:          1E-12
    Fitting Condition:       1E-12

   => Auxiliary Basis Set <=

  Basis Set: 
    Number of shells: 264
    Number of basis function: 848
    Number of Cartesian functions: 848
    Spherical Harmonics?: false
    Max angular momentum: 3

  Minimum eigenvalue in the overlap matrix is 1.1716700764E-03.
  Using Symmetric Orthogonalization.
  SCF Guess: Core (One-Electron) Hamiltonian.

  ==> Iterations <==

                           Total Energy        Delta E     RMS |[F,P]|

   @DF-RHF iter   1:  -251.48137260135985   -2.51481e+02   6.98491e-02 
   @DF-RHF iter   2:  -127.37058840146500    1.24111e+02   8.12363e-02 DIIS
   @DF-RHF iter   3:  -227.97769107829987   -1.00607e+02   7.21246e-02 DIIS
   @DF-RHF iter   4:  -295.53960818767638   -6.75619e+01   4.94304e-02 DIIS
   @DF-RHF iter   5:  -321.67020690761029   -2.61306e+01   3.30096e-02 DIIS
   @DF-RHF iter   6:  -339.98247580821561   -1.83123e+01   8.36225e-03 DIIS
   @DF-RHF iter   7:  -340.63190553079545   -6.49430e-01   3.34138e-03 DIIS
   @DF-RHF iter   8:  -340.73021914507711   -9.83136e-02   1.36723e-03 DIIS
   @DF-RHF iter   9:  -340.75295425804762   -2.27351e-02   3.38474e-04 DIIS
   @DF-RHF iter  10:  -340.75488450314725   -1.93025e-03   1.25510e-04 DIIS
   @DF-RHF iter  11:  -340.75516231366493   -2.77811e-04   6.21508e-05 DIIS
   @DF-RHF iter  12:  -340.75524526754504   -8.29539e-05   2.74471e-05 DIIS
   @DF-RHF iter  13:  -340.75526333455406   -1.80670e-05   9.81075e-06 DIIS
   @DF-RHF iter  14:  -340.75526616089797   -2.82634e-06   3.67646e-06 DIIS
   @DF-RHF iter  15:  -340.75526675318139   -5.92283e-07   1.41144e-06 DIIS
   @DF-RHF iter  16:  -340.75526682856827   -7.53869e-08   4.46697e-07 DIIS

  ==> Post-Iterations <==

    Orbital Energies (a.u.)
    -----------------------

    Doubly Occupied:                                                      

       1A    -15.586546     2A    -15.581626     3A    -11.281050  
       4A    -11.275399     5A    -11.271485     6A    -11.271331  
       7A    -11.232537     8A    -11.222863     9A     -1.312905  
      10A     -1.221288    11A     -1.087383    12A     -1.014070  
      13A     -0.905762    14A     -0.893200    15A     -0.830058  
      16A     -0.715048    17A     -0.709643    18A     -0.655449  
      19A     -0.623182    20A     -0.610808    21A     -0.572377  
      22A     -0.563061    23A     -0.518854    24A     -0.514067  
      25A     -0.504349    26A     -0.481519    27A     -0.428752  
      28A     -0.394672    29A     -0.344672  

    Virtual:                                                              

      30A      0.105431    31A      0.133484    32A      0.237883  
      33A      0.272654    34A      0.275095    35A      0.297373  
      36A      0.314669    37A      0.316651    38A      0.322190  
      39A      0.352099    40A      0.361907    41A      0.400500  
      42A      0.415444    43A      0.428090    44A      0.508579  
      45A      0.513844    46A      0.567495    47A      0.626127  
      48A      0.671547    49A      0.707300    50A      0.728481  
      51A      0.731761    52A      0.750793    53A      0.753510  
      54A      0.789831    55A      0.804393    56A      0.831217  
      57A      0.851310    58A      0.868853    59A      0.907035  
      60A      0.917869    61A      0.941833    62A      0.965223  
      63A      0.990610    64A      1.047168    65A      1.071249  
      66A      1.078698    67A      1.092132    68A      1.098483  
      69A      1.112975    70A      1.119208    71A      1.140610  
      72A      1.146070    73A      1.172584    74A      1.186080  
      75A      1.212502    76A      1.229188    77A      1.244267  
      78A      1.263796    79A      1.267502    80A      1.309535  
      81A      1.367018    82A      1.430031    83A      1.465211  
      84A      1.508668    85A      1.548014    86A      1.633717  
      87A      1.640082    88A      1.706448    89A      1.754624  
      90A      1.774650    91A      1.788268    92A      1.796993  
      93A      1.838398    94A      1.927659    95A      1.988113  
      96A      2.079158    97A      2.100067    98A      2.134405  
      99A      2.144799   100A      2.174202   101A      2.240234  
     102A      2.278863   103A      2.305798   104A      2.331855  
     105A      2.419390   106A      2.470483   107A      2.500831  
     108A      2.560396   109A      2.571025   110A      2.596820  
     111A      2.625569   112A      2.648370   113A      2.673489  
     114A      2.703993   115A      2.716631   116A      2.728368  
     117A      2.829133   118A      2.868151   119A      2.914193  
     120A      2.928370   121A      3.024066   122A      3.105608  
     123A      3.136827   124A      3.181958   125A      3.221161  
     126A      3.270619   127A      3.509966   128A      3.844386  
     129A      4.373391   130A      4.507755   131A      4.558759  
     132A      4.646924   133A      4.709438   134A      4.743418  
     135A      4.881679   136A      5.001977  

    Final Occupation by Irrep:
              A 
    DOCC [    29 ]

  Energy converged.

  @DF-RHF Final Energy:  -340.75526682856827

   => Energetics <=

    Nuclear Repulsion Energy =            350.2667628086857690
    One-Electron Energy =               -1154.7961224151711122
    Two-Electron Energy =                 463.7740927779167350
    DFT Exchange-Correlation Energy =       0.0000000000000000
    Empirical Dispersion Energy =           0.0000000000000000
    PCM Polarization Energy =               0.0000000000000000
    EFP Energy =                            0.0000000000000000
    Total Energy =                       -340.7552668285685513

    Alert: EFP and PCM quantities not currently incorporated into SCF psivars.

Properties will be evaluated at   0.000000,   0.000000,   0.000000 Bohr
  ==> Properties <==


Properties computed using the SCF density matrix

  Nuclear Dipole Moment: (a.u.)
     X:     7.5167      Y:     2.5253      Z:     0.3571

  Electronic Dipole Moment: (a.u.)
     X:    -7.2894      Y:    -2.5490      Z:    -0.3931

  Dipole Moment: (a.u.)
     X:     0.2273      Y:    -0.0237      Z:    -0.0361     Total:     0.2313

  Dipole Moment: (Debye)
     X:     0.5776      Y:    -0.0602      Z:    -0.0916     Total:     0.5880


  Saving occupied orbitals to File 180.

*** tstop() called on cx1-3-6-2.cx1.hpc.ic.ac.uk at Tue Jul  5 16:34:38 2016
Module time:
	user time   =      14.00 seconds =       0.23 minutes
	system time =       0.10 seconds =       0.00 minutes
	total time  =         14 seconds =       0.23 minutes
Total time:
	user time   =      14.00 seconds =       0.23 minutes
	system time =       0.10 seconds =       0.00 minutes
	total time  =         14 seconds =       0.23 minutes


Properties will be evaluated at   0.000000,   0.000000,   0.000000 Bohr

Properties computed using the  density matrix

  Nuclear Dipole Moment: (a.u.)
     X:     7.5167      Y:     2.5253      Z:     0.3571

  Electronic Dipole Moment: (a.u.)
     X:    -7.2894      Y:    -2.5490      Z:    -0.3931

  Dipole Moment: (a.u.)
     X:     0.2273      Y:    -0.0237      Z:    -0.0361     Total:     0.2313

  Dipole Moment: (Debye)
     X:     0.5776      Y:    -0.0602      Z:    -0.0916     Total:     0.5880

  Quadrupole Moment: (Debye Ang)
    XX:   -44.3802     YY:   -49.3266     ZZ:   -48.9001
    XY:     6.5282     XZ:    -0.4623     YZ:    -1.5847

  Traceless Quadrupole Moment: (Debye Ang)
    XX:     3.1555     YY:    -1.7910     ZZ:    -1.3645
    XY:     6.5282     XZ:    -0.4623     YZ:    -1.5847

  Mulliken Charges: (a.u.)
   Center  Symbol    Alpha    Beta     Spin     Total
       1     H     0.39388  0.39388  0.00000  0.21225
       2     C     2.99069  2.99069  0.00000  0.01862
       3     N     3.75633  3.75633  0.00000 -0.51265
       4     C     2.99814  2.99814  0.00000  0.00372
       5     C     2.87422  2.87422  0.00000  0.25157
       6     H     0.39441  0.39441  0.00000  0.21117
       7     N     3.73059  3.73059  0.00000 -0.46117
       8     C     2.99496  2.99496  0.00000  0.01008
       9     C     3.17096  3.17096  0.00000 -0.34192
      10     H     0.39367  0.39367  0.00000  0.21265
      11     C     3.24932  3.24932  0.00000 -0.49863
      12     H     0.39977  0.39977  0.00000  0.20046
      13     H     0.40710  0.40710  0.00000  0.18580
      14     H     0.41344  0.41344  0.00000  0.17311
      15     H     0.41296  0.41296  0.00000  0.17407
      16     H     0.41958  0.41958  0.00000  0.16085

   Total alpha = 29.00000, Total beta = 29.00000, Total charge =  0.00000


*** PSI4 exiting successfully. Buy a developer a beer!
