    -----------------------------------------------------------------------
          Psi4: An Open-Source Ab Initio Electronic Structure Package
                              Psi4 (no tag) Driver

                          Git: Rev {detached?}  

    J. M. Turney, A. C. Simmonett, R. M. Parrish, E. G. Hohenstein,
    F. A. Evangelista, J. T. Fermann, B. J. Mintz, L. A. Burns, J. J. Wilke,
    M. L. Abrams, N. J. Russ, M. L. Leininger, C. L. Janssen, E. T. Seidl,
    W. D. Allen, H. F. Schaefer, R. A. King, E. F. Valeev, C. D. Sherrill,
    and T. D. Crawford, WIREs Comput. Mol. Sci. 2, 556-565 (2012)
    (doi: 10.1002/wcms.93)

                         Additional Contributions by
    A. E. DePrince, M. Saitow, U. Bozkaya, A. Yu. Sokolov
    -----------------------------------------------------------------------


    Psi4 started on: Tue Jul  5 16:30:19 2016

    Process ID:  12449
    PSI4DATADIR: /export131/home/mjharvey/miniconda3/share
    Memory level set to 256.000 MB

  ==> Input File <==

--------------------------------------------------------------------------
set {
	reference rhf
	basis 6-31G*
}


set_num_threads( 1 )
memory 2 gb

molecule MOL {
0 1

H	 0.293484	 2.625816	 -0.392017
C	 0.557503	 1.679937	 -0.867300
N	 0.538815	 0.649616	 0.000000
O	 0.826404	 1.609852	 -2.030051
C	 1.521968	 -0.411503	 0.000000
H	 -0.192644	 0.624219	 0.672761
H	 2.150599	 -0.357004	 -0.881901
H	 0.999455	 -1.354525	 0.000000
H	 2.150599	 -0.357004	 0.881901

	symmetry c1
}
set optking {
	frozen_dihedral = ("
		6 3 5 7
	")
}

ee = energy('scf')
oeprop('DIPOLE', 'QUADRUPOLE', 'MULLIKEN_CHARGES')
f=open( 'psi4out.xyz', 'w' )
f.write( "9  " )
f.write( str(ee) + "\n" )
f.write( MOL.save_string_xyz() )
f.close()
--------------------------------------------------------------------------

  Memory set to   2.000 GiB by Python script.

*** tstart() called on cx1-1-4-3.cx1.hpc.ic.ac.uk
*** at Tue Jul  5 16:30:19 2016


         ---------------------------------------------------------
                                   SCF
            by Justin Turney, Rob Parrish, and Andy Simmonett
                              RHF Reference
                        1 Threads,   2000 MiB Core
         ---------------------------------------------------------

  ==> Geometry <==

    Molecular point group: c1
    Full point group: C1

    Geometry (in Angstrom), charge = 0, multiplicity = 1:

       Center              X                  Y                   Z               Mass       
    ------------   -----------------  -----------------  -----------------  -----------------
           H         -0.573102056081     1.757582134591     0.329480865612     1.007825032070
           C         -0.309083056081     0.811703134591    -0.145802134388    12.000000000000
           N         -0.327771056081    -0.218617865409     0.721497865612    14.003074004780
           O         -0.040182056081     0.741618134591    -1.308553134388    15.994914619560
           C          0.655381943919    -1.279736865409     0.721497865612    12.000000000000
           H         -1.059230056081    -0.244014865409     1.394258865612     1.007825032070
           H          1.284012943919    -1.225237865409    -0.160403134388     1.007825032070
           H          0.132868943919    -2.222758865409     0.721497865612     1.007825032070
           H          1.284012943919    -1.225237865409     1.603398865612     1.007825032070

  Running in c1 symmetry.

  Rotational constants: A =      0.72066  B =      0.19456  C =      0.16144 [cm^-1]
  Rotational constants: A =  21604.75049  B =   5832.74540  C =   4839.98652 [MHz]
  Nuclear repulsion =  122.013260975899442

  Charge       = 0
  Multiplicity = 1
  Electrons    = 32
  Nalpha       = 16
  Nbeta        = 16

  ==> Algorithm <==

  SCF Algorithm Type is DF.
  DIIS enabled.
  MOM disabled.
  Fractional occupation disabled.
  Guess Type is CORE.
  Energy threshold   = 1.00e-06
  Density threshold  = 1.00e-06
  Integral threshold = 0.00e+00

  ==> Primary Basis <==

  Basis Set: 6-31G*
    Number of shells: 34
    Number of basis function: 70
    Number of Cartesian functions: 70
    Spherical Harmonics?: false
    Max angular momentum: 2

  ==> Pre-Iterations <==

   -------------------------------------------------------
    Irrep   Nso     Nmo     Nalpha   Nbeta   Ndocc  Nsocc
   -------------------------------------------------------
     A         70      70       0       0       0       0
   -------------------------------------------------------
    Total      70      70      16      16      16       0
   -------------------------------------------------------

 OEINTS: Overlap, kinetic, potential, dipole, and quadrupole integrals
         stored in file 35.

  ==> Integral Setup <==

  ==> DFJK: Density-Fitted J/K Matrices <==

    J tasked:                  Yes
    K tasked:                  Yes
    wK tasked:                  No
    OpenMP threads:              1
    Integrals threads:           1
    Memory (MB):              1430
    Algorithm:                Core
    Integral Cache:           NONE
    Schwarz Cutoff:          1E-12
    Fitting Condition:       1E-12

   => Auxiliary Basis Set <=

  Basis Set: 
    Number of shells: 141
    Number of basis function: 449
    Number of Cartesian functions: 449
    Spherical Harmonics?: false
    Max angular momentum: 3

  Minimum eigenvalue in the overlap matrix is 4.9060114290E-03.
  Using Symmetric Orthogonalization.
  SCF Guess: Core (One-Electron) Hamiltonian.

  ==> Iterations <==

                           Total Energy        Delta E     RMS |[F,P]|

   @DF-RHF iter   1:  -166.79255228970410   -1.66793e+02   9.43579e-02 
   @DF-RHF iter   2:  -129.96499512618365    3.68276e+01   8.30369e-02 DIIS
   @DF-RHF iter   3:  -190.07153528995204   -6.01065e+01   5.36195e-02 DIIS
   @DF-RHF iter   4:  -207.18726578512681   -1.71157e+01   1.79933e-02 DIIS
   @DF-RHF iter   5:  -207.88605580238416   -6.98790e-01   5.13826e-03 DIIS
   @DF-RHF iter   6:  -207.94095746354904   -5.49017e-02   8.47411e-04 DIIS
   @DF-RHF iter   7:  -207.94312079647344   -2.16333e-03   2.53858e-04 DIIS
   @DF-RHF iter   8:  -207.94338750582452   -2.66709e-04   1.14463e-04 DIIS
   @DF-RHF iter   9:  -207.94343103622182   -4.35304e-05   5.98419e-05 DIIS
   @DF-RHF iter  10:  -207.94344380810546   -1.27719e-05   2.46859e-05 DIIS
   @DF-RHF iter  11:  -207.94344610318242   -2.29508e-06   8.13806e-06 DIIS
   @DF-RHF iter  12:  -207.94344631713275   -2.13950e-07   2.14856e-06 DIIS
   @DF-RHF iter  13:  -207.94344634604468   -2.89119e-08   8.51597e-07 DIIS

  ==> Post-Iterations <==

    Orbital Energies (a.u.)
    -----------------------

    Doubly Occupied:                                                      

       1A    -20.536488     2A    -15.577088     3A    -11.345088  
       4A    -11.262249     5A     -1.393219     6A     -1.232627  
       7A     -0.965895     8A     -0.809342     9A     -0.739434  
      10A     -0.642558    11A     -0.636783    12A     -0.596083  
      13A     -0.557936    14A     -0.524126    15A     -0.428534  
      16A     -0.384257  

    Virtual:                                                              

      17A      0.188063    18A      0.229739    19A      0.269563  
      20A      0.291734    21A      0.317960    22A      0.320501  
      23A      0.385355    24A      0.454294    25A      0.571400  
      26A      0.710842    27A      0.720129    28A      0.778999  
      29A      0.813638    30A      0.871124    31A      0.939474  
      32A      0.985277    33A      1.030931    34A      1.070492  
      35A      1.106502    36A      1.117964    37A      1.146045  
      38A      1.181390    39A      1.205923    40A      1.221927  
      41A      1.313840    42A      1.325345    43A      1.375957  
      44A      1.425811    45A      1.567118    46A      1.680292  
      47A      1.803750    48A      1.841293    49A      1.866291  
      50A      2.050354    51A      2.146401    52A      2.149622  
      53A      2.253124    54A      2.301628    55A      2.365483  
      56A      2.436472    57A      2.504857    58A      2.591445  
      59A      2.661013    60A      2.788690    61A      2.809169  
      62A      2.923192    63A      3.039774    64A      3.149530  
      65A      3.323341    66A      3.457081    67A      4.283847  
      68A      4.328918    69A      4.587344    70A      4.720938  

    Final Occupation by Irrep:
              A 
    DOCC [    16 ]

  Energy converged.

  @DF-RHF Final Energy:  -207.94344634604468

   => Energetics <=

    Nuclear Repulsion Energy =            122.0132609758994420
    One-Electron Energy =                -524.6500417522742055
    Two-Electron Energy =                 194.6933344303301112
    DFT Exchange-Correlation Energy =       0.0000000000000000
    Empirical Dispersion Energy =           0.0000000000000000
    PCM Polarization Energy =               0.0000000000000000
    EFP Energy =                            0.0000000000000000
    Total Energy =                       -207.9434463460446239

    Alert: EFP and PCM quantities not currently incorporated into SCF psivars.

Properties will be evaluated at   0.000000,   0.000000,   0.000000 Bohr
  ==> Properties <==


Properties computed using the SCF density matrix

  Nuclear Dipole Moment: (a.u.)
     X:     1.0025      Y:    -2.9579      Z:     3.6367

  Electronic Dipole Moment: (a.u.)
     X:    -1.2343      Y:     2.6017      Z:    -2.1931

  Dipole Moment: (a.u.)
     X:    -0.2318      Y:    -0.3561      Z:     1.4436     Total:     1.5048

  Dipole Moment: (Debye)
     X:    -0.5891      Y:    -0.9052      Z:     3.6692     Total:     3.8249


  Saving occupied orbitals to File 180.

*** tstop() called on cx1-1-4-3.cx1.hpc.ic.ac.uk at Tue Jul  5 16:30:22 2016
Module time:
	user time   =       2.93 seconds =       0.05 minutes
	system time =       0.03 seconds =       0.00 minutes
	total time  =          3 seconds =       0.05 minutes
Total time:
	user time   =       2.93 seconds =       0.05 minutes
	system time =       0.03 seconds =       0.00 minutes
	total time  =          3 seconds =       0.05 minutes


Properties will be evaluated at   0.000000,   0.000000,   0.000000 Bohr

Properties computed using the  density matrix

  Nuclear Dipole Moment: (a.u.)
     X:     1.0025      Y:    -2.9579      Z:     3.6367

  Electronic Dipole Moment: (a.u.)
     X:    -1.2343      Y:     2.6017      Z:    -2.1931

  Dipole Moment: (a.u.)
     X:    -0.2318      Y:    -0.3561      Z:     1.4436     Total:     1.5048

  Dipole Moment: (Debye)
     X:    -0.5891      Y:    -0.9052      Z:     3.6692     Total:     3.8249

  Quadrupole Moment: (Debye Ang)
    XX:   -22.1303     YY:   -22.8034     ZZ:   -27.2559
    XY:    -1.2603     XZ:    -1.4804     YZ:     1.4535

  Traceless Quadrupole Moment: (Debye Ang)
    XX:     1.9329     YY:     1.2598     ZZ:    -3.1927
    XY:    -1.2603     XZ:    -1.4804     YZ:     1.4535

  Mulliken Charges: (a.u.)
   Center  Symbol    Alpha    Beta     Spin     Total
       1     H     0.42944  0.42944  0.00000  0.14113
       2     C     2.75238  2.75238  0.00000  0.49525
       3     N     3.88153  3.88153  0.00000 -0.76306
       4     O     4.26487  4.26487  0.00000 -0.52973
       5     C     3.14016  3.14016  0.00000 -0.28033
       6     H     0.30894  0.30894  0.00000  0.38211
       7     H     0.39310  0.39310  0.00000  0.21379
       8     H     0.41389  0.41389  0.00000  0.17222
       9     H     0.41569  0.41569  0.00000  0.16861

   Total alpha = 16.00000, Total beta = 16.00000, Total charge =  0.00000


*** PSI4 exiting successfully. Buy a developer a beer!
