    -----------------------------------------------------------------------
          Psi4: An Open-Source Ab Initio Electronic Structure Package
                              Psi4 (no tag) Driver

                          Git: Rev {detached?}  

    J. M. Turney, A. C. Simmonett, R. M. Parrish, E. G. Hohenstein,
    F. A. Evangelista, J. T. Fermann, B. J. Mintz, L. A. Burns, J. J. Wilke,
    M. L. Abrams, N. J. Russ, M. L. Leininger, C. L. Janssen, E. T. Seidl,
    W. D. Allen, H. F. Schaefer, R. A. King, E. F. Valeev, C. D. Sherrill,
    and T. D. Crawford, WIREs Comput. Mol. Sci. 2, 556-565 (2012)
    (doi: 10.1002/wcms.93)

                         Additional Contributions by
    A. E. DePrince, M. Saitow, U. Bozkaya, A. Yu. Sokolov
    -----------------------------------------------------------------------


    Psi4 started on: Tue Jul  5 16:28:39 2016

    Process ID:  15892
    PSI4DATADIR: /export131/home/mjharvey/miniconda3/share
    Memory level set to 256.000 MB

  ==> Input File <==

--------------------------------------------------------------------------
set {
	reference rhf
	basis 6-31G*
}


set_num_threads( 1 )
memory 2 gb

molecule MOL {
0 1

H	 2.206950	 -0.603439	 0.525073
C	 1.885229	 -0.441293	 -0.510787
C	 0.609186	 0.344288	 -0.670522
O	 2.530041	 -0.873515	 -1.410526
C	 -0.558097	 -0.297372	 0.091132
H	 0.392058	 0.428260	 -1.728957
H	 0.785609	 1.346711	 -0.282121
C	 -1.850991	 0.512573	 -0.019058
H	 -0.727149	 -1.301244	 -0.291537
H	 -0.291447	 -0.407956	 1.140669
C	 -3.096943	 -0.368295	 -0.099594
H	 -1.800724	 1.150330	 -0.898172
H	 -1.931651	 1.177355	 0.838044
H	 -3.060452	 -1.020287	 -0.967456
H	 -3.996858	 0.233488	 -0.175704
H	 -3.191959	 -0.995686	 0.782074

	symmetry c1
}
set optking {
	frozen_dihedral = ("
		6 3 5 9,
		4 2 3 6
	")
}

ee = energy('scf')
oeprop('DIPOLE', 'QUADRUPOLE', 'MULLIKEN_CHARGES')
f=open( 'psi4out.xyz', 'w' )
f.write( "16  " )
f.write( str(ee) + "\n" )
f.write( MOL.save_string_xyz() )
f.close()
--------------------------------------------------------------------------

  Memory set to   2.000 GiB by Python script.

*** tstart() called on cx1-1-3-3.cx1.hpc.ic.ac.uk
*** at Tue Jul  5 16:28:39 2016


         ---------------------------------------------------------
                                   SCF
            by Justin Turney, Rob Parrish, and Andy Simmonett
                              RHF Reference
                        1 Threads,   2000 MiB Core
         ---------------------------------------------------------

  ==> Geometry <==

    Molecular point group: c1
    Full point group: C1

    Geometry (in Angstrom), charge = 0, multiplicity = 1:

       Center              X                  Y                   Z               Mass       
    ------------   -----------------  -----------------  -----------------  -----------------
           H          2.292669141949    -0.406334653744     0.968109543734     1.007825032070
           C          1.970948141949    -0.244188653744    -0.067750456266    12.000000000000
           C          0.694905141949     0.541392346256    -0.227485456266    12.000000000000
           O          2.615760141949    -0.676410653744    -0.967489456266    15.994914619560
           C         -0.472377858051    -0.100267653744     0.534168543734    12.000000000000
           H          0.477777141949     0.625364346256    -1.285920456266     1.007825032070
           H          0.871328141949     1.543815346256     0.160915543734     1.007825032070
           C         -1.765271858051     0.709677346256     0.423978543734    12.000000000000
           H         -0.641429858051    -1.104139653744     0.151499543734     1.007825032070
           H         -0.205727858051    -0.210851653744     1.583705543734     1.007825032070
           C         -3.011223858051    -0.171190653744     0.343442543734    12.000000000000
           H         -1.715004858051     1.347434346256    -0.455135456266     1.007825032070
           H         -1.845931858051     1.374459346256     1.281080543734     1.007825032070
           H         -2.974732858051    -0.823182653744    -0.524419456266     1.007825032070
           H         -3.911138858051     0.430592346256     0.267332543734     1.007825032070
           H         -3.106239858051    -0.798581653744     1.225110543734     1.007825032070

  Running in c1 symmetry.

  Rotational constants: A =      0.42669  B =      0.04289  C =      0.04198 [cm^-1]
  Rotational constants: A =  12791.69744  B =   1285.88777  C =   1258.52452 [MHz]
  Nuclear repulsion =  229.308564419597417

  Charge       = 0
  Multiplicity = 1
  Electrons    = 48
  Nalpha       = 24
  Nbeta        = 24

  ==> Algorithm <==

  SCF Algorithm Type is DF.
  DIIS enabled.
  MOM disabled.
  Fractional occupation disabled.
  Guess Type is CORE.
  Energy threshold   = 1.00e-06
  Density threshold  = 1.00e-06
  Integral threshold = 0.00e+00

  ==> Primary Basis <==

  Basis Set: 6-31G*
    Number of shells: 56
    Number of basis function: 110
    Number of Cartesian functions: 110
    Spherical Harmonics?: false
    Max angular momentum: 2

  ==> Pre-Iterations <==

   -------------------------------------------------------
    Irrep   Nso     Nmo     Nalpha   Nbeta   Ndocc  Nsocc
   -------------------------------------------------------
     A        110     110       0       0       0       0
   -------------------------------------------------------
    Total     110     110      24      24      24       0
   -------------------------------------------------------

 OEINTS: Overlap, kinetic, potential, dipole, and quadrupole integrals
         stored in file 35.

  ==> Integral Setup <==

  ==> DFJK: Density-Fitted J/K Matrices <==

    J tasked:                  Yes
    K tasked:                  Yes
    wK tasked:                  No
    OpenMP threads:              1
    Integrals threads:           1
    Memory (MB):              1430
    Algorithm:                Core
    Integral Cache:           NONE
    Schwarz Cutoff:          1E-12
    Fitting Condition:       1E-12

   => Auxiliary Basis Set <=

  Basis Set: 
    Number of shells: 234
    Number of basis function: 736
    Number of Cartesian functions: 736
    Spherical Harmonics?: false
    Max angular momentum: 3

  Minimum eigenvalue in the overlap matrix is 3.6120299969E-03.
  Using Symmetric Orthogonalization.
  SCF Guess: Core (One-Electron) Hamiltonian.

  ==> Iterations <==

                           Total Energy        Delta E     RMS |[F,P]|

   @DF-RHF iter   1:  -204.63074614157665   -2.04631e+02   7.22758e-02 
   @DF-RHF iter   2:  -112.24184880988338    9.23889e+01   9.26699e-02 DIIS
   @DF-RHF iter   3:  -246.94517573125580   -1.34703e+02   3.08490e-02 DIIS
   @DF-RHF iter   4:  -162.61563987506219    8.43295e+01   9.22290e-02 DIIS
   @DF-RHF iter   5:  -174.34987886492621   -1.17342e+01   7.94694e-02 DIIS
   @DF-RHF iter   6:  -197.41136969497683   -2.30615e+01   6.60466e-02 DIIS
   @DF-RHF iter   7:  -206.91316581893312   -9.50180e+00   6.78267e-02 DIIS
   @DF-RHF iter   8:  -208.91629384162690   -2.00313e+00   6.68152e-02 DIIS
   @DF-RHF iter   9:  -214.44424784831972   -5.52795e+00   5.97621e-02 DIIS
   @DF-RHF iter  10:  -227.15440328560425   -1.27102e+01   5.69029e-02 DIIS
   @DF-RHF iter  11:  -228.68391421582572   -1.52951e+00   5.20639e-02 DIIS
   @DF-RHF iter  12:  -230.98975291630876   -2.30584e+00   4.97087e-02 DIIS
   @DF-RHF iter  13:  -230.88344655184494    1.06306e-01   4.97572e-02 DIIS
   @DF-RHF iter  14:  -231.22319655078627   -3.39750e-01   5.03635e-02 DIIS
   @DF-RHF iter  15:  -268.40932771812123   -3.71861e+01   1.59940e-02 DIIS
   @DF-RHF iter  16:  -269.78733140183141   -1.37800e+00   5.68628e-03 DIIS
   @DF-RHF iter  17:  -269.96595501591031   -1.78624e-01   2.34013e-03 DIIS
   @DF-RHF iter  18:  -270.00923578205482   -4.32808e-02   8.88342e-04 DIIS
   @DF-RHF iter  19:  -270.01520521459776   -5.96943e-03   2.48277e-04 DIIS
   @DF-RHF iter  20:  -270.01591646082221   -7.11246e-04   7.95266e-05 DIIS
   @DF-RHF iter  21:  -270.01598521863264   -6.87578e-05   2.27022e-05 DIIS
   @DF-RHF iter  22:  -270.01599005293207   -4.83430e-06   5.88019e-06 DIIS
   @DF-RHF iter  23:  -270.01599049000987   -4.37078e-07   1.44880e-06 DIIS
   @DF-RHF iter  24:  -270.01599053130786   -4.12980e-08   7.16460e-07 DIIS

  ==> Post-Iterations <==

    Orbital Energies (a.u.)
    -----------------------

    Doubly Occupied:                                                      

       1A    -20.562343     2A    -11.326197     3A    -11.235836  
       4A    -11.235243     5A    -11.228192     6A    -11.218161  
       7A     -1.402130     8A     -1.096526     9A     -1.018300  
      10A     -0.906046    11A     -0.811777    12A     -0.794111  
      13A     -0.674800    14A     -0.651550    15A     -0.626693  
      16A     -0.600828    17A     -0.587157    18A     -0.550072  
      19A     -0.520007    20A     -0.517736    21A     -0.488621  
      22A     -0.478081    23A     -0.475712    24A     -0.408536  

    Virtual:                                                              

      25A      0.162032    26A      0.223821    27A      0.252431  
      28A      0.267093    29A      0.280320    30A      0.300709  
      31A      0.309313    32A      0.316340    33A      0.320578  
      34A      0.333175    35A      0.344490    36A      0.402557  
      37A      0.421773    38A      0.431442    39A      0.474203  
      40A      0.499365    41A      0.703350    42A      0.717160  
      43A      0.735365    44A      0.760093    45A      0.772728  
      46A      0.820367    47A      0.831460    48A      0.858397  
      49A      0.911031    50A      0.941055    51A      0.956940  
      52A      0.981308    53A      1.023119    54A      1.062217  
      55A      1.090927    56A      1.112855    57A      1.116688  
      58A      1.128674    59A      1.145587    60A      1.167265  
      61A      1.175859    62A      1.184784    63A      1.197803  
      64A      1.216096    65A      1.226051    66A      1.255097  
      67A      1.282345    68A      1.350664    69A      1.364334  
      70A      1.424040    71A      1.531270    72A      1.669555  
      73A      1.691336    74A      1.749444    75A      1.790249  
      76A      1.829840    77A      1.876511    78A      1.967233  
      79A      2.010838    80A      2.060575    81A      2.120228  
      82A      2.143498    83A      2.175577    84A      2.218333  
      85A      2.254571    86A      2.279174    87A      2.307674  
      88A      2.373821    89A      2.398120    90A      2.426324  
      91A      2.556476    92A      2.577402    93A      2.658773  
      94A      2.693902    95A      2.714031    96A      2.726615  
      97A      2.784275    98A      2.885579    99A      2.946969  
     100A      2.970843   101A      3.035703   102A      3.101415  
     103A      3.267766   104A      3.365521   105A      4.282265  
     106A      4.524232   107A      4.595904   108A      4.706633  
     109A      4.839709   110A      4.974535  

    Final Occupation by Irrep:
              A 
    DOCC [    24 ]

  Energy converged.

  @DF-RHF Final Energy:  -270.01599053130786

   => Energetics <=

    Nuclear Repulsion Energy =            229.3085644195974169
    One-Electron Energy =                -819.8198041466575887
    Two-Electron Energy =                 320.4952491957523648
    DFT Exchange-Correlation Energy =       0.0000000000000000
    Empirical Dispersion Energy =           0.0000000000000000
    PCM Polarization Energy =               0.0000000000000000
    EFP Energy =                            0.0000000000000000
    Total Energy =                       -270.0159905313078639

    Alert: EFP and PCM quantities not currently incorporated into SCF psivars.

Properties will be evaluated at   0.000000,   0.000000,   0.000000 Bohr
  ==> Properties <==


Properties computed using the SCF density matrix

  Nuclear Dipole Moment: (a.u.)
     X:   -10.0731      Y:     1.8516      Z:     3.1568

  Electronic Dipole Moment: (a.u.)
     X:     9.2175      Y:    -1.3642      Z:    -2.3703

  Dipole Moment: (a.u.)
     X:    -0.8557      Y:     0.4874      Z:     0.7864     Total:     1.2602

  Dipole Moment: (Debye)
     X:    -2.1749      Y:     1.2388      Z:     1.9989     Total:     3.2032


  Saving occupied orbitals to File 180.

*** tstop() called on cx1-1-3-3.cx1.hpc.ic.ac.uk at Tue Jul  5 16:28:49 2016
Module time:
	user time   =       9.65 seconds =       0.16 minutes
	system time =       0.07 seconds =       0.00 minutes
	total time  =         10 seconds =       0.17 minutes
Total time:
	user time   =       9.65 seconds =       0.16 minutes
	system time =       0.07 seconds =       0.00 minutes
	total time  =         10 seconds =       0.17 minutes


Properties will be evaluated at   0.000000,   0.000000,   0.000000 Bohr

Properties computed using the  density matrix

  Nuclear Dipole Moment: (a.u.)
     X:   -10.0731      Y:     1.8516      Z:     3.1568

  Electronic Dipole Moment: (a.u.)
     X:     9.2175      Y:    -1.3642      Z:    -2.3703

  Dipole Moment: (a.u.)
     X:    -0.8557      Y:     0.4874      Z:     0.7864     Total:     1.2602

  Dipole Moment: (Debye)
     X:    -2.1749      Y:     1.2388      Z:     1.9989     Total:     3.2032

  Quadrupole Moment: (Debye Ang)
    XX:   -46.1451     YY:   -38.8841     ZZ:   -39.7840
    XY:     3.2264     XZ:     5.5842     YZ:    -1.3853

  Traceless Quadrupole Moment: (Debye Ang)
    XX:    -4.5407     YY:     2.7203     ZZ:     1.8204
    XY:     3.2264     XZ:     5.5842     YZ:    -1.3853

  Mulliken Charges: (a.u.)
   Center  Symbol    Alpha    Beta     Spin     Total
       1     H     0.43232  0.43232  0.00000  0.13535
       2     C     2.82984  2.82984  0.00000  0.34031
       3     C     3.20998  3.20998  0.00000 -0.41997
       4     O     4.23723  4.23723  0.00000 -0.47445
       5     C     3.16631  3.16631  0.00000 -0.33261
       6     H     0.39906  0.39906  0.00000  0.20187
       7     H     0.40936  0.40936  0.00000  0.18128
       8     C     3.15321  3.15321  0.00000 -0.30642
       9     H     0.41157  0.41157  0.00000  0.17685
      10     H     0.41722  0.41722  0.00000  0.16557
      11     C     3.24145  3.24145  0.00000 -0.48291
      12     H     0.41788  0.41788  0.00000  0.16423
      13     H     0.41839  0.41839  0.00000  0.16323
      14     H     0.41879  0.41879  0.00000  0.16243
      15     H     0.41737  0.41737  0.00000  0.16527
      16     H     0.42002  0.42002  0.00000  0.15997

   Total alpha = 24.00000, Total beta = 24.00000, Total charge = -0.00000


*** PSI4 exiting successfully. Buy a developer a beer!
