    -----------------------------------------------------------------------
          Psi4: An Open-Source Ab Initio Electronic Structure Package
                              Psi4 (no tag) Driver

                          Git: Rev {detached?}  

    J. M. Turney, A. C. Simmonett, R. M. Parrish, E. G. Hohenstein,
    F. A. Evangelista, J. T. Fermann, B. J. Mintz, L. A. Burns, J. J. Wilke,
    M. L. Abrams, N. J. Russ, M. L. Leininger, C. L. Janssen, E. T. Seidl,
    W. D. Allen, H. F. Schaefer, R. A. King, E. F. Valeev, C. D. Sherrill,
    and T. D. Crawford, WIREs Comput. Mol. Sci. 2, 556-565 (2012)
    (doi: 10.1002/wcms.93)

                         Additional Contributions by
    A. E. DePrince, M. Saitow, U. Bozkaya, A. Yu. Sokolov
    -----------------------------------------------------------------------


    Psi4 started on: Tue Jul  5 16:53:26 2016

    Process ID:  14728
    PSI4DATADIR: /export131/home/mjharvey/miniconda3/share
    Memory level set to 256.000 MB

  ==> Input File <==

--------------------------------------------------------------------------
set {
	reference rhf
	basis 6-31G*
}


set_num_threads( 1 )
memory 2 gb

molecule MOL {
0 1

H	 -0.000158	 1.970498	 0.756846
O	 -0.000074	 1.880206	 -0.189275
C	 -0.000015	 0.544847	 -0.545111
C	 0.172477	 -0.323208	 0.696950
C	 1.047421	 0.295640	 -1.625283
H	 -0.966184	 0.316554	 -0.969966
F	 -0.818486	 -0.100055	 1.533456
F	 0.182330	 -1.607789	 0.410397
F	 1.301982	 -0.031074	 1.321828
F	 0.771268	 1.024476	 -2.685507
F	 1.089407	 -0.966024	 -1.997870
F	 2.252428	 0.640873	 -1.200606

	symmetry c1
}
set optking {
	frozen_dihedral = ("
		7 4 3 6
	")
}

ee = energy('scf')
oeprop('DIPOLE', 'QUADRUPOLE', 'MULLIKEN_CHARGES')
f=open( 'psi4out.xyz', 'w' )
f.write( "12  " )
f.write( str(ee) + "\n" )
f.write( MOL.save_string_xyz() )
f.close()
--------------------------------------------------------------------------

  Memory set to   2.000 GiB by Python script.

*** tstart() called on cx1-3-4-4.cx1.hpc.ic.ac.uk
*** at Tue Jul  5 16:53:27 2016


         ---------------------------------------------------------
                                   SCF
            by Justin Turney, Rob Parrish, and Andy Simmonett
                              RHF Reference
                        1 Threads,   2000 MiB Core
         ---------------------------------------------------------

  ==> Geometry <==

    Molecular point group: c1
    Full point group: C1

    Geometry (in Angstrom), charge = 0, multiplicity = 1:

       Center              X                  Y                   Z               Mass       
    ------------   -----------------  -----------------  -----------------  -----------------
           H         -0.621913458425     1.858383039492     1.177481097483     1.007825032070
           O         -0.621829458425     1.768091039492     0.231360097483    15.994914619560
           C         -0.621770458425     0.432732039492    -0.124475902517    12.000000000000
           C         -0.449278458425    -0.435322960508     1.117585097483    12.000000000000
           C          0.425665541575     0.183525039492    -1.204647902517    12.000000000000
           H         -1.587939458425     0.204439039492    -0.549330902517     1.007825032070
           F         -1.440241458425    -0.212169960508     1.954091097483    18.998403224000
           F         -0.439425458425    -1.719903960508     0.831032097483    18.998403224000
           F          0.680226541575    -0.143188960508     1.742463097483    18.998403224000
           F          0.149512541575     0.912361039492    -2.264871902517    18.998403224000
           F          0.467651541575    -1.078138960508    -1.577234902517    18.998403224000
           F          1.630672541575     0.528758039492    -0.779970902517    18.998403224000

  Running in c1 symmetry.

  Rotational constants: A =      0.07204  B =      0.03579  C =      0.03161 [cm^-1]
  Rotational constants: A =   2159.81989  B =   1072.98856  C =    947.49436 [MHz]
  Nuclear repulsion =  670.214384122566344

  Charge       = 0
  Multiplicity = 1
  Electrons    = 82
  Nalpha       = 41
  Nbeta        = 41

  ==> Algorithm <==

  SCF Algorithm Type is DF.
  DIIS enabled.
  MOM disabled.
  Fractional occupation disabled.
  Guess Type is CORE.
  Energy threshold   = 1.00e-06
  Density threshold  = 1.00e-06
  Integral threshold = 0.00e+00

  ==> Primary Basis <==

  Basis Set: 6-31G*
    Number of shells: 64
    Number of basis function: 154
    Number of Cartesian functions: 154
    Spherical Harmonics?: false
    Max angular momentum: 2

  ==> Pre-Iterations <==

   -------------------------------------------------------
    Irrep   Nso     Nmo     Nalpha   Nbeta   Ndocc  Nsocc
   -------------------------------------------------------
     A        154     154       0       0       0       0
   -------------------------------------------------------
    Total     154     154      41      41      41       0
   -------------------------------------------------------

 OEINTS: Overlap, kinetic, potential, dipole, and quadrupole integrals
         stored in file 35.

  ==> Integral Setup <==

  ==> DFJK: Density-Fitted J/K Matrices <==

    J tasked:                  Yes
    K tasked:                  Yes
    wK tasked:                  No
    OpenMP threads:              1
    Integrals threads:           1
    Memory (MB):              1430
    Algorithm:                Core
    Integral Cache:           NONE
    Schwarz Cutoff:          1E-12
    Fitting Condition:       1E-12

   => Auxiliary Basis Set <=

  Basis Set: 
    Number of shells: 258
    Number of basis function: 860
    Number of Cartesian functions: 860
    Spherical Harmonics?: false
    Max angular momentum: 3

  Minimum eigenvalue in the overlap matrix is 1.6477380533E-03.
  Using Symmetric Orthogonalization.
  SCF Guess: Core (One-Electron) Hamiltonian.

  ==> Iterations <==

                           Total Energy        Delta E     RMS |[F,P]|

   @DF-RHF iter   1:  -699.44869895861189   -6.99449e+02   6.88520e-02 
   @DF-RHF iter   2:  -534.47437852301573    1.64974e+02   8.77162e-02 DIIS
   @DF-RHF iter   3:  -731.50367633634983   -1.97029e+02   5.12360e-02 DIIS
   @DF-RHF iter   4:  -738.88884880435603   -7.38517e+00   4.81498e-02 DIIS
   @DF-RHF iter   5:  -769.76595753798847   -3.08771e+01   3.08692e-02 DIIS
   @DF-RHF iter   6:  -785.31188291855619   -1.55459e+01   1.03355e-02 DIIS
   @DF-RHF iter   7:  -786.17423259871407   -8.62350e-01   3.14194e-03 DIIS
   @DF-RHF iter   8:  -786.25391999790668   -7.96874e-02   1.34552e-03 DIIS
   @DF-RHF iter   9:  -786.27104642339827   -1.71264e-02   2.05014e-04 DIIS
   @DF-RHF iter  10:  -786.27180381693984   -7.57394e-04   7.08287e-05 DIIS
   @DF-RHF iter  11:  -786.27187556230524   -7.17454e-05   2.64702e-05 DIIS
   @DF-RHF iter  12:  -786.27188448136690   -8.91906e-06   6.36164e-06 DIIS
   @DF-RHF iter  13:  -786.27188511288000   -6.31513e-07   1.50609e-06 DIIS
   @DF-RHF iter  14:  -786.27188515877606   -4.58961e-08   4.11541e-07 DIIS

  ==> Post-Iterations <==

    Orbital Energies (a.u.)
    -----------------------

    Doubly Occupied:                                                      

       1A    -26.374702     2A    -26.367171     3A    -26.366419  
       4A    -26.358753     5A    -26.352788     6A    -26.348482  
       7A    -20.614218     8A    -11.534398     9A    -11.521633  
      10A    -11.348787    11A     -1.771254    12A     -1.753858  
      13A     -1.669521    14A     -1.664135    15A     -1.653131  
      16A     -1.646410    17A     -1.434079    18A     -1.102303  
      19A     -0.999279    20A     -0.937096    21A     -0.870092  
      22A     -0.863715    23A     -0.856131    24A     -0.840515  
      25A     -0.831513    26A     -0.799694    27A     -0.748084  
      28A     -0.735724    29A     -0.718476    30A     -0.716906  
      31A     -0.704970    32A     -0.689781    33A     -0.687045  
      34A     -0.669991    35A     -0.668108    36A     -0.665235  
      37A     -0.651601    38A     -0.649496    39A     -0.618547  
      40A     -0.547398    41A     -0.502260  

    Virtual:                                                              

      42A      0.211226    43A      0.246253    44A      0.304284  
      45A      0.341563    46A      0.350181    47A      0.393819  
      48A      0.450577    49A      0.464661    50A      0.469239  
      51A      0.524545    52A      0.539025    53A      0.661525  
      54A      0.675381    55A      0.712809    56A      0.734270  
      57A      0.745173    58A      0.793512    59A      0.809066  
      60A      0.876227    61A      0.901051    62A      0.943480  
      63A      1.059992    64A      1.092017    65A      1.136397  
      66A      1.206520    67A      1.216617    68A      1.257815  
      69A      1.268005    70A      1.309728    71A      1.346968  
      72A      1.349174    73A      1.380020    74A      1.406382  
      75A      1.451497    76A      1.456110    77A      1.492818  
      78A      1.520100    79A      1.577189    80A      1.589867  
      81A      1.601396    82A      1.605613    83A      1.623636  
      84A      1.629846    85A      1.652852    86A      1.658782  
      87A      1.662738    88A      1.673784    89A      1.703731  
      90A      1.735578    91A      1.741561    92A      1.817812  
      93A      1.868676    94A      1.881256    95A      1.922623  
      96A      1.939602    97A      1.968987    98A      1.980589  
      99A      1.997117   100A      2.090876   101A      2.098424  
     102A      2.110555   103A      2.118119   104A      2.122840  
     105A      2.145009   106A      2.153695   107A      2.173595  
     108A      2.187161   109A      2.271300   110A      2.296254  
     111A      2.323745   112A      2.331248   113A      2.337617  
     114A      2.375405   115A      2.389659   116A      2.394022  
     117A      2.407397   118A      2.420249   119A      2.445545  
     120A      2.486550   121A      2.522724   122A      2.552542  
     123A      2.572304   124A      2.615052   125A      2.671284  
     126A      2.688021   127A      2.719840   128A      2.854710  
     129A      2.880690   130A      2.894288   131A      2.923483  
     132A      3.058613   133A      3.151951   134A      3.175782  
     135A      3.195158   136A      3.234534   137A      3.271364  
     138A      3.345539   139A      3.396692   140A      3.414856  
     141A      3.447306   142A      3.455529   143A      3.461044  
     144A      3.479142   145A      4.192745   146A      4.630774  
     147A      4.753725   148A      4.819431   149A      5.039369  
     150A      5.094203   151A      5.274890   152A      5.646327  
     153A      5.801940   154A      6.366885  

    Final Occupation by Irrep:
              A 
    DOCC [    41 ]

  Energy converged.

  @DF-RHF Final Energy:  -786.27188515877606

   => Energetics <=

    Nuclear Repulsion Energy =            670.2143841225663436
    One-Electron Energy =               -2427.2652385811506974
    Two-Electron Energy =                 970.7789692998071587
    DFT Exchange-Correlation Energy =       0.0000000000000000
    Empirical Dispersion Energy =           0.0000000000000000
    PCM Polarization Energy =               0.0000000000000000
    EFP Energy =                            0.0000000000000000
    Total Energy =                       -786.2718851587771951

    Alert: EFP and PCM quantities not currently incorporated into SCF psivars.

Properties will be evaluated at   0.000000,   0.000000,   0.000000 Bohr
  ==> Properties <==


Properties computed using the SCF density matrix

  Nuclear Dipole Moment: (a.u.)
     X:    -3.0637      Y:     3.5576      Z:     0.6791

  Electronic Dipole Moment: (a.u.)
     X:     2.4642      Y:    -3.5232      Z:    -0.2272

  Dipole Moment: (a.u.)
     X:    -0.5994      Y:     0.0345      Z:     0.4519     Total:     0.7515

  Dipole Moment: (Debye)
     X:    -1.5236      Y:     0.0876      Z:     1.1487     Total:     1.9101


  Saving occupied orbitals to File 180.

*** tstop() called on cx1-3-4-4.cx1.hpc.ic.ac.uk at Tue Jul  5 16:53:47 2016
Module time:
	user time   =      19.82 seconds =       0.33 minutes
	system time =       0.21 seconds =       0.00 minutes
	total time  =         20 seconds =       0.33 minutes
Total time:
	user time   =      19.82 seconds =       0.33 minutes
	system time =       0.21 seconds =       0.00 minutes
	total time  =         20 seconds =       0.33 minutes


Properties will be evaluated at   0.000000,   0.000000,   0.000000 Bohr

Properties computed using the  density matrix

  Nuclear Dipole Moment: (a.u.)
     X:    -3.0637      Y:     3.5576      Z:     0.6791

  Electronic Dipole Moment: (a.u.)
     X:     2.4642      Y:    -3.5232      Z:    -0.2272

  Dipole Moment: (a.u.)
     X:    -0.5994      Y:     0.0345      Z:     0.4519     Total:     0.7515

  Dipole Moment: (Debye)
     X:    -1.5236      Y:     0.0876      Z:     1.1487     Total:     1.9101

  Quadrupole Moment: (Debye Ang)
    XX:   -52.2998     YY:   -55.1992     ZZ:   -52.8854
    XY:    -0.1803     XZ:     0.5390     YZ:     3.6223

  Traceless Quadrupole Moment: (Debye Ang)
    XX:     1.1616     YY:    -1.7377     ZZ:     0.5761
    XY:    -0.1803     XZ:     0.5390     YZ:     3.6223

  Mulliken Charges: (a.u.)
   Center  Symbol    Alpha    Beta     Spin     Total
       1     H     0.26318  0.26318  0.00000  0.47365
       2     O     4.37019  4.37019  0.00000 -0.74038
       3     C     3.02014  3.02014  0.00000 -0.04027
       4     C     2.46945  2.46945  0.00000  1.06110
       5     C     2.43799  2.43799  0.00000  1.12403
       6     H     0.38553  0.38553  0.00000  0.22894
       7     F     4.67760  4.67760  0.00000 -0.35520
       8     F     4.67217  4.67217  0.00000 -0.34434
       9     F     4.67588  4.67588  0.00000 -0.35176
      10     F     4.67576  4.67576  0.00000 -0.35153
      11     F     4.67483  4.67483  0.00000 -0.34967
      12     F     4.67728  4.67728  0.00000 -0.35457

   Total alpha = 41.00000, Total beta = 41.00000, Total charge =  0.00000


*** PSI4 exiting successfully. Buy a developer a beer!
