    -----------------------------------------------------------------------
          Psi4: An Open-Source Ab Initio Electronic Structure Package
                              Psi4 (no tag) Driver

                          Git: Rev {detached?}  

    J. M. Turney, A. C. Simmonett, R. M. Parrish, E. G. Hohenstein,
    F. A. Evangelista, J. T. Fermann, B. J. Mintz, L. A. Burns, J. J. Wilke,
    M. L. Abrams, N. J. Russ, M. L. Leininger, C. L. Janssen, E. T. Seidl,
    W. D. Allen, H. F. Schaefer, R. A. King, E. F. Valeev, C. D. Sherrill,
    and T. D. Crawford, WIREs Comput. Mol. Sci. 2, 556-565 (2012)
    (doi: 10.1002/wcms.93)

                         Additional Contributions by
    A. E. DePrince, M. Saitow, U. Bozkaya, A. Yu. Sokolov
    -----------------------------------------------------------------------


    Psi4 started on: Tue Jul  5 16:46:16 2016

    Process ID:  10861
    PSI4DATADIR: /export131/home/mjharvey/miniconda3/share
    Memory level set to 256.000 MB

  ==> Input File <==

--------------------------------------------------------------------------
set {
	reference rhf
	basis 6-31G*
}


set_num_threads( 1 )
memory 2 gb

molecule MOL {
0 1

H	 -3.161837	 0.500524	 -0.000234
C	 -2.367097	 -0.232926	 -0.000000
O	 -1.158440	 0.455814	 -0.000122
H	 -2.468853	 -0.861886	 -0.882833
H	 -2.468942	 -0.861421	 0.883154
C	 -1.058687	 1.440634	 0.983775
C	 -1.114124	 2.805074	 0.319025
H	 -0.125042	 1.326208	 1.536146
H	 -1.872223	 1.336514	 1.702959
C	 0.173157	 3.141893	 -0.432203
H	 -1.960446	 2.822660	 -0.360747
H	 -1.309636	 3.552160	 1.082135
H	 0.374554	 2.418781	 -1.217679
H	 0.106116	 4.120281	 -0.896000
H	 1.030247	 3.152780	 0.235391

	symmetry c1
}
set optking {
	frozen_dihedral = ("
		6 3 2 4,
		11 7 6 8
	")
}

ee = energy('scf')
oeprop('DIPOLE', 'QUADRUPOLE', 'MULLIKEN_CHARGES')
f=open( 'psi4out.xyz', 'w' )
f.write( "15  " )
f.write( str(ee) + "\n" )
f.write( MOL.save_string_xyz() )
f.close()
--------------------------------------------------------------------------

  Memory set to   2.000 GiB by Python script.

*** tstart() called on cx1-3-16-3.cx1.hpc.ic.ac.uk
*** at Tue Jul  5 16:46:16 2016


         ---------------------------------------------------------
                                   SCF
            by Justin Turney, Rob Parrish, and Andy Simmonett
                              RHF Reference
                        1 Threads,   2000 MiB Core
         ---------------------------------------------------------

  ==> Geometry <==

    Molecular point group: c1
    Full point group: C1

    Geometry (in Angstrom), charge = 0, multiplicity = 1:

       Center              X                  Y                   Z               Mass       
    ------------   -----------------  -----------------  -----------------  -----------------
           H         -2.042956808718    -0.995164712856    -0.169577359801     1.007825032070
           C         -1.248216808718    -1.728614712856    -0.169343359801    12.000000000000
           O         -0.039559808718    -1.039874712856    -0.169465359801    15.994914619560
           H         -1.349972808718    -2.357574712856    -1.052176359801     1.007825032070
           H         -1.350061808718    -2.357109712856     0.713810640199     1.007825032070
           C          0.060193191282    -0.055054712856     0.814431640199    12.000000000000
           C          0.004756191282     1.309385287144     0.149681640199    12.000000000000
           H          0.993838191282    -0.169480712856     1.366802640199     1.007825032070
           H         -0.753342808718    -0.159174712856     1.533615640199     1.007825032070
           C          1.292037191282     1.646204287144    -0.601546359801    12.000000000000
           H         -0.841565808718     1.326971287144    -0.530090359801     1.007825032070
           H         -0.190755808718     2.056471287144     0.912791640199     1.007825032070
           H          1.493434191282     0.923092287144    -1.387022359801     1.007825032070
           H          1.224996191282     2.624592287144    -1.065343359801     1.007825032070
           H          2.149127191282     1.657091287144     0.066047640199     1.007825032070

  Running in c1 symmetry.

  Rotational constants: A =      0.40568  B =      0.08836  C =      0.08439 [cm^-1]
  Rotational constants: A =  12162.09538  B =   2649.01869  C =   2529.88344 [MHz]
  Nuclear repulsion =  193.832699148344602

  Charge       = 0
  Multiplicity = 1
  Electrons    = 42
  Nalpha       = 21
  Nbeta        = 21

  ==> Algorithm <==

  SCF Algorithm Type is DF.
  DIIS enabled.
  MOM disabled.
  Fractional occupation disabled.
  Guess Type is CORE.
  Energy threshold   = 1.00e-06
  Density threshold  = 1.00e-06
  Integral threshold = 0.00e+00

  ==> Primary Basis <==

  Basis Set: 6-31G*
    Number of shells: 50
    Number of basis function: 95
    Number of Cartesian functions: 95
    Spherical Harmonics?: false
    Max angular momentum: 2

  ==> Pre-Iterations <==

   -------------------------------------------------------
    Irrep   Nso     Nmo     Nalpha   Nbeta   Ndocc  Nsocc
   -------------------------------------------------------
     A         95      95       0       0       0       0
   -------------------------------------------------------
    Total      95      95      21      21      21       0
   -------------------------------------------------------

 OEINTS: Overlap, kinetic, potential, dipole, and quadrupole integrals
         stored in file 35.

  ==> Integral Setup <==

  ==> DFJK: Density-Fitted J/K Matrices <==

    J tasked:                  Yes
    K tasked:                  Yes
    wK tasked:                  No
    OpenMP threads:              1
    Integrals threads:           1
    Memory (MB):              1430
    Algorithm:                Core
    Integral Cache:           NONE
    Schwarz Cutoff:          1E-12
    Fitting Condition:       1E-12

   => Auxiliary Basis Set <=

  Basis Set: 
    Number of shells: 210
    Number of basis function: 655
    Number of Cartesian functions: 655
    Spherical Harmonics?: false
    Max angular momentum: 3

  Minimum eigenvalue in the overlap matrix is 5.1277793936E-03.
  Using Symmetric Orthogonalization.
  SCF Guess: Core (One-Electron) Hamiltonian.

  ==> Iterations <==

                           Total Energy        Delta E     RMS |[F,P]|

   @DF-RHF iter   1:  -182.35669739217201   -1.82357e+02   8.12086e-02 
   @DF-RHF iter   2:  -159.61198791908316    2.27447e+01   6.47012e-02 DIIS
   @DF-RHF iter   3:  -201.69115671408116   -4.20792e+01   5.59174e-02 DIIS
   @DF-RHF iter   4:  -229.29073662442585   -2.75996e+01   2.46383e-02 DIIS
   @DF-RHF iter   5:  -232.00885281546891   -2.71812e+00   4.90114e-03 DIIS
   @DF-RHF iter   6:  -232.11034602678507   -1.01493e-01   2.31089e-03 DIIS
   @DF-RHF iter   7:  -232.13178541165280   -2.14394e-02   3.97073e-04 DIIS
   @DF-RHF iter   8:  -232.13278988465009   -1.00447e-03   1.39838e-04 DIIS
   @DF-RHF iter   9:  -232.13288377975806   -9.38951e-05   3.50859e-05 DIIS
   @DF-RHF iter  10:  -232.13289424066562   -1.04609e-05   8.21297e-06 DIIS
   @DF-RHF iter  11:  -232.13289490497385   -6.64308e-07   2.66376e-06 DIIS
   @DF-RHF iter  12:  -232.13289495486322   -4.98894e-08   1.09964e-06 DIIS
   @DF-RHF iter  13:  -232.13289496300206   -8.13884e-09   2.09162e-07 DIIS

  ==> Post-Iterations <==

    Orbital Energies (a.u.)
    -----------------------

    Doubly Occupied:                                                      

       1A    -20.549811     2A    -11.266219     3A    -11.266004  
       4A    -11.213303     5A    -11.204684     6A     -1.378115  
       7A     -1.052782     8A     -0.951089     9A     -0.889095  
      10A     -0.799054    11A     -0.670861    12A     -0.661014  
      13A     -0.632076    14A     -0.587289    15A     -0.570755  
      16A     -0.543660    17A     -0.503416    18A     -0.492702  
      19A     -0.479374    20A     -0.457833    21A     -0.403629  

    Virtual:                                                              

      22A      0.234788    23A      0.266618    24A      0.291121  
      25A      0.294259    26A      0.300915    27A      0.318404  
      28A      0.323917    29A      0.338396    30A      0.348578  
      31A      0.354806    32A      0.369566    33A      0.405474  
      34A      0.454703    35A      0.463016    36A      0.711075  
      37A      0.731460    38A      0.756844    39A      0.769142  
      40A      0.789717    41A      0.826482    42A      0.827831  
      43A      0.901880    44A      0.920618    45A      0.972714  
      46A      0.988159    47A      1.089001    48A      1.106849  
      49A      1.130980    50A      1.136636    51A      1.166128  
      52A      1.170776    53A      1.189105    54A      1.196137  
      55A      1.214920    56A      1.240332    57A      1.245580  
      58A      1.260880    59A      1.309976    60A      1.409193  
      61A      1.438362    62A      1.530820    63A      1.652296  
      64A      1.706256    65A      1.746577    66A      1.771688  
      67A      1.862002    68A      1.930393    69A      1.996412  
      70A      2.137280    71A      2.166916    72A      2.249428  
      73A      2.275177    74A      2.311526    75A      2.386759  
      76A      2.452819    77A      2.469835    78A      2.499467  
      79A      2.527028    80A      2.564573    81A      2.646306  
      82A      2.698763    83A      2.710487    84A      2.800405  
      85A      2.832176    86A      2.924366    87A      2.990733  
      88A      3.031641    89A      3.165013    90A      3.319401  
      91A      4.382346    92A      4.590251    93A      4.671780  
      94A      4.780834    95A      4.931197  

    Final Occupation by Irrep:
              A 
    DOCC [    21 ]

  Energy converged.

  @DF-RHF Final Energy:  -232.13289496300206

   => Energetics <=

    Nuclear Repulsion Energy =            193.8326991483446022
    One-Electron Energy =                -698.7856502380141137
    Two-Electron Energy =                 272.8200561266680211
    DFT Exchange-Correlation Energy =       0.0000000000000000
    Empirical Dispersion Energy =           0.0000000000000000
    PCM Polarization Energy =               0.0000000000000000
    EFP Energy =                            0.0000000000000000
    Total Energy =                       -232.1328949630014904

    Alert: EFP and PCM quantities not currently incorporated into SCF psivars.

Properties will be evaluated at   0.000000,   0.000000,   0.000000 Bohr
  ==> Properties <==


Properties computed using the SCF density matrix

  Nuclear Dipole Moment: (a.u.)
     X:    -0.6257      Y:     2.3853      Z:     0.3637

  Electronic Dipole Moment: (a.u.)
     X:     0.1652      Y:    -2.2893      Z:    -0.0310

  Dipole Moment: (a.u.)
     X:    -0.4605      Y:     0.0960      Z:     0.3327     Total:     0.5762

  Dipole Moment: (Debye)
     X:    -1.1705      Y:     0.2439      Z:     0.8457     Total:     1.4645


  Saving occupied orbitals to File 180.

*** tstop() called on cx1-3-16-3.cx1.hpc.ic.ac.uk at Tue Jul  5 16:46:21 2016
Module time:
	user time   =       4.65 seconds =       0.08 minutes
	system time =       0.03 seconds =       0.00 minutes
	total time  =          5 seconds =       0.08 minutes
Total time:
	user time   =       4.65 seconds =       0.08 minutes
	system time =       0.03 seconds =       0.00 minutes
	total time  =          5 seconds =       0.08 minutes


Properties will be evaluated at   0.000000,   0.000000,   0.000000 Bohr

Properties computed using the  density matrix

  Nuclear Dipole Moment: (a.u.)
     X:    -0.6257      Y:     2.3853      Z:     0.3637

  Electronic Dipole Moment: (a.u.)
     X:     0.1652      Y:    -2.2893      Z:    -0.0310

  Dipole Moment: (a.u.)
     X:    -0.4605      Y:     0.0960      Z:     0.3327     Total:     0.5762

  Dipole Moment: (Debye)
     X:    -1.1705      Y:     0.2439      Z:     0.8457     Total:     1.4645

  Quadrupole Moment: (Debye Ang)
    XX:   -32.2230     YY:   -32.7926     ZZ:   -32.6904
    XY:     2.1699     XZ:     0.7212     YZ:     0.0354

  Traceless Quadrupole Moment: (Debye Ang)
    XX:     0.3457     YY:    -0.2239     ZZ:    -0.1217
    XY:     2.1699     XZ:     0.7212     YZ:     0.0354

  Mulliken Charges: (a.u.)
   Center  Symbol    Alpha    Beta     Spin     Total
       1     H     0.43102  0.43102  0.00000  0.13797
       2     C     3.07967  3.07967  0.00000 -0.15933
       3     O     4.30409  4.30409  0.00000 -0.60819
       4     H     0.41326  0.41326  0.00000  0.17348
       5     H     0.42842  0.42842  0.00000  0.14316
       6     C     2.99881  2.99881  0.00000  0.00238
       7     C     3.15477  3.15477  0.00000 -0.30954
       8     H     0.42043  0.42043  0.00000  0.15914
       9     H     0.42880  0.42880  0.00000  0.14239
      10     C     3.24298  3.24298  0.00000 -0.48596
      11     H     0.41879  0.41879  0.00000  0.16241
      12     H     0.42575  0.42575  0.00000  0.14850
      13     H     0.40943  0.40943  0.00000  0.18115
      14     H     0.42050  0.42050  0.00000  0.15900
      15     H     0.42328  0.42328  0.00000  0.15343

   Total alpha = 21.00000, Total beta = 21.00000, Total charge = -0.00000


*** PSI4 exiting successfully. Buy a developer a beer!
