    -----------------------------------------------------------------------
          Psi4: An Open-Source Ab Initio Electronic Structure Package
                              Psi4 (no tag) Driver

                          Git: Rev {detached?}  

    J. M. Turney, A. C. Simmonett, R. M. Parrish, E. G. Hohenstein,
    F. A. Evangelista, J. T. Fermann, B. J. Mintz, L. A. Burns, J. J. Wilke,
    M. L. Abrams, N. J. Russ, M. L. Leininger, C. L. Janssen, E. T. Seidl,
    W. D. Allen, H. F. Schaefer, R. A. King, E. F. Valeev, C. D. Sherrill,
    and T. D. Crawford, WIREs Comput. Mol. Sci. 2, 556-565 (2012)
    (doi: 10.1002/wcms.93)

                         Additional Contributions by
    A. E. DePrince, M. Saitow, U. Bozkaya, A. Yu. Sokolov
    -----------------------------------------------------------------------


    Psi4 started on: Tue Jul  5 16:43:12 2016

    Process ID:  22362
    PSI4DATADIR: /export131/home/mjharvey/miniconda3/share
    Memory level set to 256.000 MB

  ==> Input File <==

--------------------------------------------------------------------------
set {
	reference rhf
	basis 6-31G*
}


set_num_threads( 1 )
memory 2 gb

molecule MOL {
0 1

H	 -0.602212	 3.082119	 0.371763
N	 -1.265624	 3.212699	 1.110937
C	 -1.460920	 1.975768	 1.853490
H	 -2.123504	 3.503708	 0.681766
C	 -0.435163	 0.928932	 1.431930
H	 -2.458596	 1.610775	 1.629255
H	 -1.414112	 2.113505	 2.936650
C	 -0.679275	 0.379305	 0.025956
H	 0.554019	 1.373218	 1.494890
H	 -0.450378	 0.107436	 2.147646
C	 -0.791153	 1.473151	 -1.037697
H	 -1.591837	 -0.214897	 0.024303
H	 0.126996	 -0.300826	 -0.244591
C	 -2.115055	 2.234023	 -0.975523
H	 0.033362	 2.173024	 -0.921214
H	 -0.676491	 1.028719	 -2.024099
H	 -2.243718	 2.718807	 -0.011807
H	 -2.163946	 3.002377	 -1.740928
H	 -2.958889	 1.565841	 -1.123406

	symmetry c1
}
set optking {
	frozen_dihedral = ("
		6 3 5 9,
		12 8 5 9,
		12 8 11 15
	")
}

ee = energy('scf')
oeprop('DIPOLE', 'QUADRUPOLE', 'MULLIKEN_CHARGES')
f=open( 'psi4out.xyz', 'w' )
f.write( "19  " )
f.write( str(ee) + "\n" )
f.write( MOL.save_string_xyz() )
f.close()
--------------------------------------------------------------------------

  Memory set to   2.000 GiB by Python script.

*** tstart() called on cx1-3-3-2.cx1.hpc.ic.ac.uk
*** at Tue Jul  5 16:43:13 2016


         ---------------------------------------------------------
                                   SCF
            by Justin Turney, Rob Parrish, and Andy Simmonett
                              RHF Reference
                        1 Threads,   2000 MiB Core
         ---------------------------------------------------------

  ==> Geometry <==

    Molecular point group: c1
    Full point group: C1

    Geometry (in Angstrom), charge = 0, multiplicity = 1:

       Center              X                  Y                   Z               Mass       
    ------------   -----------------  -----------------  -----------------  -----------------
           H          0.541188656761     1.350688363189    -0.022932029910     1.007825032070
           N         -0.122223343239     1.481268363189     0.716241970090    14.003074004780
           C         -0.317519343239     0.244337363189     1.458794970090    12.000000000000
           H         -0.980103343239     1.772277363189     0.287070970090     1.007825032070
           C          0.708237656761    -0.802498636811     1.037234970090    12.000000000000
           H         -1.315195343239    -0.120655636811     1.234559970090     1.007825032070
           H         -0.270711343239     0.382074363189     2.541954970090     1.007825032070
           C          0.464125656761    -1.352125636811    -0.368739029910    12.000000000000
           H          1.697419656761    -0.358212636811     1.100194970090     1.007825032070
           H          0.693022656761    -1.623994636811     1.752950970090     1.007825032070
           C          0.352247656761    -0.258279636811    -1.432392029910    12.000000000000
           H         -0.448436343239    -1.946327636811    -0.370392029910     1.007825032070
           H          1.270396656761    -2.032256636811    -0.639286029910     1.007825032070
           C         -0.971654343239     0.502592363189    -1.370218029910    12.000000000000
           H          1.176762656761     0.441593363189    -1.315909029910     1.007825032070
           H          0.466909656761    -0.702711636811    -2.418794029910     1.007825032070
           H         -1.100317343239     0.987376363189    -0.406502029910     1.007825032070
           H         -1.020545343239     1.270946363189    -2.135623029910     1.007825032070
           H         -1.815488343239    -0.165589636811    -1.518101029910     1.007825032070

  Running in c1 symmetry.

  Rotational constants: A =      0.14065  B =      0.11616  C =      0.07512 [cm^-1]
  Rotational constants: A =   4216.45104  B =   3482.52854  C =   2252.08558 [MHz]
  Nuclear repulsion =  273.780899537955065

  Charge       = 0
  Multiplicity = 1
  Electrons    = 50
  Nalpha       = 25
  Nbeta        = 25

  ==> Algorithm <==

  SCF Algorithm Type is DF.
  DIIS enabled.
  MOM disabled.
  Fractional occupation disabled.
  Guess Type is CORE.
  Energy threshold   = 1.00e-06
  Density threshold  = 1.00e-06
  Integral threshold = 0.00e+00

  ==> Primary Basis <==

  Basis Set: 6-31G*
    Number of shells: 62
    Number of basis function: 116
    Number of Cartesian functions: 116
    Spherical Harmonics?: false
    Max angular momentum: 2

  ==> Pre-Iterations <==

   -------------------------------------------------------
    Irrep   Nso     Nmo     Nalpha   Nbeta   Ndocc  Nsocc
   -------------------------------------------------------
     A        116     116       0       0       0       0
   -------------------------------------------------------
    Total     116     116      25      25      25       0
   -------------------------------------------------------

 OEINTS: Overlap, kinetic, potential, dipole, and quadrupole integrals
         stored in file 35.

  ==> Integral Setup <==

  ==> DFJK: Density-Fitted J/K Matrices <==

    J tasked:                  Yes
    K tasked:                  Yes
    wK tasked:                  No
    OpenMP threads:              1
    Integrals threads:           1
    Memory (MB):              1430
    Algorithm:                Core
    Integral Cache:           NONE
    Schwarz Cutoff:          1E-12
    Fitting Condition:       1E-12

   => Auxiliary Basis Set <=

  Basis Set: 
    Number of shells: 261
    Number of basis function: 811
    Number of Cartesian functions: 811
    Spherical Harmonics?: false
    Max angular momentum: 3

  Minimum eigenvalue in the overlap matrix is 4.5183105028E-03.
  Using Symmetric Orthogonalization.
  SCF Guess: Core (One-Electron) Hamiltonian.

  ==> Iterations <==

                           Total Energy        Delta E     RMS |[F,P]|

   @DF-RHF iter   1:  -196.78990043656927   -1.96790e+02   7.13572e-02 
   @DF-RHF iter   2:  -172.39226888926407    2.43976e+01   6.49569e-02 DIIS
   @DF-RHF iter   3:  -218.16448604302121   -4.57722e+01   4.30738e-02 DIIS
   @DF-RHF iter   4:  -223.49860128598482   -5.33412e+00   4.89710e-02 DIIS
   @DF-RHF iter   5:  -250.97387041936418   -2.74753e+01   5.69288e-03 DIIS
   @DF-RHF iter   6:  -251.20073988098670   -2.26869e-01   2.46943e-03 DIIS
   @DF-RHF iter   7:  -251.23826520919420   -3.75253e-02   4.67990e-04 DIIS
   @DF-RHF iter   8:  -251.24068721579988   -2.42201e-03   1.50950e-04 DIIS
   @DF-RHF iter   9:  -251.24093304392898   -2.45828e-04   5.97147e-05 DIIS
   @DF-RHF iter  10:  -251.24097397069113   -4.09268e-05   1.59766e-05 DIIS
   @DF-RHF iter  11:  -251.24097668129286   -2.71060e-06   6.28850e-06 DIIS
   @DF-RHF iter  12:  -251.24097717689892   -4.95606e-07   2.26739e-06 DIIS
   @DF-RHF iter  13:  -251.24097723669547   -5.97965e-08   4.68799e-07 DIIS

  ==> Post-Iterations <==

    Orbital Energies (a.u.)
    -----------------------

    Doubly Occupied:                                                      

       1A    -15.524202     2A    -11.244525     3A    -11.221356  
       4A    -11.219054     5A    -11.218460     6A    -11.188826  
       7A     -1.213082     8A     -1.071275     9A     -1.016534  
      10A     -0.901944    11A     -0.844441    12A     -0.791300  
      13A     -0.687338    14A     -0.658385    15A     -0.618893  
      16A     -0.606955    17A     -0.573944    18A     -0.551872  
      19A     -0.529307    20A     -0.516590    21A     -0.494980  
      22A     -0.470777    23A     -0.453854    24A     -0.440162  
      25A     -0.353403  

    Virtual:                                                              

      26A      0.229928    27A      0.247831    28A      0.254207  
      29A      0.273808    30A      0.294689    31A      0.305127  
      32A      0.317589    33A      0.334040    34A      0.335784  
      35A      0.341941    36A      0.368188    37A      0.384706  
      38A      0.401727    39A      0.417289    40A      0.434300  
      41A      0.458456    42A      0.486146    43A      0.512808  
      44A      0.717530    45A      0.725433    46A      0.730053  
      47A      0.761080    48A      0.790950    49A      0.795121  
      50A      0.894769    51A      0.910228    52A      0.918046  
      53A      0.927313    54A      0.976211    55A      0.986384  
      56A      1.010612    57A      1.024831    58A      1.051214  
      59A      1.114000    60A      1.123065    61A      1.146894  
      62A      1.152817    63A      1.163090    64A      1.183558  
      65A      1.197141    66A      1.207447    67A      1.212993  
      68A      1.231167    69A      1.243686    70A      1.249632  
      71A      1.257380    72A      1.305914    73A      1.321572  
      74A      1.388249    75A      1.411207    76A      1.582345  
      77A      1.616767    78A      1.698405    79A      1.747944  
      80A      1.810125    81A      1.848963    82A      1.889510  
      83A      1.933191    84A      2.066161    85A      2.078187  
      86A      2.142555    87A      2.222515    88A      2.231374  
      89A      2.258577    90A      2.280473    91A      2.303775  
      92A      2.363588    93A      2.395561    94A      2.420750  
      95A      2.497736    96A      2.520148    97A      2.574882  
      98A      2.624275    99A      2.669318   100A      2.684645  
     101A      2.718752   102A      2.755413   103A      2.792429  
     104A      2.820992   105A      2.873461   106A      2.974628  
     107A      3.008368   108A      3.022280   109A      3.087237  
     110A      3.127113   111A      4.348838   112A      4.594281  
     113A      4.701159   114A      4.833952   115A      4.945762  
     116A      4.990043  

    Final Occupation by Irrep:
              A 
    DOCC [    25 ]

  Energy converged.

  @DF-RHF Final Energy:  -251.24097723669547

   => Energetics <=

    Nuclear Repulsion Energy =            273.7808995379550652
    One-Electron Energy =                -881.2207500281903094
    Two-Electron Energy =                 356.1988732535393183
    DFT Exchange-Correlation Energy =       0.0000000000000000
    Empirical Dispersion Energy =           0.0000000000000000
    PCM Polarization Energy =               0.0000000000000000
    EFP Energy =                            0.0000000000000000
    Total Energy =                       -251.2409772366959260

    Alert: EFP and PCM quantities not currently incorporated into SCF psivars.

Properties will be evaluated at   0.000000,   0.000000,   0.000000 Bohr
  ==> Properties <==


Properties computed using the SCF density matrix

  Nuclear Dipole Moment: (a.u.)
     X:    -1.0356      Y:    -0.7025      Z:    -1.7934

  Electronic Dipole Moment: (a.u.)
     X:     0.9309      Y:     0.2687      Z:     1.5345

  Dipole Moment: (a.u.)
     X:    -0.1048      Y:    -0.4338      Z:    -0.2589     Total:     0.5160

  Dipole Moment: (Debye)
     X:    -0.2663      Y:    -1.1026      Z:    -0.6581     Total:     1.3114


  Saving occupied orbitals to File 180.

*** tstop() called on cx1-3-3-2.cx1.hpc.ic.ac.uk at Tue Jul  5 16:43:22 2016
Module time:
	user time   =       8.45 seconds =       0.14 minutes
	system time =       0.06 seconds =       0.00 minutes
	total time  =          9 seconds =       0.15 minutes
Total time:
	user time   =       8.45 seconds =       0.14 minutes
	system time =       0.06 seconds =       0.00 minutes
	total time  =          9 seconds =       0.15 minutes


Properties will be evaluated at   0.000000,   0.000000,   0.000000 Bohr

Properties computed using the  density matrix

  Nuclear Dipole Moment: (a.u.)
     X:    -1.0356      Y:    -0.7025      Z:    -1.7934

  Electronic Dipole Moment: (a.u.)
     X:     0.9309      Y:     0.2687      Z:     1.5345

  Dipole Moment: (a.u.)
     X:    -0.1048      Y:    -0.4338      Z:    -0.2589     Total:     0.5160

  Dipole Moment: (Debye)
     X:    -0.2663      Y:    -1.1026      Z:    -0.6581     Total:     1.3114

  Quadrupole Moment: (Debye Ang)
    XX:   -40.0988     YY:   -44.0893     ZZ:   -42.5836
    XY:    -1.2391     XZ:    -1.2847     YZ:    -3.2433

  Traceless Quadrupole Moment: (Debye Ang)
    XX:     2.1584     YY:    -1.8321     ZZ:    -0.3264
    XY:    -1.2391     XZ:    -1.2847     YZ:    -3.2433

  Mulliken Charges: (a.u.)
   Center  Symbol    Alpha    Beta     Spin     Total
       1     H     0.31684  0.31684  0.00000  0.36633
       2     N     3.92063  3.92063  0.00000 -0.84127
       3     C     3.06572  3.06572  0.00000 -0.13144
       4     H     0.31284  0.31284  0.00000  0.37432
       5     C     3.17167  3.17167  0.00000 -0.34335
       6     H     0.42662  0.42662  0.00000  0.14676
       7     H     0.41241  0.41241  0.00000  0.17517
       8     C     3.14832  3.14832  0.00000 -0.29663
       9     H     0.41631  0.41631  0.00000  0.16738
      10     H     0.41720  0.41720  0.00000  0.16560
      11     C     3.17709  3.17709  0.00000 -0.35418
      12     H     0.42053  0.42053  0.00000  0.15894
      13     H     0.41816  0.41816  0.00000  0.16369
      14     C     3.24169  3.24169  0.00000 -0.48338
      15     H     0.42414  0.42414  0.00000  0.15173
      16     H     0.41330  0.41330  0.00000  0.17339
      17     H     0.45119  0.45119  0.00000  0.09761
      18     H     0.42103  0.42103  0.00000  0.15793
      19     H     0.42431  0.42431  0.00000  0.15138

   Total alpha = 25.00000, Total beta = 25.00000, Total charge =  0.00000


*** PSI4 exiting successfully. Buy a developer a beer!
