    -----------------------------------------------------------------------
          Psi4: An Open-Source Ab Initio Electronic Structure Package
                              Psi4 (no tag) Driver

                          Git: Rev {detached?}  

    J. M. Turney, A. C. Simmonett, R. M. Parrish, E. G. Hohenstein,
    F. A. Evangelista, J. T. Fermann, B. J. Mintz, L. A. Burns, J. J. Wilke,
    M. L. Abrams, N. J. Russ, M. L. Leininger, C. L. Janssen, E. T. Seidl,
    W. D. Allen, H. F. Schaefer, R. A. King, E. F. Valeev, C. D. Sherrill,
    and T. D. Crawford, WIREs Comput. Mol. Sci. 2, 556-565 (2012)
    (doi: 10.1002/wcms.93)

                         Additional Contributions by
    A. E. DePrince, M. Saitow, U. Bozkaya, A. Yu. Sokolov
    -----------------------------------------------------------------------


    Psi4 started on: Tue Jul  5 16:33:49 2016

    Process ID:   4889
    PSI4DATADIR: /export131/home/mjharvey/miniconda3/share
    Memory level set to 256.000 MB

  ==> Input File <==

--------------------------------------------------------------------------
set {
	reference rhf
	basis 6-31G*
}


set_num_threads( 1 )
memory 2 gb

molecule MOL {
0 1

O	 -1.276010	 1.052711	 -0.768302
C	 -1.204840	 0.067374	 -0.106123
C	 -2.388195	 -0.672128	 0.458071
O	 -0.067104	 -0.527208	 0.221609
H	 -2.388023	 -1.694060	 0.097175
H	 -3.300579	 -0.174919	 0.164318
H	 -2.315377	 -0.706351	 1.539059
C	 1.170111	 0.034140	 -0.238951
C	 2.023542	 -1.142218	 -0.678754
C	 1.809300	 0.850816	 0.873308
H	 0.951136	 0.673060	 -1.081767
H	 1.525639	 -1.705725	 -1.459650
H	 2.975177	 -0.790441	 -1.063432
H	 2.215792	 -1.809310	 0.154721
H	 2.757411	 1.259503	 0.538530
H	 1.169115	 1.675074	 1.160949
H	 1.993450	 0.228181	 1.743033

	symmetry c1
}
set optking {
	frozen_dihedral = ("
		8 4 2 1
	")
}

ee = energy('scf')
oeprop('DIPOLE', 'QUADRUPOLE', 'MULLIKEN_CHARGES')
f=open( 'psi4out.xyz', 'w' )
f.write( "17  " )
f.write( str(ee) + "\n" )
f.write( MOL.save_string_xyz() )
f.close()
--------------------------------------------------------------------------

  Memory set to   2.000 GiB by Python script.

*** tstart() called on cx1-1-3-4.cx1.hpc.ic.ac.uk
*** at Tue Jul  5 16:33:50 2016


         ---------------------------------------------------------
                                   SCF
            by Justin Turney, Rob Parrish, and Andy Simmonett
                              RHF Reference
                        1 Threads,   2000 MiB Core
         ---------------------------------------------------------

  ==> Geometry <==

    Molecular point group: c1
    Full point group: C1

    Geometry (in Angstrom), charge = 0, multiplicity = 1:

       Center              X                  Y                   Z               Mass       
    ------------   -----------------  -----------------  -----------------  -----------------
           O         -1.286429086973     1.101772680528    -0.736492544092    15.994914619560
           C         -1.215259086973     0.116435680528    -0.074313544092    12.000000000000
           C         -2.398614086973    -0.623066319472     0.489880455908    12.000000000000
           O         -0.077523086973    -0.478146319472     0.253418455908    15.994914619560
           H         -2.398442086973    -1.644998319472     0.128984455908     1.007825032070
           H         -3.310998086973    -0.125857319472     0.196127455908     1.007825032070
           H         -2.325796086973    -0.657289319472     1.570868455908     1.007825032070
           C          1.159691913027     0.083201680528    -0.207141544092    12.000000000000
           C          2.013122913027    -1.093156319472    -0.646944544092    12.000000000000
           C          1.798880913027     0.899877680528     0.905117455908    12.000000000000
           H          0.940716913027     0.722121680528    -1.049957544092     1.007825032070
           H          1.515219913027    -1.656663319472    -1.427840544092     1.007825032070
           H          2.964757913027    -0.741379319472    -1.031622544092     1.007825032070
           H          2.205372913027    -1.760248319472     0.186530455908     1.007825032070
           H          2.746991913027     1.308564680528     0.570339455908     1.007825032070
           H          1.158695913027     1.724135680528     1.192758455908     1.007825032070
           H          1.983030913027     0.277242680528     1.774842455908     1.007825032070

  Running in c1 symmetry.

  Rotational constants: A =      0.15834  B =      0.05460  C =      0.05009 [cm^-1]
  Rotational constants: A =   4746.92239  B =   1636.93402  C =   1501.72529 [MHz]
  Nuclear repulsion =  322.280821423662758

  Charge       = 0
  Multiplicity = 1
  Electrons    = 56
  Nalpha       = 28
  Nbeta        = 28

  ==> Algorithm <==

  SCF Algorithm Type is DF.
  DIIS enabled.
  MOM disabled.
  Fractional occupation disabled.
  Guess Type is CORE.
  Energy threshold   = 1.00e-06
  Density threshold  = 1.00e-06
  Integral threshold = 0.00e+00

  ==> Primary Basis <==

  Basis Set: 6-31G*
    Number of shells: 62
    Number of basis function: 125
    Number of Cartesian functions: 125
    Spherical Harmonics?: false
    Max angular momentum: 2

  ==> Pre-Iterations <==

   -------------------------------------------------------
    Irrep   Nso     Nmo     Nalpha   Nbeta   Ndocc  Nsocc
   -------------------------------------------------------
     A        125     125       0       0       0       0
   -------------------------------------------------------
    Total     125     125      28      28      28       0
   -------------------------------------------------------

 OEINTS: Overlap, kinetic, potential, dipole, and quadrupole integrals
         stored in file 35.

  ==> Integral Setup <==

  ==> DFJK: Density-Fitted J/K Matrices <==

    J tasked:                  Yes
    K tasked:                  Yes
    wK tasked:                  No
    OpenMP threads:              1
    Integrals threads:           1
    Memory (MB):              1430
    Algorithm:                Core
    Integral Cache:           NONE
    Schwarz Cutoff:          1E-12
    Fitting Condition:       1E-12

   => Auxiliary Basis Set <=

  Basis Set: 
    Number of shells: 258
    Number of basis function: 817
    Number of Cartesian functions: 817
    Spherical Harmonics?: false
    Max angular momentum: 3

  Minimum eigenvalue in the overlap matrix is 3.8540822879E-03.
  Using Symmetric Orthogonalization.
  SCF Guess: Core (One-Electron) Hamiltonian.

  ==> Iterations <==

                           Total Energy        Delta E     RMS |[F,P]|

   @DF-RHF iter   1:  -242.55452889843917   -2.42555e+02   8.38973e-02 
   @DF-RHF iter   2:  -251.05576668921429   -8.50124e+00   5.47566e-02 DIIS
   @DF-RHF iter   3:  -265.21019870617221   -1.41544e+01   6.56320e-02 DIIS
   @DF-RHF iter   4:  -327.97392433528881   -6.27637e+01   4.10102e-02 DIIS
   @DF-RHF iter   5:  -341.68141101782334   -1.37075e+01   1.53034e-02 DIIS
   @DF-RHF iter   6:  -344.64104635114501   -2.95964e+00   5.80972e-03 DIIS
   @DF-RHF iter   7:  -344.88312641210706   -2.42080e-01   2.00710e-03 DIIS
   @DF-RHF iter   8:  -344.90737080635739   -2.42444e-02   8.75868e-04 DIIS
   @DF-RHF iter   9:  -344.91337574926735   -6.00494e-03   2.15490e-04 DIIS
   @DF-RHF iter  10:  -344.91386413302808   -4.88384e-04   7.14985e-05 DIIS
   @DF-RHF iter  11:  -344.91394699686435   -8.28638e-05   2.30122e-05 DIIS
   @DF-RHF iter  12:  -344.91395498236835   -7.98550e-06   5.91504e-06 DIIS
   @DF-RHF iter  13:  -344.91395570826620   -7.25898e-07   2.17697e-06 DIIS
   @DF-RHF iter  14:  -344.91395579752162   -8.92554e-08   9.62346e-07 DIIS

  ==> Post-Iterations <==

    Orbital Energies (a.u.)
    -----------------------

    Doubly Occupied:                                                      

       1A    -20.598930     2A    -20.542561     3A    -11.374960  
       4A    -11.288337     5A    -11.232490     6A    -11.218697  
       7A    -11.218333     8A     -1.465371     9A     -1.361364  
      10A     -1.078650    11A     -1.005294    12A     -0.948409  
      13A     -0.847522    14A     -0.767683    15A     -0.692351  
      16A     -0.665840    17A     -0.660581    18A     -0.612868  
      19A     -0.586559    20A     -0.578683    21A     -0.565754  
      22A     -0.550941    23A     -0.534855    24A     -0.522461  
      25A     -0.502135    26A     -0.481826    27A     -0.445322  
      28A     -0.436254  

    Virtual:                                                              

      29A      0.200350    30A      0.233011    31A      0.259224  
      32A      0.283808    33A      0.293498    34A      0.297894  
      35A      0.310841    36A      0.327807    37A      0.332537  
      38A      0.345853    39A      0.353821    40A      0.374687  
      41A      0.386200    42A      0.426571    43A      0.434725  
      44A      0.502864    45A      0.546148    46A      0.687158  
      47A      0.700494    48A      0.738088    49A      0.769297  
      50A      0.776546    51A      0.784968    52A      0.814629  
      53A      0.825763    54A      0.874221    55A      0.900009  
      56A      0.925740    57A      0.969091    58A      0.980276  
      59A      0.992344    60A      1.020444    61A      1.080545  
      62A      1.094493    63A      1.135814    64A      1.147000  
      65A      1.164991    66A      1.165720    67A      1.183614  
      68A      1.197686    69A      1.206100    70A      1.215503  
      71A      1.230144    72A      1.240598    73A      1.255634  
      74A      1.304705    75A      1.353631    76A      1.395225  
      77A      1.421975    78A      1.453772    79A      1.581899  
      80A      1.639464    81A      1.711157    82A      1.742267  
      83A      1.789015    84A      1.833269    85A      1.845383  
      86A      1.963653    87A      1.989154    88A      2.040789  
      89A      2.061595    90A      2.084032    91A      2.095527  
      92A      2.130107    93A      2.185702    94A      2.234810  
      95A      2.267444    96A      2.300847    97A      2.331915  
      98A      2.358946    99A      2.416462   100A      2.478101  
     101A      2.503769   102A      2.520526   103A      2.558528  
     104A      2.583576   105A      2.594266   106A      2.602676  
     107A      2.726697   108A      2.780859   109A      2.823470  
     110A      2.832747   111A      2.878628   112A      3.030471  
     113A      3.039033   114A      3.113670   115A      3.185362  
     116A      3.356313   117A      3.425356   118A      3.563283  
     119A      4.430120   120A      4.528962   121A      4.579781  
     122A      4.672197   123A      4.726228   124A      4.866746  
     125A      4.988212  

    Final Occupation by Irrep:
              A 
    DOCC [    28 ]

  Energy converged.

  @DF-RHF Final Energy:  -344.91395579752162

   => Energetics <=

    Nuclear Repulsion Energy =            322.2808214236627578
    One-Electron Energy =               -1108.8195783538196793
    Two-Electron Energy =                 441.6248011326364349
    DFT Exchange-Correlation Energy =       0.0000000000000000
    Empirical Dispersion Energy =           0.0000000000000000
    PCM Polarization Energy =               0.0000000000000000
    EFP Energy =                            0.0000000000000000
    Total Energy =                       -344.9139557975205435

    Alert: EFP and PCM quantities not currently incorporated into SCF psivars.

Properties will be evaluated at   0.000000,   0.000000,   0.000000 Bohr
  ==> Properties <==


Properties computed using the SCF density matrix

  Nuclear Dipole Moment: (a.u.)
     X:     5.1304      Y:    -2.3916      Z:     1.9767

  Electronic Dipole Moment: (a.u.)
     X:    -4.7767      Y:     1.7772      Z:    -1.5772

  Dipole Moment: (a.u.)
     X:     0.3537      Y:    -0.6145      Z:     0.3995     Total:     0.8138

  Dipole Moment: (Debye)
     X:     0.8989      Y:    -1.5619      Z:     1.0155     Total:     2.0685


  Saving occupied orbitals to File 180.

*** tstop() called on cx1-1-3-4.cx1.hpc.ic.ac.uk at Tue Jul  5 16:34:01 2016
Module time:
	user time   =      11.02 seconds =       0.18 minutes
	system time =       0.06 seconds =       0.00 minutes
	total time  =         11 seconds =       0.18 minutes
Total time:
	user time   =      11.02 seconds =       0.18 minutes
	system time =       0.06 seconds =       0.00 minutes
	total time  =         11 seconds =       0.18 minutes


Properties will be evaluated at   0.000000,   0.000000,   0.000000 Bohr

Properties computed using the  density matrix

  Nuclear Dipole Moment: (a.u.)
     X:     5.1304      Y:    -2.3916      Z:     1.9767

  Electronic Dipole Moment: (a.u.)
     X:    -4.7767      Y:     1.7772      Z:    -1.5772

  Dipole Moment: (a.u.)
     X:     0.3537      Y:    -0.6145      Z:     0.3995     Total:     0.8138

  Dipole Moment: (Debye)
     X:     0.8989      Y:    -1.5619      Z:     1.0155     Total:     2.0685

  Quadrupole Moment: (Debye Ang)
    XX:   -39.2970     YY:   -46.0879     ZZ:   -43.7311
    XY:     4.0632     XZ:    -2.9664     YZ:     2.4810

  Traceless Quadrupole Moment: (Debye Ang)
    XX:     3.7417     YY:    -3.0492     ZZ:    -0.6924
    XY:     4.0632     XZ:    -2.9664     YZ:     2.4810

  Mulliken Charges: (a.u.)
   Center  Symbol    Alpha    Beta     Spin     Total
       1     O     4.28512  4.28512  0.00000 -0.57024
       2     C     2.61802  2.61802  0.00000  0.76396
       3     C     3.28228  3.28228  0.00000 -0.56456
       4     O     4.31305  4.31305  0.00000 -0.62611
       5     H     0.40074  0.40074  0.00000  0.19852
       6     H     0.39723  0.39723  0.00000  0.20555
       7     H     0.40081  0.40081  0.00000  0.19837
       8     C     2.93445  2.93445  0.00000  0.13110
       9     C     3.24043  3.24043  0.00000 -0.48085
      10     C     3.24555  3.24555  0.00000 -0.49109
      11     H     0.39454  0.39454  0.00000  0.21093
      12     H     0.41272  0.41272  0.00000  0.17457
      13     H     0.41839  0.41839  0.00000  0.16323
      14     H     0.41470  0.41470  0.00000  0.17060
      15     H     0.41766  0.41766  0.00000  0.16469
      16     H     0.40857  0.40857  0.00000  0.18287
      17     H     0.41577  0.41577  0.00000  0.16847

   Total alpha = 28.00000, Total beta = 28.00000, Total charge = -0.00000


*** PSI4 exiting successfully. Buy a developer a beer!
