    -----------------------------------------------------------------------
          Psi4: An Open-Source Ab Initio Electronic Structure Package
                              Psi4 (no tag) Driver

                          Git: Rev {detached?}  

    J. M. Turney, A. C. Simmonett, R. M. Parrish, E. G. Hohenstein,
    F. A. Evangelista, J. T. Fermann, B. J. Mintz, L. A. Burns, J. J. Wilke,
    M. L. Abrams, N. J. Russ, M. L. Leininger, C. L. Janssen, E. T. Seidl,
    W. D. Allen, H. F. Schaefer, R. A. King, E. F. Valeev, C. D. Sherrill,
    and T. D. Crawford, WIREs Comput. Mol. Sci. 2, 556-565 (2012)
    (doi: 10.1002/wcms.93)

                         Additional Contributions by
    A. E. DePrince, M. Saitow, U. Bozkaya, A. Yu. Sokolov
    -----------------------------------------------------------------------


    Psi4 started on: Tue Jul  5 16:25:15 2016

    Process ID:  11242
    PSI4DATADIR: /export131/home/mjharvey/miniconda3/share
    Memory level set to 256.000 MB

  ==> Input File <==

--------------------------------------------------------------------------
set {
	reference rhf
	basis 6-31G*
}


set_num_threads( 1 )
memory 2 gb

molecule MOL {
0 1

H	 2.465915	 -1.403495	 -1.014452
N	 1.481870	 -1.223157	 -1.036688
C	 1.224368	 0.201193	 -0.928836
C	 0.806026	 -1.965611	 0.011505
H	 1.731935	 0.712955	 -1.739542
H	 1.585005	 0.620822	 0.013232
C	 -0.273766	 0.445785	 -1.029827
H	 1.010639	 -3.023000	 -0.118226
H	 1.141325	 -1.677217	 1.010526
C	 -0.691849	 -1.719676	 -0.090069
H	 -0.614349	 0.165873	 -2.031202
H	 -0.479102	 1.502650	 -0.894103
N	 -0.975995	 -0.298722	 0.000000
H	 -1.199111	 -2.226634	 0.724318
H	 -1.060441	 -2.144666	 -1.028483
C	 -2.393863	 -0.024976	 0.000000
H	 -2.854032	 -0.467193	 -0.876721
H	 -2.854032	 -0.467193	 0.876721
H	 -2.623281	 1.044943	 0.000000

	symmetry c1
}
ee = energy('scf')
oeprop('DIPOLE', 'QUADRUPOLE', 'MULLIKEN_CHARGES')
f=open( 'psi4out.xyz', 'w' )
f.write( "19  " )
f.write( str(ee) + "\n" )
f.write( MOL.save_string_xyz() )
f.close()
--------------------------------------------------------------------------

  Memory set to   2.000 GiB by Python script.

*** tstart() called on cx1-3-2-1.cx1.hpc.ic.ac.uk
*** at Tue Jul  5 16:25:16 2016


         ---------------------------------------------------------
                                   SCF
            by Justin Turney, Rob Parrish, and Andy Simmonett
                              RHF Reference
                        1 Threads,   2000 MiB Core
         ---------------------------------------------------------

  ==> Geometry <==

    Molecular point group: c1
    Full point group: C1

    Geometry (in Angstrom), charge = 0, multiplicity = 1:

       Center              X                  Y                   Z               Mass       
    ------------   -----------------  -----------------  -----------------  -----------------
           H          2.592229345750    -0.749247880116    -0.574080486982     1.007825032070
           N          1.608184345750    -0.568909880116    -0.596316486982    14.003074004780
           C          1.350682345750     0.855440119884    -0.488464486982    12.000000000000
           C          0.932340345750    -1.311363880116     0.451876513018    12.000000000000
           H          1.858249345750     1.367202119884    -1.299170486982     1.007825032070
           H          1.711319345750     1.275069119884     0.453603513018     1.007825032070
           C         -0.147451654250     1.100032119884    -0.589455486982    12.000000000000
           H          1.136953345750    -2.368752880116     0.322145513018     1.007825032070
           H          1.267639345750    -1.022969880116     1.450897513018     1.007825032070
           C         -0.565534654250    -1.065428880116     0.350302513018    12.000000000000
           H         -0.488034654250     0.820120119884    -1.590830486982     1.007825032070
           H         -0.352787654250     2.156897119884    -0.453731486982     1.007825032070
           N         -0.849680654250     0.355525119884     0.440371513018    14.003074004780
           H         -1.072796654250    -1.572386880116     1.164689513018     1.007825032070
           H         -0.934126654250    -1.490418880116    -0.588111486982     1.007825032070
           C         -2.267548654250     0.629271119884     0.440371513018    12.000000000000
           H         -2.727717654250     0.187054119884    -0.436349486982     1.007825032070
           H         -2.727717654250     0.187054119884     1.317092513018     1.007825032070
           H         -2.496966654250     1.699190119884     0.440371513018     1.007825032070

  Running in c1 symmetry.

  Rotational constants: A =      0.15720  B =      0.07861  C =      0.05697 [cm^-1]
  Rotational constants: A =   4712.76217  B =   2356.52442  C =   1707.87816 [MHz]
  Nuclear repulsion =  339.913186936574391

  Charge       = 0
  Multiplicity = 1
  Electrons    = 56
  Nalpha       = 28
  Nbeta        = 28

  ==> Algorithm <==

  SCF Algorithm Type is DF.
  DIIS enabled.
  MOM disabled.
  Fractional occupation disabled.
  Guess Type is CORE.
  Energy threshold   = 1.00e-06
  Density threshold  = 1.00e-06
  Integral threshold = 0.00e+00

  ==> Primary Basis <==

  Basis Set: 6-31G*
    Number of shells: 66
    Number of basis function: 129
    Number of Cartesian functions: 129
    Spherical Harmonics?: false
    Max angular momentum: 2

  ==> Pre-Iterations <==

   -------------------------------------------------------
    Irrep   Nso     Nmo     Nalpha   Nbeta   Ndocc  Nsocc
   -------------------------------------------------------
     A        129     129       0       0       0       0
   -------------------------------------------------------
    Total     129     129      28      28      28       0
   -------------------------------------------------------

 OEINTS: Overlap, kinetic, potential, dipole, and quadrupole integrals
         stored in file 35.

  ==> Integral Setup <==

  ==> DFJK: Density-Fitted J/K Matrices <==

    J tasked:                  Yes
    K tasked:                  Yes
    wK tasked:                  No
    OpenMP threads:              1
    Integrals threads:           1
    Memory (MB):              1430
    Algorithm:                Core
    Integral Cache:           NONE
    Schwarz Cutoff:          1E-12
    Fitting Condition:       1E-12

   => Auxiliary Basis Set <=

  Basis Set: 
    Number of shells: 276
    Number of basis function: 867
    Number of Cartesian functions: 867
    Spherical Harmonics?: false
    Max angular momentum: 3

  Minimum eigenvalue in the overlap matrix is 3.3624108475E-03.
  Using Symmetric Orthogonalization.
  SCF Guess: Core (One-Electron) Hamiltonian.

  ==> Iterations <==

                           Total Energy        Delta E     RMS |[F,P]|

   @DF-RHF iter   1:  -233.39428925377132   -2.33394e+02   7.06894e-02 
   @DF-RHF iter   2:  -176.47339390198061    5.69209e+01   6.97558e-02 DIIS
   @DF-RHF iter   3:  -255.71577309279490   -7.92424e+01   5.25862e-02 DIIS
   @DF-RHF iter   4:  -270.21660597801582   -1.45008e+01   5.39536e-02 DIIS
   @DF-RHF iter   5:  -304.77357585276326   -3.45570e+01   6.93346e-03 DIIS
   @DF-RHF iter   6:  -305.13626936813392   -3.62694e-01   2.69247e-03 DIIS
   @DF-RHF iter   7:  -305.18920408399168   -5.29347e-02   9.26540e-04 DIIS
   @DF-RHF iter   8:  -305.19778472584534   -8.58064e-03   2.41148e-04 DIIS
   @DF-RHF iter   9:  -305.19856726931533   -7.82543e-04   7.49145e-05 DIIS
   @DF-RHF iter  10:  -305.19862448500470   -5.72157e-05   3.05468e-05 DIIS
   @DF-RHF iter  11:  -305.19863660406639   -1.21191e-05   5.15547e-06 DIIS
   @DF-RHF iter  12:  -305.19863695664179   -3.52575e-07   1.36971e-06 DIIS
   @DF-RHF iter  13:  -305.19863699620117   -3.95594e-08   3.46700e-07 DIIS

  ==> Post-Iterations <==

    Orbital Energies (a.u.)
    -----------------------

    Doubly Occupied:                                                      

       1A    -15.540257     2A    -15.536631     3A    -11.238879  
       4A    -11.238373     5A    -11.237689     6A    -11.236874  
       7A    -11.235275     8A     -1.247420     9A     -1.185723  
      10A     -1.022905    11A     -0.964480    12A     -0.860721  
      13A     -0.857025    14A     -0.757335    15A     -0.691220  
      16A     -0.634571    17A     -0.626020    18A     -0.607719  
      19A     -0.602982    20A     -0.580443    21A     -0.543293  
      22A     -0.529251    23A     -0.511886    24A     -0.490383  
      25A     -0.466415    26A     -0.457528    27A     -0.363367  
      28A     -0.344080  

    Virtual:                                                              

      29A      0.229428    30A      0.248892    31A      0.277702  
      32A      0.290307    33A      0.293188    34A      0.315526  
      35A      0.327360    36A      0.331154    37A      0.338337  
      38A      0.348213    39A      0.352377    40A      0.361419  
      41A      0.363812    42A      0.411448    43A      0.440149  
      44A      0.442589    45A      0.461749    46A      0.467332  
      47A      0.489092    48A      0.715910    49A      0.744678  
      50A      0.755610    51A      0.787722    52A      0.794874  
      53A      0.802629    54A      0.847001    55A      0.853448  
      56A      0.893235    57A      0.904663    58A      0.961850  
      59A      0.987433    60A      0.996864    61A      1.039313  
      62A      1.066954    63A      1.079529    64A      1.115141  
      65A      1.120210    66A      1.132396    67A      1.150747  
      68A      1.154321    69A      1.163892    70A      1.185147  
      71A      1.194959    72A      1.206843    73A      1.207761  
      74A      1.244724    75A      1.251591    76A      1.272294  
      77A      1.282896    78A      1.283783    79A      1.354984  
      80A      1.410088    81A      1.529951    82A      1.539266  
      83A      1.649137    84A      1.654884    85A      1.690591  
      86A      1.713654    87A      1.781533    88A      1.850903  
      89A      1.891526    90A      2.017936    91A      2.042334  
      92A      2.074103    93A      2.133287    94A      2.185304  
      95A      2.227492    96A      2.300239    97A      2.305543  
      98A      2.308212    99A      2.322275   100A      2.364083  
     101A      2.407567   102A      2.418008   103A      2.442570  
     104A      2.458410   105A      2.537487   106A      2.581074  
     107A      2.611822   108A      2.614528   109A      2.656070  
     110A      2.667269   111A      2.735289   112A      2.755754  
     113A      2.809020   114A      2.886531   115A      2.893486  
     116A      2.930357   117A      3.058515   118A      3.123770  
     119A      3.137501   120A      3.176967   121A      3.226783  
     122A      3.266258   123A      4.354371   124A      4.512853  
     125A      4.664365   126A      4.706356   127A      4.791572  
     128A      4.951130   129A      4.976764  

    Final Occupation by Irrep:
              A 
    DOCC [    28 ]

  Energy converged.

  @DF-RHF Final Energy:  -305.19863699620117

   => Energetics <=

    Nuclear Repulsion Energy =            339.9131869365743910
    One-Electron Energy =               -1087.0061929580156175
    Two-Electron Energy =                 441.8943690252406213
    DFT Exchange-Correlation Energy =       0.0000000000000000
    Empirical Dispersion Energy =           0.0000000000000000
    PCM Polarization Energy =               0.0000000000000000
    EFP Energy =                            0.0000000000000000
    Total Energy =                       -305.1986369962005483

    Alert: EFP and PCM quantities not currently incorporated into SCF psivars.

Properties will be evaluated at   0.000000,   0.000000,   0.000000 Bohr
  ==> Properties <==


Properties computed using the SCF density matrix

  Nuclear Dipole Moment: (a.u.)
     X:    -2.0963      Y:     0.4589      Z:     0.1941

  Electronic Dipole Moment: (a.u.)
     X:     2.2072      Y:    -0.4325      Z:    -0.0930

  Dipole Moment: (a.u.)
     X:     0.1109      Y:     0.0264      Z:     0.1011     Total:     0.1524

  Dipole Moment: (Debye)
     X:     0.2820      Y:     0.0670      Z:     0.2569     Total:     0.3873


  Saving occupied orbitals to File 180.

*** tstop() called on cx1-3-2-1.cx1.hpc.ic.ac.uk at Tue Jul  5 16:25:28 2016
Module time:
	user time   =      11.77 seconds =       0.20 minutes
	system time =       0.08 seconds =       0.00 minutes
	total time  =         12 seconds =       0.20 minutes
Total time:
	user time   =      11.77 seconds =       0.20 minutes
	system time =       0.08 seconds =       0.00 minutes
	total time  =         12 seconds =       0.20 minutes


Properties will be evaluated at   0.000000,   0.000000,   0.000000 Bohr

Properties computed using the  density matrix

  Nuclear Dipole Moment: (a.u.)
     X:    -2.0963      Y:     0.4589      Z:     0.1941

  Electronic Dipole Moment: (a.u.)
     X:     2.2072      Y:    -0.4325      Z:    -0.0930

  Dipole Moment: (a.u.)
     X:     0.1109      Y:     0.0264      Z:     0.1011     Total:     0.1524

  Dipole Moment: (Debye)
     X:     0.2820      Y:     0.0670      Z:     0.2569     Total:     0.3873

  Quadrupole Moment: (Debye Ang)
    XX:   -40.6313     YY:   -43.2418     ZZ:   -48.1359
    XY:    -0.2778     XZ:     0.3624     YZ:    -2.6568

  Traceless Quadrupole Moment: (Debye Ang)
    XX:     3.3717     YY:     0.7612     ZZ:    -4.1329
    XY:    -0.2778     XZ:     0.3624     YZ:    -2.6568

  Mulliken Charges: (a.u.)
   Center  Symbol    Alpha    Beta     Spin     Total
       1     H     0.32948  0.32948  0.00000  0.34104
       2     N     3.85426  3.85426  0.00000 -0.70852
       3     C     3.06341  3.06341  0.00000 -0.12682
       4     C     3.06326  3.06326  0.00000 -0.12653
       5     H     0.41773  0.41773  0.00000  0.16455
       6     H     0.42763  0.42763  0.00000  0.14474
       7     C     3.05488  3.05488  0.00000 -0.10975
       8     H     0.41754  0.41754  0.00000  0.16492
       9     H     0.42748  0.42748  0.00000  0.14505
      10     C     3.05529  3.05529  0.00000 -0.11058
      11     H     0.42863  0.42863  0.00000  0.14274
      12     H     0.41864  0.41864  0.00000  0.16272
      13     N     3.78782  3.78782  0.00000 -0.57564
      14     H     0.41850  0.41850  0.00000  0.16301
      15     H     0.42794  0.42794  0.00000  0.14411
      16     C     3.14074  3.14074  0.00000 -0.28147
      17     H     0.43278  0.43278  0.00000  0.13445
      18     H     0.41666  0.41666  0.00000  0.16669
      19     H     0.41734  0.41734  0.00000  0.16532

   Total alpha = 28.00000, Total beta = 28.00000, Total charge = -0.00000


*** PSI4 exiting successfully. Buy a developer a beer!
