    -----------------------------------------------------------------------
          Psi4: An Open-Source Ab Initio Electronic Structure Package
                              Psi4 (no tag) Driver

                          Git: Rev {detached?}  

    J. M. Turney, A. C. Simmonett, R. M. Parrish, E. G. Hohenstein,
    F. A. Evangelista, J. T. Fermann, B. J. Mintz, L. A. Burns, J. J. Wilke,
    M. L. Abrams, N. J. Russ, M. L. Leininger, C. L. Janssen, E. T. Seidl,
    W. D. Allen, H. F. Schaefer, R. A. King, E. F. Valeev, C. D. Sherrill,
    and T. D. Crawford, WIREs Comput. Mol. Sci. 2, 556-565 (2012)
    (doi: 10.1002/wcms.93)

                         Additional Contributions by
    A. E. DePrince, M. Saitow, U. Bozkaya, A. Yu. Sokolov
    -----------------------------------------------------------------------


    Psi4 started on: Tue Jul  5 16:29:50 2016

    Process ID:  14491
    PSI4DATADIR: /export131/home/mjharvey/miniconda3/share
    Memory level set to 256.000 MB

  ==> Input File <==

--------------------------------------------------------------------------
set {
	reference rhf
	basis 6-31G*
}


set_num_threads( 1 )
memory 2 gb

molecule MOL {
0 1

H	 2.522670	 -1.109532	 1.094674
N	 1.539869	 -0.922750	 1.118669
C	 0.815145	 -1.918375	 0.350412
C	 1.266569	 0.419777	 0.639462
H	 1.034087	 -2.901550	 0.753152
H	 1.095145	 -1.916411	 -0.705636
C	 -0.677053	 -1.643038	 0.459793
H	 1.812423	 1.129841	 1.251526
H	 1.573910	 0.563356	 -0.399080
C	 -0.225908	 0.693666	 0.748664
H	 -0.992490	 -1.792713	 1.496709
H	 -1.222830	 -2.349488	 -0.157136
N	 -0.975995	 -0.298722	 0.000000
H	 -0.445884	 1.674703	 0.340348
H	 -0.511121	 0.700541	 1.804933
C	 -2.393863	 -0.024976	 0.000000
H	 -2.854032	 -0.467193	 -0.876721
H	 -2.854032	 -0.467193	 0.876721
H	 -2.623281	 1.044943	 0.000000

	symmetry c1
}
ee = energy('scf')
oeprop('DIPOLE', 'QUADRUPOLE', 'MULLIKEN_CHARGES')
f=open( 'psi4out.xyz', 'w' )
f.write( "19  " )
f.write( str(ee) + "\n" )
f.write( MOL.save_string_xyz() )
f.close()
--------------------------------------------------------------------------

  Memory set to   2.000 GiB by Python script.

*** tstart() called on cx1-3-2-1.cx1.hpc.ic.ac.uk
*** at Tue Jul  5 16:29:50 2016


         ---------------------------------------------------------
                                   SCF
            by Justin Turney, Rob Parrish, and Andy Simmonett
                              RHF Reference
                        1 Threads,   2000 MiB Core
         ---------------------------------------------------------

  ==> Geometry <==

    Molecular point group: c1
    Full point group: C1

    Geometry (in Angstrom), charge = 0, multiplicity = 1:

       Center              X                  Y                   Z               Mass       
    ------------   -----------------  -----------------  -----------------  -----------------
           H          2.624347301379    -0.582893836068     0.619477986194     1.007825032070
           N          1.641546301379    -0.396111836068     0.643472986194    14.003074004780
           C          0.916822301379    -1.391736836068    -0.124784013806    12.000000000000
           C          1.368246301379     0.946415163932     0.164265986194    12.000000000000
           H          1.135764301379    -2.374911836068     0.277955986194     1.007825032070
           H          1.196822301379    -1.389772836068    -1.180832013806     1.007825032070
           C         -0.575375698621    -1.116399836068    -0.015403013806    12.000000000000
           H          1.914100301379     1.656479163932     0.776329986194     1.007825032070
           H          1.675587301379     1.089994163932    -0.874276013806     1.007825032070
           C         -0.124230698621     1.220304163932     0.273467986194    12.000000000000
           H         -0.890812698621    -1.266074836068     1.021512986194     1.007825032070
           H         -1.121152698621    -1.822849836068    -0.632332013806     1.007825032070
           N         -0.874317698621     0.227916163932    -0.475196013806    14.003074004780
           H         -0.344206698621     2.201341163932    -0.134848013806     1.007825032070
           H         -0.409443698621     1.227179163932     1.329736986194     1.007825032070
           C         -2.292185698621     0.501662163932    -0.475196013806    12.000000000000
           H         -2.752354698621     0.059445163932    -1.351917013806     1.007825032070
           H         -2.752354698621     0.059445163932     0.401524986194     1.007825032070
           H         -2.521603698621     1.571581163932    -0.475196013806     1.007825032070

  Running in c1 symmetry.

  Rotational constants: A =      0.15719  B =      0.07860  C =      0.05697 [cm^-1]
  Rotational constants: A =   4712.53755  B =   2356.45332  C =   1707.83690 [MHz]
  Nuclear repulsion =  339.919557608194737

  Charge       = 0
  Multiplicity = 1
  Electrons    = 56
  Nalpha       = 28
  Nbeta        = 28

  ==> Algorithm <==

  SCF Algorithm Type is DF.
  DIIS enabled.
  MOM disabled.
  Fractional occupation disabled.
  Guess Type is CORE.
  Energy threshold   = 1.00e-06
  Density threshold  = 1.00e-06
  Integral threshold = 0.00e+00

  ==> Primary Basis <==

  Basis Set: 6-31G*
    Number of shells: 66
    Number of basis function: 129
    Number of Cartesian functions: 129
    Spherical Harmonics?: false
    Max angular momentum: 2

  ==> Pre-Iterations <==

   -------------------------------------------------------
    Irrep   Nso     Nmo     Nalpha   Nbeta   Ndocc  Nsocc
   -------------------------------------------------------
     A        129     129       0       0       0       0
   -------------------------------------------------------
    Total     129     129      28      28      28       0
   -------------------------------------------------------

 OEINTS: Overlap, kinetic, potential, dipole, and quadrupole integrals
         stored in file 35.

  ==> Integral Setup <==

  ==> DFJK: Density-Fitted J/K Matrices <==

    J tasked:                  Yes
    K tasked:                  Yes
    wK tasked:                  No
    OpenMP threads:              1
    Integrals threads:           1
    Memory (MB):              1430
    Algorithm:                Core
    Integral Cache:           NONE
    Schwarz Cutoff:          1E-12
    Fitting Condition:       1E-12

   => Auxiliary Basis Set <=

  Basis Set: 
    Number of shells: 276
    Number of basis function: 867
    Number of Cartesian functions: 867
    Spherical Harmonics?: false
    Max angular momentum: 3

  Minimum eigenvalue in the overlap matrix is 3.3645290965E-03.
  Using Symmetric Orthogonalization.
  SCF Guess: Core (One-Electron) Hamiltonian.

  ==> Iterations <==

                           Total Energy        Delta E     RMS |[F,P]|

   @DF-RHF iter   1:  -233.39355939710447   -2.33394e+02   7.07016e-02 
   @DF-RHF iter   2:  -174.86332149286295    5.85302e+01   7.15018e-02 DIIS
   @DF-RHF iter   3:  -256.02924795434728   -8.11659e+01   5.21993e-02 DIIS
   @DF-RHF iter   4:  -261.31443221879124   -5.28518e+00   5.74661e-02 DIIS
   @DF-RHF iter   5:  -304.80398849397818   -4.34896e+01   6.46667e-03 DIIS
   @DF-RHF iter   6:  -305.14690523382887   -3.42917e-01   2.30735e-03 DIIS
   @DF-RHF iter   7:  -305.18756926458332   -4.06640e-02   9.19465e-04 DIIS
   @DF-RHF iter   8:  -305.19569830688283   -8.12904e-03   2.69973e-04 DIIS
   @DF-RHF iter   9:  -305.19665763965679   -9.59333e-04   8.15279e-05 DIIS
   @DF-RHF iter  10:  -305.19672948677930   -7.18471e-05   2.88253e-05 DIIS
   @DF-RHF iter  11:  -305.19674012032965   -1.06336e-05   5.71650e-06 DIIS
   @DF-RHF iter  12:  -305.19674051763934   -3.97310e-07   1.66107e-06 DIIS
   @DF-RHF iter  13:  -305.19674056266649   -4.50272e-08   4.09445e-07 DIIS

  ==> Post-Iterations <==

    Orbital Energies (a.u.)
    -----------------------

    Doubly Occupied:                                                      

       1A    -15.539374     2A    -15.536477     3A    -11.238759  
       4A    -11.238027     5A    -11.237712     6A    -11.236664  
       7A    -11.234656     8A     -1.247167     9A     -1.185514  
      10A     -1.022778    11A     -0.964253    12A     -0.860753  
      13A     -0.856927    14A     -0.757453    15A     -0.690927  
      16A     -0.633667    17A     -0.625131    18A     -0.607646  
      19A     -0.603214    20A     -0.580222    21A     -0.543540  
      22A     -0.530794    23A     -0.511788    24A     -0.489616  
      25A     -0.466229    26A     -0.456549    27A     -0.363101  
      28A     -0.343385  

    Virtual:                                                              

      29A      0.230175    30A      0.250103    31A      0.278735  
      32A      0.289395    33A      0.293524    34A      0.315836  
      35A      0.322025    36A      0.328896    37A      0.342701  
      38A      0.344486    39A      0.355029    40A      0.357489  
      41A      0.364950    42A      0.410353    43A      0.438370  
      44A      0.441096    45A      0.461867    46A      0.472342  
      47A      0.492731    48A      0.720127    49A      0.745262  
      50A      0.755617    51A      0.788195    52A      0.791221  
      53A      0.812390    54A      0.847914    55A      0.855601  
      56A      0.893246    57A      0.907842    58A      0.958546  
      59A      0.982660    60A      0.989678    61A      1.040346  
      62A      1.064772    63A      1.083761    64A      1.111585  
      65A      1.125535    66A      1.132590    67A      1.146012  
      68A      1.152630    69A      1.161480    70A      1.176797  
      71A      1.193976    72A      1.205927    73A      1.209917  
      74A      1.241356    75A      1.252050    76A      1.271097  
      77A      1.278528    78A      1.284844    79A      1.342580  
      80A      1.412184    81A      1.527287    82A      1.544213  
      83A      1.636255    84A      1.647238    85A      1.683433  
      86A      1.716864    87A      1.777289    88A      1.854063  
      89A      1.888186    90A      2.016549    91A      2.048436  
      92A      2.076862    93A      2.134500    94A      2.184260  
      95A      2.227735    96A      2.297981    97A      2.306913  
      98A      2.309613    99A      2.331738   100A      2.348770  
     101A      2.408708   102A      2.425281   103A      2.440178  
     104A      2.474625   105A      2.537373   106A      2.586605  
     107A      2.617325   108A      2.620109   109A      2.655396  
     110A      2.669651   111A      2.737925   112A      2.755386  
     113A      2.807809   114A      2.880112   115A      2.900683  
     116A      2.925023   117A      3.058797   118A      3.122707  
     119A      3.136304   120A      3.178244   121A      3.232516  
     122A      3.266416   123A      4.355684   124A      4.518706  
     125A      4.663098   126A      4.700174   127A      4.794538  
     128A      4.951945   129A      4.976825  

    Final Occupation by Irrep:
              A 
    DOCC [    28 ]

  Energy converged.

  @DF-RHF Final Energy:  -305.19674056266649

   => Energetics <=

    Nuclear Repulsion Energy =            339.9195576081947365
    One-Electron Energy =               -1087.0279821776559857
    Two-Electron Energy =                 441.9116840067937915
    DFT Exchange-Correlation Energy =       0.0000000000000000
    Empirical Dispersion Energy =           0.0000000000000000
    PCM Polarization Energy =               0.0000000000000000
    EFP Energy =                            0.0000000000000000
    Total Energy =                       -305.1967405626674577

    Alert: EFP and PCM quantities not currently incorporated into SCF psivars.

Properties will be evaluated at   0.000000,   0.000000,   0.000000 Bohr
  ==> Properties <==


Properties computed using the SCF density matrix

  Nuclear Dipole Moment: (a.u.)
     X:    -2.1071      Y:     0.4026      Z:    -0.2094

  Electronic Dipole Moment: (a.u.)
     X:     2.2067      Y:    -0.3951      Z:     0.1132

  Dipole Moment: (a.u.)
     X:     0.0996      Y:     0.0075      Z:    -0.0962     Total:     0.1387

  Dipole Moment: (Debye)
     X:     0.2531      Y:     0.0191      Z:    -0.2446     Total:     0.3525


  Saving occupied orbitals to File 180.

*** tstop() called on cx1-3-2-1.cx1.hpc.ic.ac.uk at Tue Jul  5 16:30:03 2016
Module time:
	user time   =      12.83 seconds =       0.21 minutes
	system time =       0.10 seconds =       0.00 minutes
	total time  =         13 seconds =       0.22 minutes
Total time:
	user time   =      12.83 seconds =       0.21 minutes
	system time =       0.10 seconds =       0.00 minutes
	total time  =         13 seconds =       0.22 minutes


Properties will be evaluated at   0.000000,   0.000000,   0.000000 Bohr

Properties computed using the  density matrix

  Nuclear Dipole Moment: (a.u.)
     X:    -2.1071      Y:     0.4026      Z:    -0.2094

  Electronic Dipole Moment: (a.u.)
     X:     2.2067      Y:    -0.3951      Z:     0.1132

  Dipole Moment: (a.u.)
     X:     0.0996      Y:     0.0075      Z:    -0.0962     Total:     0.1387

  Dipole Moment: (Debye)
     X:     0.2531      Y:     0.0191      Z:    -0.2446     Total:     0.3525

  Quadrupole Moment: (Debye Ang)
    XX:   -40.7121     YY:   -42.1907     ZZ:   -49.0955
    XY:    -0.4488     XZ:    -0.8520     YZ:     1.0240

  Traceless Quadrupole Moment: (Debye Ang)
    XX:     3.2873     YY:     1.8087     ZZ:    -5.0960
    XY:    -0.4488     XZ:    -0.8520     YZ:     1.0240

  Mulliken Charges: (a.u.)
   Center  Symbol    Alpha    Beta     Spin     Total
       1     H     0.32950  0.32950  0.00000  0.34100
       2     N     3.85429  3.85429  0.00000 -0.70857
       3     C     3.06325  3.06325  0.00000 -0.12650
       4     C     3.06352  3.06352  0.00000 -0.12703
       5     H     0.41757  0.41757  0.00000  0.16486
       6     H     0.42746  0.42746  0.00000  0.14509
       7     C     3.05625  3.05625  0.00000 -0.11251
       8     H     0.41785  0.41785  0.00000  0.16431
       9     H     0.42771  0.42771  0.00000  0.14457
      10     C     3.05548  3.05548  0.00000 -0.11096
      11     H     0.42755  0.42755  0.00000  0.14491
      12     H     0.41810  0.41810  0.00000  0.16379
      13     N     3.78772  3.78772  0.00000 -0.57544
      14     H     0.41852  0.41852  0.00000  0.16297
      15     H     0.42887  0.42887  0.00000  0.14226
      16     C     3.14096  3.14096  0.00000 -0.28193
      17     H     0.41602  0.41602  0.00000  0.16796
      18     H     0.43093  0.43093  0.00000  0.13815
      19     H     0.41846  0.41846  0.00000  0.16308

   Total alpha = 28.00000, Total beta = 28.00000, Total charge =  0.00000


*** PSI4 exiting successfully. Buy a developer a beer!
