    -----------------------------------------------------------------------
          Psi4: An Open-Source Ab Initio Electronic Structure Package
                              Psi4 (no tag) Driver

                          Git: Rev {detached?}  

    J. M. Turney, A. C. Simmonett, R. M. Parrish, E. G. Hohenstein,
    F. A. Evangelista, J. T. Fermann, B. J. Mintz, L. A. Burns, J. J. Wilke,
    M. L. Abrams, N. J. Russ, M. L. Leininger, C. L. Janssen, E. T. Seidl,
    W. D. Allen, H. F. Schaefer, R. A. King, E. F. Valeev, C. D. Sherrill,
    and T. D. Crawford, WIREs Comput. Mol. Sci. 2, 556-565 (2012)
    (doi: 10.1002/wcms.93)

                         Additional Contributions by
    A. E. DePrince, M. Saitow, U. Bozkaya, A. Yu. Sokolov
    -----------------------------------------------------------------------


    Psi4 started on: Tue Jul  5 16:27:44 2016

    Process ID:  31328
    PSI4DATADIR: /export131/home/mjharvey/miniconda3/share
    Memory level set to 256.000 MB

  ==> Input File <==

--------------------------------------------------------------------------
set {
	reference rhf
	basis 6-31G*
}


set_num_threads( 1 )
memory 2 gb

molecule MOL {
0 1

H	 1.148083	 -1.049780	 0.784252
O	 1.319262	 -0.618148	 -0.041729
C	 0.709265	 0.639550	 -0.033818
C	 -0.782329	 0.600759	 0.171664
H	 0.932952	 1.090167	 -0.994084
H	 1.157443	 1.282273	 0.723195
C	 -1.521600	 -0.490177	 0.181743
H	 -1.247114	 1.563970	 0.315477
H	 -1.095144	 -1.464127	 0.023673
H	 -2.584754	 -0.444045	 0.335204

	symmetry c1
}
set optking {
	frozen_dihedral = ("
		5 3 4 7,
		3 4 7 9
	")
}

ee = energy('scf')
oeprop('DIPOLE', 'QUADRUPOLE', 'MULLIKEN_CHARGES')
f=open( 'psi4out.xyz', 'w' )
f.write( "10  " )
f.write( str(ee) + "\n" )
f.write( MOL.save_string_xyz() )
f.close()
--------------------------------------------------------------------------

  Memory set to   2.000 GiB by Python script.

*** tstart() called on cx1-3-5-2.cx1.hpc.ic.ac.uk
*** at Tue Jul  5 16:27:44 2016


         ---------------------------------------------------------
                                   SCF
            by Justin Turney, Rob Parrish, and Andy Simmonett
                              RHF Reference
                        1 Threads,   2000 MiB Core
         ---------------------------------------------------------

  ==> Geometry <==

    Molecular point group: c1
    Full point group: C1

    Geometry (in Angstrom), charge = 0, multiplicity = 1:

       Center              X                  Y                   Z               Mass       
    ------------   -----------------  -----------------  -----------------  -----------------
           H          1.143538552316    -1.051511060560     0.709054086466     1.007825032070
           O          1.314717552316    -0.619879060560    -0.116926913534    15.994914619560
           C          0.704720552316     0.637818939440    -0.109015913534    12.000000000000
           C         -0.786873447684     0.599027939440     0.096466086466    12.000000000000
           H          0.928407552316     1.088435939440    -1.069281913534     1.007825032070
           H          1.152898552316     1.280541939440     0.647997086466     1.007825032070
           C         -1.526144447684    -0.491908060560     0.106545086466    12.000000000000
           H         -1.251658447684     1.562238939440     0.240279086466     1.007825032070
           H         -1.099688447684    -1.465858060560    -0.051524913534     1.007825032070
           H         -2.589298447684    -0.445776060560     0.260006086466     1.007825032070

  Running in c1 symmetry.

  Rotational constants: A =      0.57699  B =      0.19842  C =      0.15374 [cm^-1]
  Rotational constants: A =  17297.75757  B =   5948.60138  C =   4609.10502 [MHz]
  Nuclear repulsion =  119.431980406810069

  Charge       = 0
  Multiplicity = 1
  Electrons    = 32
  Nalpha       = 16
  Nbeta        = 16

  ==> Algorithm <==

  SCF Algorithm Type is DF.
  DIIS enabled.
  MOM disabled.
  Fractional occupation disabled.
  Guess Type is CORE.
  Energy threshold   = 1.00e-06
  Density threshold  = 1.00e-06
  Integral threshold = 0.00e+00

  ==> Primary Basis <==

  Basis Set: 6-31G*
    Number of shells: 36
    Number of basis function: 72
    Number of Cartesian functions: 72
    Spherical Harmonics?: false
    Max angular momentum: 2

  ==> Pre-Iterations <==

   -------------------------------------------------------
    Irrep   Nso     Nmo     Nalpha   Nbeta   Ndocc  Nsocc
   -------------------------------------------------------
     A         72      72       0       0       0       0
   -------------------------------------------------------
    Total      72      72      16      16      16       0
   -------------------------------------------------------

 OEINTS: Overlap, kinetic, potential, dipole, and quadrupole integrals
         stored in file 35.

  ==> Integral Setup <==

  ==> DFJK: Density-Fitted J/K Matrices <==

    J tasked:                  Yes
    K tasked:                  Yes
    wK tasked:                  No
    OpenMP threads:              1
    Integrals threads:           1
    Memory (MB):              1430
    Algorithm:                Core
    Integral Cache:           NONE
    Schwarz Cutoff:          1E-12
    Fitting Condition:       1E-12

   => Auxiliary Basis Set <=

  Basis Set: 
    Number of shells: 150
    Number of basis function: 474
    Number of Cartesian functions: 474
    Spherical Harmonics?: false
    Max angular momentum: 3

  Minimum eigenvalue in the overlap matrix is 3.7247577498E-03.
  Using Symmetric Orthogonalization.
  SCF Guess: Core (One-Electron) Hamiltonian.

  ==> Iterations <==

                           Total Energy        Delta E     RMS |[F,P]|

   @DF-RHF iter   1:  -158.45092012964227   -1.58451e+02   8.91238e-02 
   @DF-RHF iter   2:  -123.15493995094498    3.52960e+01   8.06142e-02 DIIS
   @DF-RHF iter   3:  -167.85717207271352   -4.47022e+01   5.93182e-02 DIIS
   @DF-RHF iter   4:  -189.88640810507894   -2.20292e+01   2.73731e-02 DIIS
   @DF-RHF iter   5:  -191.84448911430650   -1.95808e+00   5.19734e-03 DIIS
   @DF-RHF iter   6:  -191.90639398932757   -6.19049e-02   1.86864e-03 DIIS
   @DF-RHF iter   7:  -191.91573946662874   -9.34548e-03   6.54692e-04 DIIS
   @DF-RHF iter   8:  -191.91710461072284   -1.36514e-03   1.31447e-04 DIIS
   @DF-RHF iter   9:  -191.91718473991642   -8.01292e-05   3.93930e-05 DIIS
   @DF-RHF iter  10:  -191.91719484211922   -1.01022e-05   1.40839e-05 DIIS
   @DF-RHF iter  11:  -191.91719635319845   -1.51108e-06   5.49916e-06 DIIS
   @DF-RHF iter  12:  -191.91719650028716   -1.47089e-07   2.30257e-06 DIIS
   @DF-RHF iter  13:  -191.91719652106195   -2.07748e-08   3.91669e-07 DIIS

  ==> Post-Iterations <==

    Orbital Energies (a.u.)
    -----------------------

    Doubly Occupied:                                                      

       1A    -20.560418     2A    -11.278422     3A    -11.232312  
       4A    -11.220617     5A     -1.369159     6A     -1.058798  
       7A     -0.929222     8A     -0.769708     9A     -0.686791  
      10A     -0.662526    11A     -0.617013    12A     -0.570328  
      13A     -0.540399    14A     -0.490951    15A     -0.448572  
      16A     -0.365769  

    Virtual:                                                              

      17A      0.183253    18A      0.232006    19A      0.265603  
      20A      0.292252    21A      0.318651    22A      0.335062  
      23A      0.351546    24A      0.395449    25A      0.470798  
      26A      0.530474    27A      0.733582    28A      0.768157  
      29A      0.780625    30A      0.818632    31A      0.859524  
      32A      0.900104    33A      0.908965    34A      0.911853  
      35A      1.017330    36A      1.078342    37A      1.128623  
      38A      1.158963    39A      1.169033    40A      1.197203  
      41A      1.210970    42A      1.264983    43A      1.337794  
      44A      1.361175    45A      1.409664    46A      1.461221  
      47A      1.526721    48A      1.690570    49A      1.783233  
      50A      1.810337    51A      1.953651    52A      1.980044  
      53A      2.032128    54A      2.170746    55A      2.269197  
      56A      2.282578    57A      2.375369    58A      2.473556  
      59A      2.524158    60A      2.528840    61A      2.698975  
      62A      2.744007    63A      2.782292    64A      2.830199  
      65A      2.879833    66A      3.102694    67A      3.215694  
      68A      3.325296    69A      4.191534    70A      4.537529  
      71A      4.640669    72A      4.854066  

    Final Occupation by Irrep:
              A 
    DOCC [    16 ]

  Energy converged.

  @DF-RHF Final Energy:  -191.91719652106195

   => Energetics <=

    Nuclear Repulsion Energy =            119.4319804068100694
    One-Electron Energy =                -497.0963878430005707
    Two-Electron Energy =                 185.7472109151287327
    DFT Exchange-Correlation Energy =       0.0000000000000000
    Empirical Dispersion Energy =           0.0000000000000000
    PCM Polarization Energy =               0.0000000000000000
    EFP Energy =                            0.0000000000000000
    Total Energy =                       -191.9171965210617827

    Alert: EFP and PCM quantities not currently incorporated into SCF psivars.

Properties will be evaluated at   0.000000,   0.000000,   0.000000 Bohr
  ==> Properties <==


Properties computed using the SCF density matrix

  Nuclear Dipole Moment: (a.u.)
     X:    -1.6022      Y:     0.9046      Z:     0.6899

  Electronic Dipole Moment: (a.u.)
     X:     1.2696      Y:    -0.6107      Z:    -0.1696

  Dipole Moment: (a.u.)
     X:    -0.3326      Y:     0.2939      Z:     0.5203     Total:     0.6839

  Dipole Moment: (Debye)
     X:    -0.8454      Y:     0.7469      Z:     1.3224     Total:     1.7382


  Saving occupied orbitals to File 180.

*** tstop() called on cx1-3-5-2.cx1.hpc.ic.ac.uk at Tue Jul  5 16:27:47 2016
Module time:
	user time   =       2.20 seconds =       0.04 minutes
	system time =       0.02 seconds =       0.00 minutes
	total time  =          3 seconds =       0.05 minutes
Total time:
	user time   =       2.20 seconds =       0.04 minutes
	system time =       0.02 seconds =       0.00 minutes
	total time  =          3 seconds =       0.05 minutes


Properties will be evaluated at   0.000000,   0.000000,   0.000000 Bohr

Properties computed using the  density matrix

  Nuclear Dipole Moment: (a.u.)
     X:    -1.6022      Y:     0.9046      Z:     0.6899

  Electronic Dipole Moment: (a.u.)
     X:     1.2696      Y:    -0.6107      Z:    -0.1696

  Dipole Moment: (a.u.)
     X:    -0.3326      Y:     0.2939      Z:     0.5203     Total:     0.6839

  Dipole Moment: (Debye)
     X:    -0.8454      Y:     0.7469      Z:     1.3224     Total:     1.7382

  Quadrupole Moment: (Debye Ang)
    XX:   -26.7592     YY:   -22.6439     ZZ:   -25.3923
    XY:     1.1029     XZ:     1.4609     YZ:    -1.8734

  Traceless Quadrupole Moment: (Debye Ang)
    XX:    -1.8274     YY:     2.2879     ZZ:    -0.4605
    XY:     1.1029     XZ:     1.4609     YZ:    -1.8734

  Mulliken Charges: (a.u.)
   Center  Symbol    Alpha    Beta     Spin     Total
       1     H     0.28100  0.28100  0.00000  0.43800
       2     O     4.36717  4.36717  0.00000 -0.73433
       3     C     2.99929  2.99929  0.00000  0.00143
       4     C     3.09372  3.09372  0.00000 -0.18744
       5     H     0.40816  0.40816  0.00000  0.18367
       6     H     0.42545  0.42545  0.00000  0.14910
       7     C     3.19810  3.19810  0.00000 -0.39621
       8     H     0.40969  0.40969  0.00000  0.18061
       9     H     0.40695  0.40695  0.00000  0.18610
      10     H     0.41046  0.41046  0.00000  0.17907

   Total alpha = 16.00000, Total beta = 16.00000, Total charge = -0.00000


*** PSI4 exiting successfully. Buy a developer a beer!
