    -----------------------------------------------------------------------
          Psi4: An Open-Source Ab Initio Electronic Structure Package
                              Psi4 (no tag) Driver

                          Git: Rev {detached?}  

    J. M. Turney, A. C. Simmonett, R. M. Parrish, E. G. Hohenstein,
    F. A. Evangelista, J. T. Fermann, B. J. Mintz, L. A. Burns, J. J. Wilke,
    M. L. Abrams, N. J. Russ, M. L. Leininger, C. L. Janssen, E. T. Seidl,
    W. D. Allen, H. F. Schaefer, R. A. King, E. F. Valeev, C. D. Sherrill,
    and T. D. Crawford, WIREs Comput. Mol. Sci. 2, 556-565 (2012)
    (doi: 10.1002/wcms.93)

                         Additional Contributions by
    A. E. DePrince, M. Saitow, U. Bozkaya, A. Yu. Sokolov
    -----------------------------------------------------------------------


    Psi4 started on: Tue Jul  5 16:28:05 2016

    Process ID:   4019
    PSI4DATADIR: /export131/home/mjharvey/miniconda3/share
    Memory level set to 256.000 MB

  ==> Input File <==

--------------------------------------------------------------------------
set {
	reference rhf
	basis 6-31G*
}


set_num_threads( 1 )
memory 2 gb

molecule MOL {
0 1

H	 -0.821032	 -1.655889	 0.000000
O	 -1.037828	 -0.728600	 0.000000
C	 0.100509	 -0.036935	 0.000000
C	 -0.145615	 1.444728	 0.000000
O	 1.164303	 -0.563779	 0.000000
H	 -0.723763	 1.718161	 -0.875040
H	 0.798372	 1.968216	 0.000000
H	 -0.723763	 1.718161	 0.875040

	symmetry c1
}
ee = energy('scf')
oeprop('DIPOLE', 'QUADRUPOLE', 'MULLIKEN_CHARGES')
f=open( 'psi4out.xyz', 'w' )
f.write( "8  " )
f.write( str(ee) + "\n" )
f.write( MOL.save_string_xyz() )
f.close()
--------------------------------------------------------------------------

  Memory set to   2.000 GiB by Python script.

*** tstart() called on cx1-1-4-4.cx1.hpc.ic.ac.uk
*** at Tue Jul  5 16:28:05 2016


         ---------------------------------------------------------
                                   SCF
            by Justin Turney, Rob Parrish, and Andy Simmonett
                              RHF Reference
                        1 Threads,   2000 MiB Core
         ---------------------------------------------------------

  ==> Geometry <==

    Molecular point group: c1
    Full point group: Cs

    Geometry (in Angstrom), charge = 0, multiplicity = 1:

       Center              X                  Y                   Z               Mass       
    ------------   -----------------  -----------------  -----------------  -----------------
           H         -0.821031909597    -1.655889108921     0.000000000000     1.007825032070
           O         -1.037827909597    -0.728600108921     0.000000000000    15.994914619560
           C          0.100509090403    -0.036935108921     0.000000000000    12.000000000000
           C         -0.145614909597     1.444727891079     0.000000000000    12.000000000000
           O          1.164303090403    -0.563779108921     0.000000000000    15.994914619560
           H         -0.723762909597     1.718160891079    -0.875040000000     1.007825032070
           H          0.798372090403     1.968215891079     0.000000000000     1.007825032070
           H         -0.723762909597     1.718160891079     0.875040000000     1.007825032070

  Running in c1 symmetry.

  Rotational constants: A =      0.39042  B =      0.31910  C =      0.18142 [cm^-1]
  Rotational constants: A =  11704.40699  B =   9566.44123  C =   5438.85587 [MHz]
  Nuclear repulsion =  122.455384859535130

  Charge       = 0
  Multiplicity = 1
  Electrons    = 32
  Nalpha       = 16
  Nbeta        = 16

  ==> Algorithm <==

  SCF Algorithm Type is DF.
  DIIS enabled.
  MOM disabled.
  Fractional occupation disabled.
  Guess Type is CORE.
  Energy threshold   = 1.00e-06
  Density threshold  = 1.00e-06
  Integral threshold = 0.00e+00

  ==> Primary Basis <==

  Basis Set: 6-31G*
    Number of shells: 32
    Number of basis function: 68
    Number of Cartesian functions: 68
    Spherical Harmonics?: false
    Max angular momentum: 2

  ==> Pre-Iterations <==

   -------------------------------------------------------
    Irrep   Nso     Nmo     Nalpha   Nbeta   Ndocc  Nsocc
   -------------------------------------------------------
     A         68      68       0       0       0       0
   -------------------------------------------------------
    Total      68      68      16      16      16       0
   -------------------------------------------------------

 OEINTS: Overlap, kinetic, potential, dipole, and quadrupole integrals
         stored in file 35.

  ==> Integral Setup <==

  ==> DFJK: Density-Fitted J/K Matrices <==

    J tasked:                  Yes
    K tasked:                  Yes
    wK tasked:                  No
    OpenMP threads:              1
    Integrals threads:           1
    Memory (MB):              1430
    Algorithm:                Core
    Integral Cache:           NONE
    Schwarz Cutoff:          1E-12
    Fitting Condition:       1E-12

   => Auxiliary Basis Set <=

  Basis Set: 
    Number of shells: 132
    Number of basis function: 424
    Number of Cartesian functions: 424
    Spherical Harmonics?: false
    Max angular momentum: 3

  Minimum eigenvalue in the overlap matrix is 4.2575527890E-03.
  Using Symmetric Orthogonalization.
  SCF Guess: Core (One-Electron) Hamiltonian.

  ==> Iterations <==

                           Total Energy        Delta E     RMS |[F,P]|

   @DF-RHF iter   1:  -189.94969719963046   -1.89950e+02   9.53447e-02 
   @DF-RHF iter   2:  -145.86215515949493    4.40875e+01   8.21460e-02 DIIS
   @DF-RHF iter   3:  -207.82314949131199   -6.19610e+01   6.57660e-02 DIIS
   @DF-RHF iter   4:  -222.53418638830567   -1.47110e+01   3.62552e-02 DIIS
   @DF-RHF iter   5:  -227.36420157099712   -4.83002e+00   1.22578e-02 DIIS
   @DF-RHF iter   6:  -227.72838834668670   -3.64187e-01   5.20395e-03 DIIS
   @DF-RHF iter   7:  -227.79609885176473   -6.77105e-02   1.95436e-03 DIIS
   @DF-RHF iter   8:  -227.80917831088959   -1.30795e-02   5.78049e-04 DIIS
   @DF-RHF iter   9:  -227.80995074916086   -7.72438e-04   3.29169e-04 DIIS
   @DF-RHF iter  10:  -227.81022622362417   -2.75474e-04   1.47609e-04 DIIS
   @DF-RHF iter  11:  -227.81028250824704   -5.62846e-05   4.67248e-05 DIIS
   @DF-RHF iter  12:  -227.81029001959098   -7.51134e-06   9.15898e-06 DIIS
   @DF-RHF iter  13:  -227.81029036082180   -3.41231e-07   1.62530e-06 DIIS
   @DF-RHF iter  14:  -227.81029037309406   -1.22723e-08   3.79515e-07 DIIS

  ==> Post-Iterations <==

    Orbital Energies (a.u.)
    -----------------------

    Doubly Occupied:                                                      

       1A    -20.615419     2A    -20.553217     3A    -11.386005  
       4A    -11.240478     5A     -1.477191     6A     -1.368145  
       7A     -1.027184     8A     -0.831592     9A     -0.702631  
      10A     -0.683103    11A     -0.653687    12A     -0.581692  
      13A     -0.572237    14A     -0.562241    15A     -0.480344  
      16A     -0.449140  

    Virtual:                                                              

      17A      0.193136    18A      0.226863    19A      0.259326  
      20A      0.309115    21A      0.328769    22A      0.398399  
      23A      0.479573    24A      0.523267    25A      0.730806  
      26A      0.763463    27A      0.808758    28A      0.820788  
      29A      0.824645    30A      0.952995    31A      1.004778  
      32A      1.071205    33A      1.106946    34A      1.125694  
      35A      1.163192    36A      1.209846    37A      1.213163  
      38A      1.250428    39A      1.325819    40A      1.328927  
      41A      1.350870    42A      1.598114    43A      1.636081  
      44A      1.676070    45A      1.764116    46A      1.859014  
      47A      2.001116    48A      2.027586    49A      2.096694  
      50A      2.101052    51A      2.145812    52A      2.243894  
      53A      2.302210    54A      2.384852    55A      2.535470  
      56A      2.555543    57A      2.652538    58A      2.795929  
      59A      2.823099    60A      3.010715    61A      3.084341  
      62A      3.228937    63A      3.358859    64A      3.468035  
      65A      4.228828    66A      4.461906    67A      4.587195  
      68A      4.856733  

    Final Occupation by Irrep:
              A 
    DOCC [    16 ]

  Energy converged.

  @DF-RHF Final Energy:  -227.81029037309406

   => Energetics <=

    Nuclear Repulsion Energy =            122.4553848595351297
    One-Electron Energy =                -554.1627178051719511
    Two-Electron Energy =                 203.8970425725429436
    DFT Exchange-Correlation Energy =       0.0000000000000000
    Empirical Dispersion Energy =           0.0000000000000000
    PCM Polarization Energy =               0.0000000000000000
    EFP Energy =                            0.0000000000000000
    Total Energy =                       -227.8102903730938920

    Alert: EFP and PCM quantities not currently incorporated into SCF psivars.

Properties will be evaluated at   0.000000,   0.000000,   0.000000 Bohr
  ==> Properties <==


Properties computed using the SCF density matrix

  Nuclear Dipole Moment: (a.u.)
     X:    -1.3776      Y:     3.5080      Z:     0.0000

  Electronic Dipole Moment: (a.u.)
     X:     0.7259      Y:    -3.2358      Z:     0.0000

  Dipole Moment: (a.u.)
     X:    -0.6518      Y:     0.2722      Z:     0.0000     Total:     0.7063

  Dipole Moment: (Debye)
     X:    -1.6566      Y:     0.6918      Z:     0.0000     Total:     1.7953


  Saving occupied orbitals to File 180.

*** tstop() called on cx1-1-4-4.cx1.hpc.ic.ac.uk at Tue Jul  5 16:28:08 2016
Module time:
	user time   =       1.87 seconds =       0.03 minutes
	system time =       0.03 seconds =       0.00 minutes
	total time  =          3 seconds =       0.05 minutes
Total time:
	user time   =       1.87 seconds =       0.03 minutes
	system time =       0.03 seconds =       0.00 minutes
	total time  =          3 seconds =       0.05 minutes


Properties will be evaluated at   0.000000,   0.000000,   0.000000 Bohr

Properties computed using the  density matrix

  Nuclear Dipole Moment: (a.u.)
     X:    -1.3776      Y:     3.5080      Z:     0.0000

  Electronic Dipole Moment: (a.u.)
     X:     0.7259      Y:    -3.2358      Z:     0.0000

  Dipole Moment: (a.u.)
     X:    -0.6518      Y:     0.2722      Z:     0.0000     Total:     0.7063

  Dipole Moment: (Debye)
     X:    -1.6566      Y:     0.6918      Z:     0.0000     Total:     1.7953

  Quadrupole Moment: (Debye Ang)
    XX:   -28.6204     YY:   -18.5960     ZZ:   -22.7752
    XY:     2.1748     XZ:    -0.0000     YZ:     0.0000

  Traceless Quadrupole Moment: (Debye Ang)
    XX:    -5.2899     YY:     4.7345     ZZ:     0.5553
    XY:     2.1748     XZ:    -0.0000     YZ:     0.0000

  Mulliken Charges: (a.u.)
   Center  Symbol    Alpha    Beta     Spin     Total
       1     H     0.26723  0.26723  0.00000  0.46554
       2     O     4.34415  4.34415  0.00000 -0.68830
       3     C     2.63798  2.63798  0.00000  0.72403
       4     C     3.28514  3.28514  0.00000 -0.57028
       5     O     4.27559  4.27559  0.00000 -0.55119
       6     H     0.39770  0.39770  0.00000  0.20461
       7     H     0.39451  0.39451  0.00000  0.21098
       8     H     0.39770  0.39770  0.00000  0.20461

   Total alpha = 16.00000, Total beta = 16.00000, Total charge = -0.00000


*** PSI4 exiting successfully. Buy a developer a beer!
