    -----------------------------------------------------------------------
          Psi4: An Open-Source Ab Initio Electronic Structure Package
                              Psi4 (no tag) Driver

                          Git: Rev {detached?}  

    J. M. Turney, A. C. Simmonett, R. M. Parrish, E. G. Hohenstein,
    F. A. Evangelista, J. T. Fermann, B. J. Mintz, L. A. Burns, J. J. Wilke,
    M. L. Abrams, N. J. Russ, M. L. Leininger, C. L. Janssen, E. T. Seidl,
    W. D. Allen, H. F. Schaefer, R. A. King, E. F. Valeev, C. D. Sherrill,
    and T. D. Crawford, WIREs Comput. Mol. Sci. 2, 556-565 (2012)
    (doi: 10.1002/wcms.93)

                         Additional Contributions by
    A. E. DePrince, M. Saitow, U. Bozkaya, A. Yu. Sokolov
    -----------------------------------------------------------------------


    Psi4 started on: Tue Jul  5 17:17:49 2016

    Process ID:  20073
    PSI4DATADIR: /export131/home/mjharvey/miniconda3/share
    Memory level set to 256.000 MB

  ==> Input File <==

--------------------------------------------------------------------------
set {
	reference rhf
	basis 6-31G*
}


set_num_threads( 1 )
memory 2 gb

molecule MOL {
0 1

H	 -2.646374	 -0.642757	 1.268656
C	 -2.083525	 -0.384536	 0.393091
O	 -0.807605	 -0.127164	 0.768327
F	 -2.118945	 -1.383102	 -0.486752
F	 -2.621877	 0.670592	 -0.209486
C	 0.171903	 -1.023338	 0.380871
C	 0.018440	 -1.228149	 -1.120682
Cl	 -0.003644	 -2.561457	 1.241444
H	 1.164112	 -0.653633	 0.572215
F	 -1.096101	 -1.876479	 -1.384509
F	 1.027891	 -1.956026	 -1.555012
F	 0.012268	 -0.093436	 -1.776702

	symmetry c1
}
set optking {
	frozen_dihedral = ("
		10 7 6 9,
		9 6 3 2
	")
}

ee = energy('scf')
oeprop('DIPOLE', 'QUADRUPOLE', 'MULLIKEN_CHARGES')
f=open( 'psi4out.xyz', 'w' )
f.write( "12  " )
f.write( str(ee) + "\n" )
f.write( MOL.save_string_xyz() )
f.close()
--------------------------------------------------------------------------

  Memory set to   2.000 GiB by Python script.

*** tstart() called on cx1-3-4-4.cx1.hpc.ic.ac.uk
*** at Tue Jul  5 17:17:49 2016


         ---------------------------------------------------------
                                   SCF
            by Justin Turney, Rob Parrish, and Andy Simmonett
                              RHF Reference
                        1 Threads,   2000 MiB Core
         ---------------------------------------------------------

  ==> Geometry <==

    Molecular point group: c1
    Full point group: C1

    Geometry (in Angstrom), charge = 0, multiplicity = 1:

       Center              X                  Y                   Z               Mass       
    ------------   -----------------  -----------------  -----------------  -----------------
           H         -1.948505322902     0.513222265387     1.537351430519     1.007825032070
           C         -1.385656322902     0.771443265387     0.661786430519    12.000000000000
           O         -0.109736322902     1.028815265387     1.037022430519    15.994914619560
           F         -1.421076322902    -0.227122734613    -0.218056569481    18.998403224000
           F         -1.924008322902     1.826571265387     0.059209430519    18.998403224000
           C          0.869771677098     0.132641265387     0.649566430519    12.000000000000
           C          0.716308677098    -0.072169734613    -0.851986569481    12.000000000000
          CL          0.694224677098    -1.405477734613     1.510139430519    34.968852682000
           H          1.861980677098     0.502346265387     0.840910430519     1.007825032070
           F         -0.398232322902    -0.720499734613    -1.115813569481    18.998403224000
           F          1.725759677098    -0.800046734613    -1.286316569481    18.998403224000
           F          0.710136677098     1.062543265387    -1.508006569481    18.998403224000

  Running in c1 symmetry.

  Rotational constants: A =      0.05226  B =      0.03976  C =      0.02933 [cm^-1]
  Rotational constants: A =   1566.84863  B =   1191.93412  C =    879.36541 [MHz]
  Nuclear repulsion =  790.512640793113292

  Charge       = 0
  Multiplicity = 1
  Electrons    = 90
  Nalpha       = 45
  Nbeta        = 45

  ==> Algorithm <==

  SCF Algorithm Type is DF.
  DIIS enabled.
  MOM disabled.
  Fractional occupation disabled.
  Guess Type is CORE.
  Energy threshold   = 1.00e-06
  Density threshold  = 1.00e-06
  Integral threshold = 0.00e+00

  ==> Primary Basis <==

  Basis Set: 6-31G*
    Number of shells: 66
    Number of basis function: 158
    Number of Cartesian functions: 158
    Spherical Harmonics?: false
    Max angular momentum: 2

  ==> Pre-Iterations <==

   -------------------------------------------------------
    Irrep   Nso     Nmo     Nalpha   Nbeta   Ndocc  Nsocc
   -------------------------------------------------------
     A        158     158       0       0       0       0
   -------------------------------------------------------
    Total     158     158      45      45      45       0
   -------------------------------------------------------

 OEINTS: Overlap, kinetic, potential, dipole, and quadrupole integrals
         stored in file 35.

  ==> Integral Setup <==

  ==> DFJK: Density-Fitted J/K Matrices <==

    J tasked:                  Yes
    K tasked:                  Yes
    wK tasked:                  No
    OpenMP threads:              1
    Integrals threads:           1
    Memory (MB):              1430
    Algorithm:                Core
    Integral Cache:           NONE
    Schwarz Cutoff:          1E-12
    Fitting Condition:       1E-12

   => Auxiliary Basis Set <=

  Basis Set: 
    Number of shells: 270
    Number of basis function: 909
    Number of Cartesian functions: 909
    Spherical Harmonics?: false
    Max angular momentum: 3

  Minimum eigenvalue in the overlap matrix is 1.4019214237E-03.
  Using Symmetric Orthogonalization.
  SCF Guess: Core (One-Electron) Hamiltonian.

  ==> Iterations <==

                           Total Energy        Delta E     RMS |[F,P]|

   @DF-RHF iter   1: -1054.00034481605735   -1.05400e+03   7.08171e-02 
   @DF-RHF iter   2:  -927.60080264382771    1.26400e+02   7.85751e-02 DIIS
   @DF-RHF iter   3: -1092.95158518222524   -1.65351e+02   4.05677e-02 DIIS
   @DF-RHF iter   4: -1059.48501238038261    3.34666e+01   6.50975e-02 DIIS
   @DF-RHF iter   5: -1144.23322548799979   -8.47482e+01   1.43509e-02 DIIS
   @DF-RHF iter   6: -1145.86313157922314   -1.62991e+00   4.66454e-03 DIIS
   @DF-RHF iter   7: -1146.00509996486335   -1.41968e-01   1.69517e-03 DIIS
   @DF-RHF iter   8: -1146.02872088955064   -2.36209e-02   8.38806e-04 DIIS
   @DF-RHF iter   9: -1146.03555787451023   -6.83698e-03   2.72304e-04 DIIS
   @DF-RHF iter  10: -1146.03642221936889   -8.64345e-04   6.55933e-05 DIIS
   @DF-RHF iter  11: -1146.03649262447516   -7.04051e-05   1.99652e-05 DIIS
   @DF-RHF iter  12: -1146.03649894129148   -6.31682e-06   7.77801e-06 DIIS
   @DF-RHF iter  13: -1146.03649999392201   -1.05263e-06   1.55225e-06 DIIS
   @DF-RHF iter  14: -1146.03650004896690   -5.50449e-08   4.78954e-07 DIIS

  ==> Post-Iterations <==

    Orbital Energies (a.u.)
    -----------------------

    Doubly Occupied:                                                      

       1A   -104.850286     2A    -26.364627     3A    -26.351989  
       4A    -26.330523     5A    -26.306899     6A    -26.304151  
       7A    -20.643617     8A    -11.521016     9A    -11.470130  
      10A    -11.406620    11A    -10.585272    12A     -8.054609  
      13A     -8.051119    14A     -8.050988    15A     -1.796481  
      16A     -1.725605    17A     -1.666616    18A     -1.656245  
      19A     -1.589985    20A     -1.485804    21A     -1.181945  
      22A     -1.049211    23A     -1.032530    24A     -0.906651  
      25A     -0.892801    26A     -0.870922    27A     -0.850727  
      28A     -0.817713    29A     -0.786969    30A     -0.769413  
      31A     -0.747968    32A     -0.730039    33A     -0.699668  
      34A     -0.694295    35A     -0.678080    36A     -0.677303  
      37A     -0.665652    38A     -0.647976    39A     -0.622278  
      40A     -0.603262    41A     -0.565685    42A     -0.514791  
      43A     -0.484262    44A     -0.477153    45A     -0.453370  

    Virtual:                                                              

      46A      0.167298    47A      0.236772    48A      0.260991  
      49A      0.275776    50A      0.350471    51A      0.387356  
      52A      0.403033    53A      0.420631    54A      0.447546  
      55A      0.464993    56A      0.516279    57A      0.543127  
      58A      0.617891    59A      0.621217    60A      0.630508  
      61A      0.678598    62A      0.700508    63A      0.718126  
      64A      0.749840    65A      0.761601    66A      0.767534  
      67A      0.780566    68A      0.856153    69A      0.912060  
      70A      1.007944    71A      1.057812    72A      1.069366  
      73A      1.097883    74A      1.118225    75A      1.144163  
      76A      1.157287    77A      1.186955    78A      1.257452  
      79A      1.279902    80A      1.288438    81A      1.323793  
      82A      1.338946    83A      1.380416    84A      1.388417  
      85A      1.452687    86A      1.474156    87A      1.495340  
      88A      1.539007    89A      1.554990    90A      1.594400  
      91A      1.611490    92A      1.618321    93A      1.636126  
      94A      1.649939    95A      1.668048    96A      1.673646  
      97A      1.683354    98A      1.714573    99A      1.746423  
     100A      1.811536   101A      1.846385   102A      1.909049  
     103A      1.950654   104A      1.964220   105A      2.014028  
     106A      2.032406   107A      2.048253   108A      2.080074  
     109A      2.090422   110A      2.106685   111A      2.110354  
     112A      2.150157   113A      2.163845   114A      2.243878  
     115A      2.258098   116A      2.270703   117A      2.287863  
     118A      2.326579   119A      2.368385   120A      2.373808  
     121A      2.392973   122A      2.422365   123A      2.431794  
     124A      2.488012   125A      2.504055   126A      2.525656  
     127A      2.567005   128A      2.602786   129A      2.623970  
     130A      2.668990   131A      2.699032   132A      2.794524  
     133A      2.848772   134A      2.885158   135A      2.948907  
     136A      3.026034   137A      3.052425   138A      3.128985  
     139A      3.164801   140A      3.206796   141A      3.289765  
     142A      3.332634   143A      3.406686   144A      3.430857  
     145A      3.459246   146A      3.507489   147A      3.580969  
     148A      4.080063   149A      4.365635   150A      4.595837  
     151A      4.677488   152A      4.703006   153A      4.815307  
     154A      4.908577   155A      5.124975   156A      5.794693  
     157A      5.873657   158A      6.598053  

    Final Occupation by Irrep:
              A 
    DOCC [    45 ]

  Energy converged.

  @DF-RHF Final Energy: -1146.03650004896690

   => Energetics <=

    Nuclear Repulsion Energy =            790.5126407931132917
    One-Electron Energy =               -3163.8315912025850594
    Two-Electron Energy =                1227.2824503605054360
    DFT Exchange-Correlation Energy =       0.0000000000000000
    Empirical Dispersion Energy =           0.0000000000000000
    PCM Polarization Energy =               0.0000000000000000
    EFP Energy =                            0.0000000000000000
    Total Energy =                      -1146.0365000489662179

    Alert: EFP and PCM quantities not currently incorporated into SCF psivars.

Properties will be evaluated at   0.000000,   0.000000,   0.000000 Bohr
  ==> Properties <==


Properties computed using the SCF density matrix

  Nuclear Dipole Moment: (a.u.)
     X:     0.5162      Y:     1.1668      Z:     4.6906

  Electronic Dipole Moment: (a.u.)
     X:    -0.2519      Y:    -1.0941      Z:    -4.0490

  Dipole Moment: (a.u.)
     X:     0.2643      Y:     0.0727      Z:     0.6416     Total:     0.6977

  Dipole Moment: (Debye)
     X:     0.6718      Y:     0.1849      Z:     1.6308     Total:     1.7734


  Saving occupied orbitals to File 180.

*** tstop() called on cx1-3-4-4.cx1.hpc.ic.ac.uk at Tue Jul  5 17:18:08 2016
Module time:
	user time   =      17.80 seconds =       0.30 minutes
	system time =       0.22 seconds =       0.00 minutes
	total time  =         19 seconds =       0.32 minutes
Total time:
	user time   =      17.80 seconds =       0.30 minutes
	system time =       0.22 seconds =       0.00 minutes
	total time  =         19 seconds =       0.32 minutes


Properties will be evaluated at   0.000000,   0.000000,   0.000000 Bohr

Properties computed using the  density matrix

  Nuclear Dipole Moment: (a.u.)
     X:     0.5162      Y:     1.1668      Z:     4.6906

  Electronic Dipole Moment: (a.u.)
     X:    -0.2519      Y:    -1.0941      Z:    -4.0490

  Dipole Moment: (a.u.)
     X:     0.2643      Y:     0.0727      Z:     0.6416     Total:     0.6977

  Dipole Moment: (Debye)
     X:     0.6718      Y:     0.1849      Z:     1.6308     Total:     1.7734

  Quadrupole Moment: (Debye Ang)
    XX:   -56.9079     YY:   -63.9516     ZZ:   -60.5593
    XY:     2.7760     XZ:    -1.0494     YZ:     0.2643

  Traceless Quadrupole Moment: (Debye Ang)
    XX:     3.5651     YY:    -3.4787     ZZ:    -0.0864
    XY:     2.7760     XZ:    -1.0494     YZ:     0.2643

  Mulliken Charges: (a.u.)
   Center  Symbol    Alpha    Beta     Spin     Total
       1     H     0.41279  0.41279  0.00000  0.17441
       2     C     2.57081  2.57081  0.00000  0.85838
       3     O     4.31039  4.31039  0.00000 -0.62079
       4     F     4.66477  4.66477  0.00000 -0.32953
       5     F     4.68253  4.68253  0.00000 -0.36505
       6     C     3.02869  3.02869  0.00000 -0.05739
       7     C     2.45625  2.45625  0.00000  1.08750
       8    CL     8.50458  8.50458  0.00000 -0.00916
       9     H     0.36049  0.36049  0.00000  0.27901
      10     F     4.65839  4.65839  0.00000 -0.31677
      11     F     4.67813  4.67813  0.00000 -0.35626
      12     F     4.67218  4.67218  0.00000 -0.34436

   Total alpha = 45.00000, Total beta = 45.00000, Total charge =  0.00000


*** PSI4 exiting successfully. Buy a developer a beer!
