    -----------------------------------------------------------------------
          Psi4: An Open-Source Ab Initio Electronic Structure Package
                              Psi4 (no tag) Driver

                          Git: Rev {detached?}  

    J. M. Turney, A. C. Simmonett, R. M. Parrish, E. G. Hohenstein,
    F. A. Evangelista, J. T. Fermann, B. J. Mintz, L. A. Burns, J. J. Wilke,
    M. L. Abrams, N. J. Russ, M. L. Leininger, C. L. Janssen, E. T. Seidl,
    W. D. Allen, H. F. Schaefer, R. A. King, E. F. Valeev, C. D. Sherrill,
    and T. D. Crawford, WIREs Comput. Mol. Sci. 2, 556-565 (2012)
    (doi: 10.1002/wcms.93)

                         Additional Contributions by
    A. E. DePrince, M. Saitow, U. Bozkaya, A. Yu. Sokolov
    -----------------------------------------------------------------------


    Psi4 started on: Tue Jul  5 17:06:06 2016

    Process ID:  28365
    PSI4DATADIR: /export131/home/mjharvey/miniconda3/share
    Memory level set to 256.000 MB

  ==> Input File <==

--------------------------------------------------------------------------
set {
	reference rhf
	basis 6-31G*
}


set_num_threads( 1 )
memory 2 gb

molecule MOL {
0 1

O	 3.225979	 0.970355	 -0.599647
C	 2.701189	 0.057885	 -0.047330
C	 1.245376	 -0.013843	 0.345420
O	 3.347903	 -1.046386	 0.304773
C	 0.455112	 1.231400	 -0.050772
H	 0.838542	 -0.913825	 -0.103701
H	 1.208210	 -0.175333	 1.419774
C	 -0.998893	 1.219485	 0.433193
H	 0.482531	 1.345121	 -1.130325
H	 0.957290	 2.103070	 0.354729
C	 -1.883438	 0.145884	 -0.207175
H	 -1.431207	 2.195402	 0.224832
H	 -1.019646	 1.105716	 1.516076
C	 -3.347647	 0.245583	 0.225435
H	 -1.822183	 0.231698	 -1.291012
H	 -1.510341	 -0.844814	 0.042401
C	 -4.239992	 -0.825570	 -0.404234
H	 -3.732888	 1.230466	 -0.033079
H	 -3.408585	 0.170602	 1.310038
C	 -3.938021	 -1.060571	 -1.883859
H	 -4.120441	 -1.759479	 0.140894
H	 -5.283106	 -0.537845	 -0.290620
H	 -4.586332	 -1.824669	 -2.301537
H	 -2.910840	 -1.383633	 -2.027821
H	 -4.081895	 -0.152389	 -2.462460
C	 4.728119	 -1.109107	 -0.004993
H	 4.882018	 -1.033965	 -1.071845
H	 5.068212	 -2.067527	 0.355250
H	 5.265056	 -0.311663	 0.488280

	symmetry c1
}
set optking {
	frozen_dihedral = ("
		17 14 11 15,
		15 11 8 5,
		6 3 5 9,
		11 8 5 9,
		2 4 26 27,
		1 2 4 26,
		6 3 2 1
	")
}

ee = energy('scf')
oeprop('DIPOLE', 'QUADRUPOLE', 'MULLIKEN_CHARGES')
f=open( 'psi4out.xyz', 'w' )
f.write( "29  " )
f.write( str(ee) + "\n" )
f.write( MOL.save_string_xyz() )
f.close()
--------------------------------------------------------------------------

  Memory set to   2.000 GiB by Python script.

*** tstart() called on cx1-3-14-1.cx1.hpc.ic.ac.uk
*** at Tue Jul  5 17:06:07 2016


         ---------------------------------------------------------
                                   SCF
            by Justin Turney, Rob Parrish, and Andy Simmonett
                              RHF Reference
                        1 Threads,   2000 MiB Core
         ---------------------------------------------------------

  ==> Geometry <==

    Molecular point group: c1
    Full point group: C1

    Geometry (in Angstrom), charge = 0, multiplicity = 1:

       Center              X                  Y                   Z               Mass       
    ------------   -----------------  -----------------  -----------------  -----------------
           O          3.058486189667     1.003023865668    -0.417857981394    15.994914619560
           C          2.533696189667     0.090553865668     0.134459018606    12.000000000000
           C          1.077883189667     0.018825865668     0.527209018606    12.000000000000
           O          3.180410189667    -1.013717134332     0.486562018606    15.994914619560
           C          0.287619189667     1.264068865668     0.131017018606    12.000000000000
           H          0.671049189667    -0.881156134332     0.078088018606     1.007825032070
           H          1.040717189667    -0.142664134332     1.601563018606     1.007825032070
           C         -1.166385810333     1.252153865668     0.614982018606    12.000000000000
           H          0.315038189667     1.377789865668    -0.948535981394     1.007825032070
           H          0.789797189667     2.135738865668     0.536518018606     1.007825032070
           C         -2.050930810333     0.178552865668    -0.025385981394    12.000000000000
           H         -1.598699810333     2.228070865668     0.406621018606     1.007825032070
           H         -1.187138810333     1.138384865668     1.697865018606     1.007825032070
           C         -3.515139810333     0.278251865668     0.407224018606    12.000000000000
           H         -1.989675810333     0.264366865668    -1.109222981394     1.007825032070
           H         -1.677833810333    -0.812145134332     0.224190018606     1.007825032070
           C         -4.407484810333    -0.792901134332    -0.222444981394    12.000000000000
           H         -3.900380810333     1.263134865668     0.148710018606     1.007825032070
           H         -3.576077810333     0.203270865668     1.491827018606     1.007825032070
           C         -4.105513810333    -1.027902134332    -1.702069981394    12.000000000000
           H         -4.287933810333    -1.726810134332     0.322683018606     1.007825032070
           H         -5.450598810333    -0.505176134332    -0.108830981394     1.007825032070
           H         -4.753824810333    -1.792000134332    -2.119747981394     1.007825032070
           H         -3.078332810333    -1.350964134332    -1.846031981394     1.007825032070
           H         -4.249387810333    -0.119720134332    -2.280670981394     1.007825032070
           C          4.560626189667    -1.076438134332     0.176796018606    12.000000000000
           H          4.714525189667    -1.001296134332    -0.890055981394     1.007825032070
           H          4.900719189667    -2.034858134332     0.537039018606     1.007825032070
           H          5.097563189667    -0.278994134332     0.670069018606     1.007825032070

  Running in c1 symmetry.

  Rotational constants: A =      0.08264  B =      0.01064  C =      0.01009 [cm^-1]
  Rotational constants: A =   2477.38556  B =    318.83274  C =    302.42127 [MHz]
  Nuclear repulsion =  619.539846648057392

  Charge       = 0
  Multiplicity = 1
  Electrons    = 88
  Nalpha       = 44
  Nbeta        = 44

  ==> Algorithm <==

  SCF Algorithm Type is DF.
  DIIS enabled.
  MOM disabled.
  Fractional occupation disabled.
  Guess Type is CORE.
  Energy threshold   = 1.00e-06
  Density threshold  = 1.00e-06
  Integral threshold = 0.00e+00

  ==> Primary Basis <==

  Basis Set: 6-31G*
    Number of shells: 102
    Number of basis function: 201
    Number of Cartesian functions: 201
    Spherical Harmonics?: false
    Max angular momentum: 2

  ==> Pre-Iterations <==

   -------------------------------------------------------
    Irrep   Nso     Nmo     Nalpha   Nbeta   Ndocc  Nsocc
   -------------------------------------------------------
     A        201     201       0       0       0       0
   -------------------------------------------------------
    Total     201     201      44      44      44       0
   -------------------------------------------------------

 OEINTS: Overlap, kinetic, potential, dipole, and quadrupole integrals
         stored in file 35.

  ==> Integral Setup <==

  ==> DFJK: Density-Fitted J/K Matrices <==

    J tasked:                  Yes
    K tasked:                  Yes
    wK tasked:                  No
    OpenMP threads:              1
    Integrals threads:           1
    Memory (MB):              1430
    Algorithm:                Core
    Integral Cache:           NONE
    Schwarz Cutoff:          1E-12
    Fitting Condition:       1E-12

   => Auxiliary Basis Set <=

  Basis Set: 
    Number of shells: 426
    Number of basis function: 1341
    Number of Cartesian functions: 1341
    Spherical Harmonics?: false
    Max angular momentum: 3

  Minimum eigenvalue in the overlap matrix is 2.4890122027E-03.
  Using Symmetric Orthogonalization.
  SCF Guess: Core (One-Electron) Hamiltonian.

  ==> Iterations <==

                           Total Energy        Delta E     RMS |[F,P]|

   @DF-RHF iter   1:  -325.45794932185424   -3.25458e+02   5.93976e-02 
   @DF-RHF iter   2:    87.53098079343556    4.12989e+02   8.52768e-02 DIIS
   @DF-RHF iter   3:  -210.98633165640683   -2.98517e+02   5.82900e-02 DIIS
   @DF-RHF iter   4:  -306.60379122475865   -9.56175e+01   5.24530e-02 DIIS
   @DF-RHF iter   5:  -352.55005767263708   -4.59463e+01   5.34324e-02 DIIS
   @DF-RHF iter   6:  -485.05177370868546   -1.32502e+02   1.31052e-02 DIIS
   @DF-RHF iter   7:  -420.11409028575554    6.49377e+01   3.39996e-02 DIIS
   @DF-RHF iter   8:  -499.95550074592961   -7.98414e+01   7.50575e-03 DIIS
   @DF-RHF iter   9:  -500.96661761477708   -1.01112e+00   1.61453e-03 DIIS
   @DF-RHF iter  10:  -501.02682503623419   -6.02074e-02   7.93406e-04 DIIS
   @DF-RHF iter  11:  -501.03581414532982   -8.98911e-03   3.16017e-04 DIIS
   @DF-RHF iter  12:  -501.03822953337544   -2.41539e-03   1.23985e-04 DIIS
   @DF-RHF iter  13:  -501.03871401365132   -4.84480e-04   4.99153e-05 DIIS
   @DF-RHF iter  14:  -501.03877976023227   -6.57466e-05   2.15497e-05 DIIS
   @DF-RHF iter  15:  -501.03879394983005   -1.41896e-05   3.48808e-06 DIIS
   @DF-RHF iter  16:  -501.03879432538133   -3.75551e-07   1.08759e-06 DIIS
   @DF-RHF iter  17:  -501.03879436598072   -4.05994e-08   3.55355e-07 DIIS

  ==> Post-Iterations <==

    Orbital Energies (a.u.)
    -----------------------

    Doubly Occupied:                                                      

       1A    -20.603361     2A    -20.545182     3A    -11.371968  
       4A    -11.280659     5A    -11.234702     6A    -11.218889  
       7A    -11.217161     8A    -11.215617     9A    -11.214924  
      10A    -11.214072    11A    -11.208161    12A     -1.469055  
      13A     -1.362494    14A     -1.099074    15A     -1.068023  
      16A     -1.017074    17A     -0.974330    18A     -0.927489  
      19A     -0.873553    20A     -0.804778    21A     -0.775188  
      22A     -0.763386    23A     -0.700384    24A     -0.682340  
      25A     -0.672104    26A     -0.647406    27A     -0.627331  
      28A     -0.609754    29A     -0.601453    30A     -0.585222  
      31A     -0.558055    32A     -0.551507    33A     -0.541201  
      34A     -0.525829    35A     -0.518733    36A     -0.505578  
      37A     -0.500112    38A     -0.476963    39A     -0.471991  
      40A     -0.458169    41A     -0.455651    42A     -0.451084  
      43A     -0.442993    44A     -0.435896  

    Virtual:                                                              

      45A      0.199111    46A      0.223557    47A      0.240513  
      48A      0.259071    49A      0.263967    50A      0.265199  
      51A      0.288938    52A      0.297368    53A      0.302661  
      54A      0.309253    55A      0.316588    56A      0.320441  
      57A      0.323012    58A      0.330117    59A      0.338416  
      60A      0.344686    61A      0.353848    62A      0.361461  
      63A      0.372849    64A      0.383423    65A      0.391740  
      66A      0.406144    67A      0.426459    68A      0.448643  
      69A      0.457237    70A      0.477636    71A      0.492912  
      72A      0.537168    73A      0.586680    74A      0.710069  
      75A      0.722634    76A      0.725899    77A      0.730063  
      78A      0.733760    79A      0.746973    80A      0.766737  
      81A      0.777795    82A      0.790832    83A      0.796627  
      84A      0.809896    85A      0.837347    86A      0.858970  
      87A      0.886781    88A      0.925025    89A      0.937673  
      90A      0.946669    91A      0.956867    92A      0.975928  
      93A      0.988468    94A      1.000085    95A      1.017382  
      96A      1.055966    97A      1.096238    98A      1.102619  
      99A      1.116545   100A      1.126240   101A      1.129163  
     102A      1.133465   103A      1.144696   104A      1.151969  
     105A      1.160975   106A      1.168406   107A      1.178615  
     108A      1.184453   109A      1.187455   110A      1.194908  
     111A      1.205590   112A      1.208028   113A      1.218949  
     114A      1.224330   115A      1.243200   116A      1.250473  
     117A      1.258368   118A      1.266931   119A      1.273938  
     120A      1.305585   121A      1.314119   122A      1.327022  
     123A      1.378339   124A      1.406278   125A      1.434024  
     126A      1.473091   127A      1.560567   128A      1.578202  
     129A      1.649049   130A      1.665096   131A      1.690949  
     132A      1.704998   133A      1.734975   134A      1.749150  
     135A      1.801727   136A      1.831767   137A      1.866841  
     138A      1.889715   139A      1.915301   140A      1.940509  
     141A      1.998383   142A      2.013924   143A      2.032682  
     144A      2.081920   145A      2.089443   146A      2.137798  
     147A      2.156095   148A      2.169610   149A      2.206315  
     150A      2.232818   151A      2.245734   152A      2.256771  
     153A      2.288829   154A      2.302346   155A      2.309113  
     156A      2.311168   157A      2.346678   158A      2.362471  
     159A      2.373735   160A      2.398852   161A      2.407054  
     162A      2.442781   163A      2.448366   164A      2.481583  
     165A      2.520016   166A      2.560448   167A      2.601854  
     168A      2.639785   169A      2.657853   170A      2.669736  
     171A      2.689429   172A      2.710142   173A      2.736569  
     174A      2.749814   175A      2.759054   176A      2.806704  
     177A      2.828145   178A      2.843815   179A      2.908964  
     180A      2.957073   181A      2.965972   182A      2.997364  
     183A      3.040049   184A      3.067556   185A      3.131098  
     186A      3.163622   187A      3.196245   188A      3.349912  
     189A      3.451027   190A      3.581294   191A      4.417040  
     192A      4.541352   193A      4.589784   194A      4.627899  
     195A      4.684569   196A      4.736226   197A      4.782455  
     198A      4.837854   199A      4.879214   200A      4.973718  
     201A      5.036404  

    Final Occupation by Irrep:
              A 
    DOCC [    44 ]

  Energy converged.

  @DF-RHF Final Energy:  -501.03879436598072

   => Energetics <=

    Nuclear Repulsion Energy =            619.5398466480573916
    One-Electron Energy =               -1910.1995398080343875
    Two-Electron Energy =                 789.6208987939966164
    DFT Exchange-Correlation Energy =       0.0000000000000000
    Empirical Dispersion Energy =           0.0000000000000000
    PCM Polarization Energy =               0.0000000000000000
    EFP Energy =                            0.0000000000000000
    Total Energy =                       -501.0387943659803796

    Alert: EFP and PCM quantities not currently incorporated into SCF psivars.

Properties will be evaluated at   0.000000,   0.000000,   0.000000 Bohr
  ==> Properties <==


Properties computed using the SCF density matrix

  Nuclear Dipole Moment: (a.u.)
     X:   -17.0512      Y:    -1.9078      Z:    -1.4883

  Electronic Dipole Moment: (a.u.)
     X:    16.8827      Y:     1.2967      Z:     1.8116

  Dipole Moment: (a.u.)
     X:    -0.1685      Y:    -0.6111      Z:     0.3233     Total:     0.7116

  Dipole Moment: (Debye)
     X:    -0.4282      Y:    -1.5533      Z:     0.8218     Total:     1.8087


  Saving occupied orbitals to File 180.

*** tstop() called on cx1-3-14-1.cx1.hpc.ic.ac.uk at Tue Jul  5 17:06:54 2016
Module time:
	user time   =      46.31 seconds =       0.77 minutes
	system time =       0.38 seconds =       0.01 minutes
	total time  =         47 seconds =       0.78 minutes
Total time:
	user time   =      46.31 seconds =       0.77 minutes
	system time =       0.38 seconds =       0.01 minutes
	total time  =         47 seconds =       0.78 minutes


Properties will be evaluated at   0.000000,   0.000000,   0.000000 Bohr

Properties computed using the  density matrix

  Nuclear Dipole Moment: (a.u.)
     X:   -17.0512      Y:    -1.9078      Z:    -1.4883

  Electronic Dipole Moment: (a.u.)
     X:    16.8827      Y:     1.2967      Z:     1.8116

  Dipole Moment: (a.u.)
     X:    -0.1685      Y:    -0.6111      Z:     0.3233     Total:     0.7116

  Dipole Moment: (Debye)
     X:    -0.4282      Y:    -1.5533      Z:     0.8218     Total:     1.8087

  Quadrupole Moment: (Debye Ang)
    XX:   -66.3511     YY:   -72.7024     ZZ:   -70.3068
    XY:    -7.6572     XZ:     2.5379     YZ:     1.8460

  Traceless Quadrupole Moment: (Debye Ang)
    XX:     3.4357     YY:    -2.9156     ZZ:    -0.5200
    XY:    -7.6572     XZ:     2.5379     YZ:     1.8460

  Mulliken Charges: (a.u.)
   Center  Symbol    Alpha    Beta     Spin     Total
       1     O     4.28594  4.28594  0.00000 -0.57189
       2     C     2.60487  2.60487  0.00000  0.79026
       3     C     3.20960  3.20960  0.00000 -0.41920
       4     O     4.30747  4.30747  0.00000 -0.61495
       5     C     3.15364  3.15364  0.00000 -0.30727
       6     H     0.39911  0.39911  0.00000  0.20178
       7     H     0.40121  0.40121  0.00000  0.19757
       8     C     3.15533  3.15533  0.00000 -0.31067
       9     H     0.41326  0.41326  0.00000  0.17348
      10     H     0.40881  0.40881  0.00000  0.18238
      11     C     3.16133  3.16133  0.00000 -0.32267
      12     H     0.41839  0.41839  0.00000  0.16322
      13     H     0.42423  0.42423  0.00000  0.15155
      14     C     3.15159  3.15159  0.00000 -0.30317
      15     H     0.41813  0.41813  0.00000  0.16373
      16     H     0.42393  0.42393  0.00000  0.15215
      17     C     3.15162  3.15162  0.00000 -0.30324
      18     H     0.42317  0.42317  0.00000  0.15365
      19     H     0.42169  0.42169  0.00000  0.15663
      20     C     3.24518  3.24518  0.00000 -0.49036
      21     H     0.42302  0.42302  0.00000  0.15396
      22     H     0.42025  0.42025  0.00000  0.15949
      23     H     0.41869  0.41869  0.00000  0.16262
      24     H     0.41863  0.41863  0.00000  0.16274
      25     H     0.42176  0.42176  0.00000  0.15648
      26     C     3.09241  3.09241  0.00000 -0.18481
      27     H     0.40910  0.40910  0.00000  0.18181
      28     H     0.40852  0.40852  0.00000  0.18295
      29     H     0.40912  0.40912  0.00000  0.18176

   Total alpha = 44.00000, Total beta = 44.00000, Total charge =  0.00000


*** PSI4 exiting successfully. Buy a developer a beer!
