    -----------------------------------------------------------------------
          Psi4: An Open-Source Ab Initio Electronic Structure Package
                              Psi4 1.0.54 Driver

                          Git: Rev {master} 8d4cec3 dirty

    J. M. Turney, A. C. Simmonett, R. M. Parrish, E. G. Hohenstein,
    F. A. Evangelista, J. T. Fermann, B. J. Mintz, L. A. Burns, J. J. Wilke,
    M. L. Abrams, N. J. Russ, M. L. Leininger, C. L. Janssen, E. T. Seidl,
    W. D. Allen, H. F. Schaefer, R. A. King, E. F. Valeev, C. D. Sherrill,
    and T. D. Crawford, WIREs Comput. Mol. Sci. 2, 556-565 (2012)
    (doi: 10.1002/wcms.93)

                         Additional Contributions by
    A. E. DePrince, U. Bozkaya, A. Yu. Sokolov, D. G. A. Smith, R. Di Remigio,
    R. M. Richard, J. F. Gonthier, H. R. McAlexander, M. Saitow, and
    B. P. Pritchard
    -----------------------------------------------------------------------


    Psi4 started on: Tue Dec 12 14:43:28 2017

    Process ID:  31011
    PSI4DATADIR: /opt/acellera/miniconda3/share/psi4
    Memory level set to 256.000 MB

  ==> Input File <==

--------------------------------------------------------------------------
set_num_threads(1)
set_memory(3145728000)

set { reference rks }
set { basis 6-31G* }

molecule MOL {
    1 1
    noreorient
    nocom
    symmetry c1
    C    0.000000   0.000000  -0.177864
    C    0.036678   1.219374   0.524165
    C    0.031764   1.213119   1.915444
    C   -0.000000  -0.000000   2.610107
    C   -0.031764  -1.213119   1.915444
    C   -0.036677  -1.219374   0.524165
    C    0.000000  -0.000000  -1.644734
    H    0.018170   2.164705  -0.010853
    H    0.042402   2.152895   2.457886
    H   -0.000000  -0.000000   3.695756
    H   -0.042402  -2.152895   2.457886
    H   -0.018170  -2.164705  -0.010853
    N   -0.606060  -0.980419  -2.308460
    N    0.606060   0.980419  -2.308461
    H    0.555833   1.075890  -3.315997
    H    1.201131   1.631577  -1.813317
    H   -1.201131  -1.631577  -1.813316
    H   -0.555834  -1.075891  -3.315997
}

set optking { frozen_dihedral = (" 2 1 7 13 ") }

set optking { dynamic_level = 1 
 geom_maxiter = 250
 print_trajectory_xyz_file = True }

energy, wfn = optimize('B3LYP-D3', return_wfn=True)

import os
os.chdir(os.environ['HTMD_PSI4_WORKDIR'])

oeprop(wfn, 'DIPOLE', 'QUADRUPOLE', 'MULLIKEN_CHARGES')

with open('psi4out.xyz', 'w') as f:
    f.write('18 ' )
    f.write('%.12f\n' % energy)
    f.write(MOL.save_string_xyz())
--------------------------------------------------------------------------

  Memory set to   3.146 GiB by Python script.
gradient() will perform analytic gradient computation.

*** tstart() called on computer04
*** at Tue Dec 12 14:43:30 2017


         ---------------------------------------------------------
                                   SCF
            by Justin Turney, Rob Parrish, and Andy Simmonett
                              RKS Reference
                        1 Threads,   3145 MiB Core
         ---------------------------------------------------------

  ==> Geometry <==

    Molecular point group: c1
    Full point group: C1

    Geometry (in Angstrom), charge = 1, multiplicity = 1:

       Center              X                  Y                   Z               Mass       
    ------------   -----------------  -----------------  -----------------  -----------------
           C          0.000000000000     0.000000000000    -0.177864000000    12.000000000000
           C          0.036678000000     1.219374000000     0.524165000000    12.000000000000
           C          0.031764000000     1.213119000000     1.915444000000    12.000000000000
           C          0.000000000000     0.000000000000     2.610107000000    12.000000000000
           C         -0.031764000000    -1.213119000000     1.915444000000    12.000000000000
           C         -0.036677000000    -1.219374000000     0.524165000000    12.000000000000
           C          0.000000000000     0.000000000000    -1.644734000000    12.000000000000
           H          0.018170000000     2.164705000000    -0.010853000000     1.007825032070
           H          0.042402000000     2.152895000000     2.457886000000     1.007825032070
           H          0.000000000000     0.000000000000     3.695756000000     1.007825032070
           H         -0.042402000000    -2.152895000000     2.457886000000     1.007825032070
           H         -0.018170000000    -2.164705000000    -0.010853000000     1.007825032070
           N         -0.606060000000    -0.980419000000    -2.308460000000    14.003074004780
           N          0.606060000000     0.980419000000    -2.308461000000    14.003074004780
           H          0.555833000000     1.075890000000    -3.315997000000     1.007825032070
           H          1.201131000000     1.631577000000    -1.813317000000     1.007825032070
           H         -1.201131000000    -1.631577000000    -1.813316000000     1.007825032070
           H         -0.555834000000    -1.075891000000    -3.315997000000     1.007825032070

  Running in c1 symmetry.

  Rotational constants: A =      0.12190  B =      0.03994  C =      0.03107 [cm^-1]
  Rotational constants: A =   3654.48934  B =   1197.32737  C =    931.33226 [MHz]
  Nuclear repulsion =  417.130806793726094

  Charge       = 1
  Multiplicity = 1
  Electrons    = 64
  Nalpha       = 32
  Nbeta        = 32

  ==> Algorithm <==

  SCF Algorithm Type is DF.
  DIIS enabled.
  MOM disabled.
  Fractional occupation disabled.
  Guess Type is SAD.
  Energy threshold   = 1.00e-08
  Density threshold  = 1.00e-08
  Integral threshold = 0.00e+00

  ==> Primary Basis <==

  Basis Set: 6-31G*
    Number of shells: 72
    Number of basis function: 153
    Number of Cartesian functions: 153
    Spherical Harmonics?: false
    Max angular momentum: 2

  ==> DFT Potential <==

   => B3LYP-D3 Composite Functional <= 

    B3LYP Hybrid-GGA Exchange-Correlation Functional (VWN1-RPA)

    P.J. Stephens et. al., J. Phys. Chem., 98, 11623-11627, 1994

    Points   =           5000
    Deriv    =              1
    GGA      =           TRUE
    Meta     =          FALSE

    X_LRC        =          FALSE
    X_Hybrid     =           TRUE
    X_Alpha      =   2.000000E-01
    X_Omega      =   0.000000E+00
    C_LRC        =          FALSE
    C_Hybrid     =          FALSE
    C_Alpha      =   0.000000E+00
    C_Omega      =   0.000000E+00

   => Exchange Functionals <=

    0.8000    B3_X
    0.2000      HF 

   => Correlation Functionals <=

    0.1900 VWN3RPA_C
    0.8100   LYP_C

   => -D3ZERO: Empirical Dispersion <=

    Grimme's -D3 (zero-damping) Dispersion Correction

    Grimme S.; Antony J.; Ehrlich S.; Krieg H. (2010), J. Chem. Phys., 132: 154104

    S6  =   1.000000E+00
    S8  =   1.703000E+00
    SR6 =   1.261000E+00
    A6  =   1.400000E+01

   => Molecular Quadrature <=

    Radial Scheme    =       TREUTLER
    Pruning Scheme   =           FLAT
    Nuclear Scheme   =       TREUTLER

    BS radius alpha  =              1
    Pruning alpha    =              1
    Radial Points    =             75
    Spherical Points =            302
    Total Points     =         396846
    Total Blocks     =            364
    Max Points       =           4994
    Max Functions    =            150

  ==> Pre-Iterations <==

   -------------------------------------------------------
    Irrep   Nso     Nmo     Nalpha   Nbeta   Ndocc  Nsocc
   -------------------------------------------------------
     A        153     153       0       0       0       0
   -------------------------------------------------------
    Total     153     153      32      32      32       0
   -------------------------------------------------------

  ==> Integral Setup <==

  ==> DFJK: Density-Fitted J/K Matrices <==

    J tasked:                  Yes
    K tasked:                  Yes
    wK tasked:                  No
    OpenMP threads:              1
    Integrals threads:           1
    Memory (MB):              2250
    Algorithm:                Core
    Integral Cache:           NONE
    Schwarz Cutoff:          1E-12
    Fitting Condition:       1E-12

   => Auxiliary Basis Set <=

  Basis Set: 
    Number of shells: 297
    Number of basis function: 954
    Number of Cartesian functions: 954
    Spherical Harmonics?: false
    Max angular momentum: 3

  Minimum eigenvalue in the overlap matrix is 4.8626605149E-04.
  Using Symmetric Orthogonalization.
  SCF Guess: Superposition of Atomic Densities via on-the-fly atomic UHF.

  ==> Iterations <==

                           Total Energy        Delta E     RMS |[F,P]|

   @DF-RKS iter   0:  -380.54850276373742   -3.80549e+02   3.51478e-02 
   @DF-RKS iter   1:  -381.12644128237190   -5.77939e-01   5.39744e-03 
   @DF-RKS iter   2:  -381.06531513281055    6.11261e-02   5.92868e-03 DIIS
   @DF-RKS iter   3:  -381.46302527625909   -3.97710e-01   8.25145e-04 DIIS
   @DF-RKS iter   4:  -381.46889105068232   -5.86577e-03   3.49946e-04 DIIS
   @DF-RKS iter   5:  -381.47008377121841   -1.19272e-03   1.00406e-04 DIIS
   @DF-RKS iter   6:  -381.47017855363509   -9.47824e-05   3.77202e-05 DIIS
   @DF-RKS iter   7:  -381.47019437866203   -1.58250e-05   8.83901e-06 DIIS
   @DF-RKS iter   8:  -381.47019528243146   -9.03769e-07   3.05073e-06 DIIS
   @DF-RKS iter   9:  -381.47019539801346   -1.15582e-07   8.87287e-07 DIIS
   @DF-RKS iter  10:  -381.47019540687637   -8.86291e-09   2.27301e-07 DIIS
   @DF-RKS iter  11:  -381.47019540746936   -5.92991e-10   5.19138e-08 DIIS
   @DF-RKS iter  12:  -381.47019540748494   -1.55751e-11   3.70743e-08 DIIS
   @DF-RKS iter  13:  -381.47019540750370   -1.87583e-11   4.46824e-09 DIIS

  ==> Post-Iterations <==

    Orbital Energies (a.u.)
    -----------------------

    Doubly Occupied:                                                      

       1A    -14.567220     2A    -14.567213     3A    -10.496748  
       4A    -10.373968     5A    -10.357472     6A    -10.357463  
       7A    -10.344227     8A    -10.341515     9A    -10.341462  
      10A     -1.183432    11A     -1.091676    12A     -1.015172  
      13A     -0.927158    14A     -0.903420    15A     -0.845848  
      16A     -0.785596    17A     -0.775066    18A     -0.740206  
      19A     -0.734149    20A     -0.688901    21A     -0.669054  
      22A     -0.627355    23A     -0.616115    24A     -0.589968  
      25A     -0.579672    26A     -0.574408    27A     -0.518464  
      28A     -0.506832    29A     -0.499372    30A     -0.472373  
      31A     -0.412377    32A     -0.406718  

    Virtual:                                                              

      33A     -0.219012    34A     -0.158357    35A     -0.123656  
      36A     -0.108209    37A     -0.069015    38A     -0.062244  
      39A     -0.037197    40A     -0.036598    41A      0.008081  
      42A      0.021259    43A      0.022472    44A      0.058351  
      45A      0.062031    46A      0.085242    47A      0.124111  
      48A      0.142997    49A      0.156061    50A      0.164717  
      51A      0.201815    52A      0.244495    53A      0.299541  
      54A      0.349860    55A      0.354165    56A      0.379503  
      57A      0.388776    58A      0.396907    59A      0.420977  
      60A      0.425063    61A      0.440602    62A      0.448438  
      63A      0.453557    64A      0.470681    65A      0.471909  
      66A      0.474367    67A      0.484586    68A      0.509104  
      69A      0.523616    70A      0.539060    71A      0.540522  
      72A      0.595815    73A      0.606347    74A      0.654149  
      75A      0.662637    76A      0.683338    77A      0.689867  
      78A      0.703737    79A      0.716945    80A      0.724637  
      81A      0.747490    82A      0.774395    83A      0.784975  
      84A      0.801625    85A      0.816024    86A      0.832626  
      87A      0.850168    88A      0.939687    89A      0.958858  
      90A      1.004338    91A      1.004486    92A      1.028680  
      93A      1.073189    94A      1.074104    95A      1.136527  
      96A      1.173282    97A      1.209474    98A      1.274358  
      99A      1.281056   100A      1.307360   101A      1.322263  
     102A      1.342580   103A      1.360968   104A      1.380613  
     105A      1.444270   106A      1.453973   107A      1.476071  
     108A      1.606823   109A      1.621057   110A      1.652236  
     111A      1.666685   112A      1.737003   113A      1.754118  
     114A      1.794434   115A      1.822879   116A      1.857923  
     117A      1.904611   118A      1.906680   119A      1.952443  
     120A      1.974628   121A      1.995801   122A      2.017878  
     123A      2.043801   124A      2.064056   125A      2.124582  
     126A      2.125937   127A      2.150363   128A      2.213564  
     129A      2.241292   130A      2.269213   131A      2.341142  
     132A      2.363802   133A      2.451602   134A      2.454651  
     135A      2.488381   136A      2.505333   137A      2.544602  
     138A      2.588577   139A      2.600818   140A      2.632535  
     141A      2.739418   142A      2.884180   143A      2.992429  
     144A      3.259112   145A      3.639235   146A      3.666087  
     147A      3.906477   148A      3.945878   149A      3.961788  
     150A      4.047982   151A      4.171053   152A      4.257285  
     153A      4.546076  

    Final Occupation by Irrep:
              A 
    DOCC [    32 ]

  Energy converged.

  @DF-RKS Final Energy:  -381.47019540750370

   => Energetics <=

    Nuclear Repulsion Energy =            417.1308067937260944
    One-Electron Energy =               -1329.4323375672745442
    Two-Electron Energy =                 575.2502195960995550
    DFT Exchange-Correlation Energy =     -44.4070680000547711
    Empirical Dispersion Energy =          -0.0118162300000000
    PCM Polarization Energy =               0.0000000000000000
    EFP Energy =                            0.0000000000000000
    Total Energy =                       -381.4701954075036383


  Saving occupied orbitals to File 180.

*** tstop() called on computer04 at Tue Dec 12 14:44:56 2017
Module time:
	user time   =      85.51 seconds =       1.43 minutes
	system time =       0.44 seconds =       0.01 minutes
	total time  =         86 seconds =       1.43 minutes
Total time:
	user time   =      85.51 seconds =       1.43 minutes
	system time =       0.44 seconds =       0.01 minutes
	total time  =         86 seconds =       1.43 minutes


Properties will be evaluated at   0.000000,   0.000000,   0.000000 Bohr

Properties computed using the SCF density matrix

  Nuclear Dipole Moment: (a.u.)
     X:     0.0000      Y:    -0.0000      Z:     0.0248

  Electronic Dipole Moment: (a.u.)
     X:    -0.0000      Y:     0.0000      Z:    -2.2442

  Dipole Moment: (a.u.)
     X:    -0.0000      Y:    -0.0000      Z:    -2.2195     Total:     2.2195

  Dipole Moment: (Debye)
     X:    -0.0000      Y:    -0.0000      Z:    -5.6413     Total:     5.6413


*** tstart() called on computer04
*** at Tue Dec 12 14:44:56 2017


         ------------------------------------------------------------
                                   SCF GRAD                          
                          Rob Parrish, Justin Turney,                
                       Andy Simmonett, and Alex Sokolov              
         ------------------------------------------------------------

  ==> Geometry <==

    Molecular point group: c1
    Full point group: C1

    Geometry (in Angstrom), charge = 1, multiplicity = 1:

       Center              X                  Y                   Z               Mass       
    ------------   -----------------  -----------------  -----------------  -----------------
           C          0.000000000000     0.000000000000    -0.177864000000    12.000000000000
           C          0.036678000000     1.219374000000     0.524165000000    12.000000000000
           C          0.031764000000     1.213119000000     1.915444000000    12.000000000000
           C          0.000000000000     0.000000000000     2.610107000000    12.000000000000
           C         -0.031764000000    -1.213119000000     1.915444000000    12.000000000000
           C         -0.036677000000    -1.219374000000     0.524165000000    12.000000000000
           C          0.000000000000     0.000000000000    -1.644734000000    12.000000000000
           H          0.018170000000     2.164705000000    -0.010853000000     1.007825032070
           H          0.042402000000     2.152895000000     2.457886000000     1.007825032070
           H          0.000000000000     0.000000000000     3.695756000000     1.007825032070
           H         -0.042402000000    -2.152895000000     2.457886000000     1.007825032070
           H         -0.018170000000    -2.164705000000    -0.010853000000     1.007825032070
           N         -0.606060000000    -0.980419000000    -2.308460000000    14.003074004780
           N          0.606060000000     0.980419000000    -2.308461000000    14.003074004780
           H          0.555833000000     1.075890000000    -3.315997000000     1.007825032070
           H          1.201131000000     1.631577000000    -1.813317000000     1.007825032070
           H         -1.201131000000    -1.631577000000    -1.813316000000     1.007825032070
           H         -0.555834000000    -1.075891000000    -3.315997000000     1.007825032070

  Nuclear repulsion =  417.130806793726094

  ==> Basis Set <==

  Basis Set: 6-31G*
    Number of shells: 72
    Number of basis function: 153
    Number of Cartesian functions: 153
    Spherical Harmonics?: false
    Max angular momentum: 2

  ==> DFJKGrad: Density-Fitted SCF Gradients <==

    Gradient:                    1
    J tasked:                  Yes
    K tasked:                  Yes
    wK tasked:                  No
    OpenMP threads:              1
    Integrals threads:           1
    Memory (MB):              2250
    Schwarz Cutoff:          0E+00
    Fitting Condition:       1E-12

   => Auxiliary Basis Set <=

  Basis Set: 
    Number of shells: 297
    Number of basis function: 954
    Number of Cartesian functions: 954
    Spherical Harmonics?: false
    Max angular momentum: 3

  ==> DFT Potential <==

   => B3LYP-D3 Composite Functional <= 

    B3LYP Hybrid-GGA Exchange-Correlation Functional (VWN1-RPA)

    P.J. Stephens et. al., J. Phys. Chem., 98, 11623-11627, 1994

    Points   =           5000
    Deriv    =              1
    GGA      =           TRUE
    Meta     =          FALSE

    X_LRC        =          FALSE
    X_Hybrid     =           TRUE
    X_Alpha      =   2.000000E-01
    X_Omega      =   0.000000E+00
    C_LRC        =          FALSE
    C_Hybrid     =          FALSE
    C_Alpha      =   0.000000E+00
    C_Omega      =   0.000000E+00

   => Exchange Functionals <=

    0.8000    B3_X
    0.2000      HF 

   => Correlation Functionals <=

    0.1900 VWN3RPA_C
    0.8100   LYP_C

   => -D3ZERO: Empirical Dispersion <=

    Grimme's -D3 (zero-damping) Dispersion Correction

    Grimme S.; Antony J.; Ehrlich S.; Krieg H. (2010), J. Chem. Phys., 132: 154104

    S6  =   1.000000E+00
    S8  =   1.703000E+00
    SR6 =   1.261000E+00
    A6  =   1.400000E+01

   => Molecular Quadrature <=

    Radial Scheme    =       TREUTLER
    Pruning Scheme   =           FLAT
    Nuclear Scheme   =       TREUTLER

    BS radius alpha  =              1
    Pruning alpha    =              1
    Radial Points    =             75
    Spherical Points =            302
    Total Points     =         396846
    Total Blocks     =            364
    Max Points       =           4994
    Max Functions    =            150


  -Total Gradient:
     Atom            X                  Y                   Z
    ------   -----------------  -----------------  -----------------
       1       -0.000000152347    -0.000000121252     0.001128963150
       2        0.000625189408     0.000681590475    -0.000769662835
       3       -0.000158867055    -0.000421307236     0.000313517040
       4        0.000000010088    -0.000000012006     0.000068140628
       5        0.000158737355     0.000421298575     0.000313482130
       6       -0.000624924217    -0.000681585634    -0.000769625257
       7       -0.000000162858    -0.000000226332    -0.001376232653
       8        0.000469560489    -0.000204924749    -0.000742258460
       9       -0.000048194726     0.000023381505    -0.000023691929
      10        0.000000012937     0.000000002397     0.000011417449
      11        0.000048199980    -0.000023367516    -0.000023702719
      12       -0.000469622300     0.000204950677    -0.000742252828
      13        0.000592182211    -0.000188452816     0.000783122399
      14       -0.000591940994     0.000188955236     0.000781863944
      15       -0.000071622534     0.000107306763    -0.000197662085
      16       -0.000191888178     0.000261878471     0.000712355703
      17        0.000191882258    -0.000261901861     0.000712266677
      18        0.000071600511    -0.000107464716    -0.000198527144


*** tstop() called on computer04 at Tue Dec 12 14:45:19 2017
Module time:
	user time   =      22.20 seconds =       0.37 minutes
	system time =       0.20 seconds =       0.00 minutes
	total time  =         23 seconds =       0.38 minutes
Total time:
	user time   =     107.72 seconds =       1.80 minutes
	system time =       0.64 seconds =       0.01 minutes
	total time  =        109 seconds =       1.82 minutes

			-----------------------------------------
			 OPTKING 2.0: for geometry optimizations 
			  - R.A. King,  Bethel University        
			-----------------------------------------
	At level 1: Red. Int., RFO, no backsteps, dynamic trust

	Internal coordinates to be generated automatically.
	Detected frag 1 with atoms:  1 2 3 4 5 6 7 8 9 10 11 12 13 14 15 16 17 18
	---Fragment 1 Bond Connectivity---
	 1 : 2 6 7
	 2 : 1 3 8
	 3 : 2 4 9
	 4 : 3 5 10
	 5 : 4 6 11
	 6 : 1 5 12
	 7 : 1 13 14
	 8 : 2
	 9 : 3
	 10 : 4
	 11 : 5
	 12 : 6
	 13 : 7 17 18
	 14 : 7 15 16
	 15 : 14
	 16 : 14
	 17 : 13
	 18 : 13

	Assuming in current code that numbering for constraints corresponds to unified fragment.
	Frozen dihedral atom list: 
	     2     1     7    13
	---Fragment 1 Geometry and Gradient---
	 C           0.0000000000        0.0000000000       -0.3361142489
	 C           0.0693113751        2.3042829136        0.9905282984
	 C           0.0600252609        2.2924626766        3.6196645829
	 C           0.0000000000        0.0000000000        4.9323874075
	 C          -0.0600252609       -2.2924626766        3.6196645829
	 C          -0.0693094854       -2.3042829136        0.9905282984
	 C           0.0000000000        0.0000000000       -3.1080968214
	 H           0.0343363238        4.0906996085       -0.0205091977
	 H           0.0801281675        4.0683819429        4.6447314059
	 H           0.0000000000        0.0000000000        6.9839666940
	 H          -0.0801281675       -4.0683819429        4.6447314059
	 H          -0.0343363238       -4.0906996085       -0.0205091977
	 N          -1.1452874201       -1.8527234055       -4.3623571887
	 N           1.1452874201        1.8527234055       -4.3623590784
	 H           1.0503721456        2.0331374491       -6.2663261875
	 H           2.2698086397        3.0832336947       -3.4266725221
	 H          -2.2698086397       -3.0832336947       -3.4266706324
	 H          -1.0503740353       -2.0331393388       -6.2663261875
	            -0.0000001523       -0.0000001213        0.0011289631
	             0.0006251894        0.0006815905       -0.0007696628
	            -0.0001588671       -0.0004213072        0.0003135170
	             0.0000000101       -0.0000000120        0.0000681406
	             0.0001587374        0.0004212986        0.0003134821
	            -0.0006249242       -0.0006815856       -0.0007696253
	            -0.0000001629       -0.0000002263       -0.0013762327
	             0.0004695605       -0.0002049247       -0.0007422585
	            -0.0000481947        0.0000233815       -0.0000236919
	             0.0000000129        0.0000000024        0.0000114174
	             0.0000482000       -0.0000233675       -0.0000237027
	            -0.0004696223        0.0002049507       -0.0007422528
	             0.0005921822       -0.0001884528        0.0007831224
	            -0.0005919410        0.0001889552        0.0007818639
	            -0.0000716225        0.0001073068       -0.0001976621
	            -0.0001918882        0.0002618785        0.0007123557
	             0.0001918823       -0.0002619019        0.0007122667
	             0.0000716005       -0.0001074647       -0.0001985271

	Previous optimization step data not found.  Starting new optimization.

	---Fragment 1 Intrafragment Coordinates---
	 - Coordinate -           - BOHR/RAD -       - ANG/DEG -
	 R(1,2)           =         2.659794	       1.407502
	 R(1,6)           =         2.659794	       1.407502
	 R(1,7)           =         2.771983	       1.466870
	 R(2,3)           =         2.629179	       1.391302
	 R(2,8)           =         2.052975	       1.086387
	 R(3,4)           =         2.642391	       1.398293
	 R(3,9)           =         2.050623	       1.085143
	 R(4,5)           =         2.642391	       1.398293
	 R(4,10)          =         2.051579	       1.085649
	 R(5,6)           =         2.629179	       1.391302
	 R(5,11)          =         2.050623	       1.085143
	 R(6,12)          =         2.052975	       1.086387
	 R(7,13)          =         2.513451	       1.330061
	 R(7,14)          =         2.513452	       1.330062
	 R(13,17)         =         1.911600	       1.011575
	 R(13,18)         =         1.914852	       1.013296
	 R(14,15)         =         1.914850	       1.013295
	 R(14,16)         =         1.911600	       1.011575
	 B(1,2,3)         =         2.088380	     119.655334
	 B(1,2,8)         =         2.103396	     120.515735
	 B(1,6,5)         =         2.088380	     119.655336
	 B(1,6,12)        =         2.103396	     120.515739
	 B(1,7,13)        =         2.093263	     119.935132
	 B(1,7,14)        =         2.093264	     119.935170
	 B(2,1,6)         =         2.097220	     120.161836
	 B(2,1,7)         =         2.092983	     119.919082
	 B(2,3,4)         =         2.095280	     120.050699
	 B(2,3,9)         =         2.089718	     119.732039
	 B(3,2,8)         =         2.090149	     119.756716
	 B(3,4,5)         =         2.101792	     120.423818
	 B(3,4,10)        =         2.090697	     119.788091
	 B(4,3,9)         =         2.098135	     120.214304
	 B(4,5,6)         =         2.095280	     120.050698
	 B(4,5,11)        =         2.098135	     120.214304
	 B(5,4,10)        =         2.090697	     119.788091
	 B(5,6,12)        =         2.090149	     119.756718
	 B(6,1,7)         =         2.092983	     119.919082
	 B(6,5,11)        =         2.089718	     119.732040
	 B(7,13,17)       =         2.092412	     119.886391
	 B(7,13,18)       =         2.144860	     122.891409
	 B(7,14,15)       =         2.144859	     122.891370
	 B(7,14,16)       =         2.092412	     119.886355
	 B(13,7,14)       =         2.096659	     120.129698
	 B(15,14,16)      =         2.043400	     117.078218
	 B(17,13,18)      =         2.043399	     117.078141
	 D(1,2,3,4)       =         0.007800	       0.446917
	 D(1,2,3,9)       =        -3.122897	    -178.928796
	 D(1,6,5,4)       =         0.007799	       0.446823
	 D(1,6,5,11)      =        -3.122897	    -178.928843
	 D(1,7,13,17)     =         0.187844	      10.762691
	 D(1,7,13,18)     =        -3.032165	    -173.730256
	 D(1,7,14,15)     =        -3.032165	    -173.730231
	 D(1,7,14,16)     =         0.187844	      10.762687
	 D(2,1,6,5)       =        -0.003905	      -0.223756
	 D(2,1,6,12)      =        -3.091438	    -177.126344
	*D(2,1,7,13)      =        -2.617994	    -150.000026
	 D(2,1,7,14)      =         0.523598	      29.999974
	 D(2,3,4,5)       =        -0.003943	      -0.225922
	 D(2,3,4,10)      =         3.137650	     179.774078
	 D(3,2,1,6)       =        -0.003908	      -0.223897
	 D(3,2,1,7)       =         3.137686	     179.776150
	 D(3,4,5,6)       =        -0.003942	      -0.225875
	 D(3,4,5,11)      =         3.126701	     179.146753
	 D(4,3,2,8)       =         3.095745	     177.373103
	 D(4,5,6,12)      =         3.095746	     177.373164
	 D(5,4,3,9)       =         3.126701	     179.146753
	 D(5,6,1,7)       =         3.137687	     179.776197
	 D(6,1,2,8)       =        -3.091438	    -177.126330
	 D(6,1,7,13)      =         0.523599	      30.000021
	 D(6,1,7,14)      =        -2.617994	    -149.999979
	 D(6,5,4,10)      =         3.137650	     179.774125
	 D(7,1,2,8)       =         0.050156	       2.873717
	 D(7,1,6,12)      =         0.050154	       2.873609
	 D(8,2,3,9)       =        -0.034952	      -2.002610
	 D(9,3,4,10)      =        -0.014892	      -0.853247
	 D(10,4,5,11)     =        -0.014892	      -0.853247
	 D(11,5,6,12)     =        -0.034950	      -2.002502
	 D(13,7,14,15)    =         0.109428	       6.269769
	 D(13,7,14,16)    =        -2.953748	    -169.237313
	 D(14,7,13,17)    =        -2.953748	    -169.237309
	 D(14,7,13,18)    =         0.109428	       6.269744

	Current energy   :      -381.4701954075

	Generating empirical Hessian (Schlegel '84) for each fragment.
	Taking RFO optimization step.
	Going to follow RFO solution 1.
	Using RFO vector 1.
	Norm of target step-size    0.13625
	Projected energy change by RFO approximation:        -0.0007080061

	Back-transformation to cartesian coordinates...
	Could not converge backtransformation.
	Using first guess instead.

	Back-transformation to cartesian coordinates to adjust frozen coordinates...
	Successfully converged to displaced geometry.

	--- Internal Coordinate Step in ANG or DEG, aJ/ANG or AJ/DEG ---
	 ---------------------------------------------------------------------------
	   Coordinate                Previous        Force       Change         New 
	   ----------                --------       ------       ------       ------
	    1 R(1,2)          =      1.407502     0.006082     0.000925     1.408428
	    2 R(1,6)          =      1.407502     0.006080     0.001417     1.408919
	    3 R(1,7)          =      1.466870     0.010087     0.001832     1.468702
	    4 R(2,3)          =      1.391302    -0.002765    -0.000252     1.391050
	    5 R(2,8)          =      1.086387    -0.001473     0.000040     1.086428
	    6 R(3,4)          =      1.398293    -0.002169    -0.000174     1.398119
	    7 R(3,9)          =      1.085143    -0.000070    -0.000005     1.085138
	    8 R(4,5)          =      1.398293    -0.002171    -0.000298     1.397995
	    9 R(4,10)         =      1.085649    -0.000103     0.000068     1.085717
	   10 R(5,6)          =      1.391302    -0.002770    -0.000312     1.390990
	   11 R(5,11)         =      1.085143    -0.000070     0.000265     1.085408
	   12 R(6,12)         =      1.086387    -0.001473     0.000028     1.086416
	   13 R(7,13)         =      1.330061     0.005169     0.000629     1.330690
	   14 R(7,14)         =      1.330062     0.005165     0.001654     1.331716
	   15 R(13,17)        =      1.011575    -0.003334     0.000389     1.011964
	   16 R(13,18)        =      1.013296    -0.001731     0.000004     1.013299
	   17 R(14,15)        =      1.013295    -0.001724     0.000118     1.013412
	   18 R(14,16)        =      1.011575    -0.003335     0.000049     1.011624
	   19 B(1,2,3)        =    119.655334     0.000055     0.181659   119.836992
	   20 B(1,2,8)        =    120.515735     0.000030     0.152633   120.668368
	   21 B(1,6,5)        =    119.655336     0.000055     0.191003   119.846339
	   22 B(1,6,12)       =    120.515739     0.000030     0.190633   120.706371
	   23 B(1,7,13)       =    119.935132     0.000101     0.303892   120.239024
	   24 B(1,7,14)       =    119.935170     0.000101     0.291664   120.226833
	   25 B(2,1,6)        =    120.161836    -0.000110    -0.334593   119.827243
	   26 B(2,1,7)        =    119.919082     0.000055     0.159323   120.078405
	   27 B(2,3,4)        =    120.050699     0.000004     0.007422   120.058121
	   28 B(2,3,9)        =    119.732039     0.000000     0.004107   119.736147
	   29 B(3,2,8)        =    119.756716    -0.000085    -0.369147   119.387569
	   30 B(3,4,5)        =    120.423818    -0.000008    -0.046136   120.377682
	   31 B(3,4,10)       =    119.788091     0.000004     0.030464   119.818555
	   32 B(4,3,9)        =    120.214304    -0.000004    -0.012609   120.201695
	   33 B(4,5,6)        =    120.050698     0.000004    -0.006535   120.044163
	   34 B(4,5,11)       =    120.214304    -0.000004    -0.012530   120.201774
	   35 B(5,4,10)       =    119.788091     0.000004     0.015024   119.803115
	   36 B(5,6,12)       =    119.756718    -0.000086    -0.400019   119.356699
	   37 B(6,1,7)        =    119.919082     0.000055     0.134928   120.054010
	   38 B(6,5,11)       =    119.732040     0.000001     0.014192   119.746232
	   39 B(7,13,17)      =    119.886391     0.000052     0.206830   120.093221
	   40 B(7,13,18)      =    122.891409    -0.000029    -0.169044   122.722364
	   41 B(7,14,15)      =    122.891370    -0.000029    -0.128574   122.762796
	   42 B(7,14,16)      =    119.886355     0.000052     0.262870   120.149224
	   43 B(13,7,14)      =    120.129698    -0.000203    -0.631867   119.497831
	   44 B(15,14,16)     =    117.078218    -0.000024    -0.213693   116.864525
	   45 B(17,13,18)     =    117.078141    -0.000024    -0.117841   116.960300
	   46 D(1,2,3,4)      =      0.446917     0.000000     0.181414     0.628331
	   47 D(1,2,3,9)      =   -178.928796     0.000001     0.286601  -178.642194
	   48 D(1,6,5,4)      =      0.446823    -0.000003    -0.666607    -0.219785
	   49 D(1,6,5,11)     =   -178.928843    -0.000001    -0.275104  -179.203947
	   50 D(1,7,13,17)    =     10.762691     0.000011     2.023501    12.786192
	   51 D(1,7,13,18)    =   -173.730256     0.000004     0.909215  -172.821042
	   52 D(1,7,14,15)    =   -173.730231    -0.000006    -1.307825  -175.038055
	   53 D(1,7,14,16)    =     10.762687     0.000001    -0.196526    10.566161
	   54 D(2,1,6,5)      =     -0.223756     0.000005     1.187091     0.963335
	   55 D(2,1,6,12)     =   -177.126344     0.000008     1.572624  -175.553720
	   56 *D(2,1,7,13)    =   -150.000026    -0.000000     0.000000  -150.000026
	   57 D(2,1,7,14)     =     29.999974     0.000010     2.202586    32.202560
	   58 D(2,3,4,5)      =     -0.225922     0.000002     0.344419     0.118497
	   59 D(2,3,4,10)     =    179.774078     0.000001     0.050977   179.825054
	   60 D(3,2,1,6)      =     -0.223897    -0.000003    -0.943908    -1.167806
	   61 D(3,2,1,7)      =    179.776150     0.000006     1.364665   181.140815
	   62 D(3,4,5,6)      =     -0.225875    -0.000000    -0.098572    -0.324447
	   63 D(3,4,5,11)     =    179.146753    -0.000002    -0.491706   178.655046
	   64 D(4,3,2,8)      =    177.373103    -0.000003    -0.481064   176.892039
	   65 D(4,5,6,12)     =    177.373164    -0.000005    -1.028726   176.344438
	   66 D(5,4,3,9)      =    179.146753     0.000001     0.238844   179.385596
	   67 D(5,6,1,7)      =    179.776197    -0.000004    -1.120913   178.655284
	   68 D(6,1,2,8)      =   -177.126330     0.000000    -0.256522  -177.382852
	   69 D(6,1,7,13)     =     30.000021     0.000009     2.313845    32.313866
	   70 D(6,1,7,14)     =   -149.999979     0.000019     4.516431  -145.483548
	   71 D(6,5,4,10)     =    179.774125     0.000001     0.194825   179.968950
	   72 D(7,1,2,8)      =      2.873717     0.000009     2.052051     4.925768
	   73 D(7,1,6,12)     =      2.873609    -0.000001    -0.735380     2.138229
	   74 D(8,2,3,9)      =     -2.002610    -0.000002    -0.375876    -2.378486
	   75 D(9,3,4,10)     =     -0.853247    -0.000000    -0.054599    -0.907846
	   76 D(10,4,5,11)    =     -0.853247    -0.000001    -0.198309    -1.051556
	   77 D(11,5,6,12)    =     -2.002502    -0.000003    -0.637223    -2.639725
	   78 D(13,7,14,15)   =      6.269769     0.000004     0.878450     7.148219
	   79 D(13,7,14,16)   =   -169.237313     0.000011     1.989748  -167.247565
	   80 D(14,7,13,17)   =   -169.237309     0.000001    -0.163045  -169.400354
	   81 D(14,7,13,18)   =      6.269744    -0.000006    -1.277331     4.992413
	 ---------------------------------------------------------------------------
	Successfully symmetrized geometry.

  ==> Convergence Check <==

  Measures of convergence in internal coordinates in au.
  Criteria marked as inactive (o), active & met (*), and active & unmet ( ).
  --------------------------------------------------------------------------------------------- ~
   Step     Total Energy     Delta E     MAX Force     RMS Force      MAX Disp      RMS Disp    ~
  --------------------------------------------------------------------------------------------- ~
    Convergence Criteria    1.00e-06 *    3.00e-04 *             o    1.20e-03 *             o  ~
  --------------------------------------------------------------------------------------------- ~
      1    -381.47019541   -3.81e+02      2.67e-03      5.80e-04 o    7.88e-02      1.51e-02 o  ~
  ---------------------------------------------------------------------------------------------

	Writing optimization data to binary file.
	Structure for next step:
	Cartesian Geometry (in Angstrom)
	    C    -0.0327532983   0.0058676867  -0.1765251639
	    C     0.0051506961   1.2230324263   0.5311060032
	    C     0.0187767535   1.2147864159   1.9220646357
	    C     0.0081593060   0.0006849759   2.6153042961
	    C    -0.0136654478  -1.2110943305   1.9185227875
	    C    -0.0317746878  -1.2144529503   0.5276550727
	    C    -0.0220037931   0.0076197406  -1.6451872756
	    H    -0.0377357246   2.1720508740   0.0039911132
	    H     0.0256622967   2.1538236385   2.4658349212
	    H     0.0217356262  -0.0012555067   3.7009346255
	    H     0.0001527971  -2.1521524560   2.4591980305
	    H     0.0117290738  -2.1612963676  -0.0032816640
	    N    -0.6267207428  -0.9662440701  -2.3209402391
	    N     0.6301115586   0.9597829415  -2.3097153524
	    H     0.6026844247   1.0408516981  -3.3195075477
	    H     1.2496003281   1.5898839755  -1.8171810948
	    H    -1.2550080530  -1.6002745727  -1.8441478210
	    H    -0.5541011134  -1.0616151188  -3.3271243271
			--------------------------
			 OPTKING Finished Execution 
			--------------------------

    Structure for next step:
    Molecular point group: c1
    Full point group: C1

    Geometry (in Angstrom), charge = 1, multiplicity = 1:

    C           -0.032753298338     0.005867686671    -0.176525163867
    C            0.005150696076     1.223032426278     0.531106003178
    C            0.018776753486     1.214786415862     1.922064635680
    C            0.008159306026     0.000684975880     2.615304296128
    C           -0.013665447821    -1.211094330530     1.918522787549
    C           -0.031774687801    -1.214452950303     0.527655072695
    C           -0.022003793078     0.007619740564    -1.645187275601
    H           -0.037735724607     2.172050873980     0.003991113192
    H            0.025662296684     2.153823638469     2.465834921161
    H            0.021735626212    -0.001255506692     3.700934625523
    H            0.000152797144    -2.152152455996     2.459198030506
    H            0.011729073825    -2.161296367649    -0.003281663961
    N           -0.626720742814    -0.966244070085    -2.320940239137
    N            0.630111558647     0.959782941462    -2.309715352438
    H            0.602684424721     1.040851698136    -3.319507547698
    H            1.249600328063     1.589883975459    -1.817181094795
    H           -1.255008052978    -1.600274572698    -1.844147820979
    H           -0.554101113448    -1.061615118808    -3.327124327137

gradient() will perform analytic gradient computation.

*** tstart() called on computer04
*** at Tue Dec 12 14:45:19 2017


         ---------------------------------------------------------
                                   SCF
            by Justin Turney, Rob Parrish, and Andy Simmonett
                              RKS Reference
                        1 Threads,   3145 MiB Core
         ---------------------------------------------------------

  ==> Geometry <==

    Molecular point group: c1
    Full point group: C1

    Geometry (in Angstrom), charge = 1, multiplicity = 1:

       Center              X                  Y                   Z               Mass       
    ------------   -----------------  -----------------  -----------------  -----------------
           C         -0.032753298338     0.005867686671    -0.176525163867    12.000000000000
           C          0.005150696076     1.223032426278     0.531106003178    12.000000000000
           C          0.018776753486     1.214786415862     1.922064635680    12.000000000000
           C          0.008159306026     0.000684975880     2.615304296128    12.000000000000
           C         -0.013665447821    -1.211094330530     1.918522787549    12.000000000000
           C         -0.031774687801    -1.214452950303     0.527655072695    12.000000000000
           C         -0.022003793078     0.007619740564    -1.645187275601    12.000000000000
           H         -0.037735724607     2.172050873980     0.003991113192     1.007825032070
           H          0.025662296684     2.153823638469     2.465834921161     1.007825032070
           H          0.021735626212    -0.001255506692     3.700934625523     1.007825032070
           H          0.000152797144    -2.152152455996     2.459198030506     1.007825032070
           H          0.011729073825    -2.161296367649    -0.003281663961     1.007825032070
           N         -0.626720742814    -0.966244070085    -2.320940239137    14.003074004780
           N          0.630111558647     0.959782941462    -2.309715352438    14.003074004780
           H          0.602684424721     1.040851698136    -3.319507547698     1.007825032070
           H          1.249600328063     1.589883975459    -1.817181094795     1.007825032070
           H         -1.255008052978    -1.600274572698    -1.844147820979     1.007825032070
           H         -0.554101113448    -1.061615118808    -3.327124327137     1.007825032070

  Running in c1 symmetry.

  Rotational constants: A =      0.12213  B =      0.03962  C =      0.03104 [cm^-1]
  Rotational constants: A =   3661.40643  B =   1187.65054  C =    930.40800 [MHz]
  Nuclear repulsion =  416.662382797069540

  Charge       = 1
  Multiplicity = 1
  Electrons    = 64
  Nalpha       = 32
  Nbeta        = 32

  ==> Algorithm <==

  SCF Algorithm Type is DF.
  DIIS enabled.
  MOM disabled.
  Fractional occupation disabled.
  Guess Type is READ.
  Energy threshold   = 1.00e-08
  Density threshold  = 1.00e-08
  Integral threshold = 0.00e+00

  ==> Primary Basis <==

  Basis Set: 6-31G*
    Number of shells: 72
    Number of basis function: 153
    Number of Cartesian functions: 153
    Spherical Harmonics?: false
    Max angular momentum: 2

  ==> DFT Potential <==

   => B3LYP-D3 Composite Functional <= 

    B3LYP Hybrid-GGA Exchange-Correlation Functional (VWN1-RPA)

    P.J. Stephens et. al., J. Phys. Chem., 98, 11623-11627, 1994

    Points   =           5000
    Deriv    =              1
    GGA      =           TRUE
    Meta     =          FALSE

    X_LRC        =          FALSE
    X_Hybrid     =           TRUE
    X_Alpha      =   2.000000E-01
    X_Omega      =   0.000000E+00
    C_LRC        =          FALSE
    C_Hybrid     =          FALSE
    C_Alpha      =   0.000000E+00
    C_Omega      =   0.000000E+00

   => Exchange Functionals <=

    0.8000    B3_X
    0.2000      HF 

   => Correlation Functionals <=

    0.1900 VWN3RPA_C
    0.8100   LYP_C

   => -D3ZERO: Empirical Dispersion <=

    Grimme's -D3 (zero-damping) Dispersion Correction

    Grimme S.; Antony J.; Ehrlich S.; Krieg H. (2010), J. Chem. Phys., 132: 154104

    S6  =   1.000000E+00
    S8  =   1.703000E+00
    SR6 =   1.261000E+00
    A6  =   1.400000E+01

   => Molecular Quadrature <=

    Radial Scheme    =       TREUTLER
    Pruning Scheme   =           FLAT
    Nuclear Scheme   =       TREUTLER

    BS radius alpha  =              1
    Pruning alpha    =              1
    Radial Points    =             75
    Spherical Points =            302
    Total Points     =         396898
    Total Blocks     =            361
    Max Points       =           4840
    Max Functions    =            151

  ==> Pre-Iterations <==

   -------------------------------------------------------
    Irrep   Nso     Nmo     Nalpha   Nbeta   Ndocc  Nsocc
   -------------------------------------------------------
     A        153     153       0       0       0       0
   -------------------------------------------------------
    Total     153     153      32      32      32       0
   -------------------------------------------------------

  ==> Integral Setup <==

  ==> DFJK: Density-Fitted J/K Matrices <==

    J tasked:                  Yes
    K tasked:                  Yes
    wK tasked:                  No
    OpenMP threads:              1
    Integrals threads:           1
    Memory (MB):              2250
    Algorithm:                Core
    Integral Cache:           NONE
    Schwarz Cutoff:          1E-12
    Fitting Condition:       1E-12

   => Auxiliary Basis Set <=

  Basis Set: 
    Number of shells: 297
    Number of basis function: 954
    Number of Cartesian functions: 954
    Spherical Harmonics?: false
    Max angular momentum: 3

  Minimum eigenvalue in the overlap matrix is 4.8817452435E-04.
  Using Symmetric Orthogonalization.
  SCF Guess: Reading in previously saved MOs, projecting if necessary.

  Using orbitals from previous SCF, no projection.
  Recomputing DOCC and SOCC from number of alpha and beta electrons from previous calculation.
              A 
    DOCC [    32 ]

  ==> Iterations <==

                           Total Energy        Delta E     RMS |[F,P]|

   @DF-RKS iter   0:  -381.46220400894390   -3.81462e+02   5.38751e-04 
   @DF-RKS iter   1:  -381.47022430191635   -8.02029e-03   3.92235e-05 
   @DF-RKS iter   2:  -381.47023959015235   -1.52882e-05   3.95527e-05 DIIS
   @DF-RKS iter   3:  -381.47025611131426   -1.65212e-05   1.72064e-05 DIIS
   @DF-RKS iter   4:  -381.47025966637216   -3.55506e-06   5.83826e-06 DIIS
   @DF-RKS iter   5:  -381.47026006743477   -4.01063e-07   1.32635e-06 DIIS
   @DF-RKS iter   6:  -381.47026008426849   -1.68337e-08   5.40533e-07 DIIS
   @DF-RKS iter   7:  -381.47026008737157   -3.10308e-09   1.09938e-07 DIIS
   @DF-RKS iter   8:  -381.47026008746991   -9.83391e-11   6.16396e-08 DIIS
   @DF-RKS iter   9:  -381.47026008751379   -4.38831e-11   1.24847e-08 DIIS
   @DF-RKS iter  10:  -381.47026008751470   -9.09495e-13   5.38396e-09 DIIS

  ==> Post-Iterations <==

    Orbital Energies (a.u.)
    -----------------------

    Doubly Occupied:                                                      

       1A    -14.567495     2A    -14.567273     3A    -10.497371  
       4A    -10.374319     5A    -10.357084     6A    -10.356736  
       7A    -10.343705     8A    -10.340885     9A    -10.340821  
      10A     -1.183268    11A     -1.090732    12A     -1.014547  
      13A     -0.926783    14A     -0.902678    15A     -0.845617  
      16A     -0.785489    17A     -0.773588    18A     -0.740136  
      19A     -0.733714    20A     -0.688214    21A     -0.669150  
      22A     -0.626416    23A     -0.615933    24A     -0.588546  
      25A     -0.579681    26A     -0.573228    27A     -0.518295  
      28A     -0.506218    29A     -0.498446    30A     -0.472231  
      31A     -0.412143    32A     -0.406144  

    Virtual:                                                              

      33A     -0.218787    34A     -0.157690    35A     -0.125937  
      36A     -0.108232    37A     -0.067984    38A     -0.062025  
      39A     -0.038030    40A     -0.034685    41A      0.007253  
      42A      0.020899    43A      0.021108    44A      0.056955  
      45A      0.062310    46A      0.083824    47A      0.125022  
      48A      0.143082    49A      0.157284    50A      0.161921  
      51A      0.201599    52A      0.243634    53A      0.299186  
      54A      0.350214    55A      0.354347    56A      0.380637  
      57A      0.387881    58A      0.397106    59A      0.420824  
      60A      0.422907    61A      0.441786    62A      0.449184  
      63A      0.454140    64A      0.471116    65A      0.472208  
      66A      0.474614    67A      0.484632    68A      0.511489  
      69A      0.527030    70A      0.535024    71A      0.539130  
      72A      0.594491    73A      0.605650    74A      0.655792  
      75A      0.660262    76A      0.683064    77A      0.688616  
      78A      0.703874    79A      0.716462    80A      0.722113  
      81A      0.744066    82A      0.774619    83A      0.780505  
      84A      0.800922    85A      0.813304    86A      0.830581  
      87A      0.850191    88A      0.940397    89A      0.958249  
      90A      0.992510    91A      1.005773    92A      1.028169  
      93A      1.069308    94A      1.079568    95A      1.136136  
      96A      1.170928    97A      1.209188    98A      1.271264  
      99A      1.280603   100A      1.306598   101A      1.322939  
     102A      1.345112   103A      1.363883   104A      1.374528  
     105A      1.443945   106A      1.453660   107A      1.474894  
     108A      1.612402   109A      1.620591   110A      1.652943  
     111A      1.664364   112A      1.735519   113A      1.751909  
     114A      1.795231   115A      1.823217   116A      1.853427  
     117A      1.902655   118A      1.906016   119A      1.956256  
     120A      1.973859   121A      1.996594   122A      2.017508  
     123A      2.040105   124A      2.061615   125A      2.125982  
     126A      2.127048   127A      2.151913   128A      2.209947  
     129A      2.240089   130A      2.262990   131A      2.344014  
     132A      2.361953   133A      2.447451   134A      2.453704  
     135A      2.488663   136A      2.507621   137A      2.544929  
     138A      2.588124   139A      2.604652   140A      2.631007  
     141A      2.738480   142A      2.881477   143A      2.987748  
     144A      3.257684   145A      3.637561   146A      3.659169  
     147A      3.906846   148A      3.946881   149A      3.962521  
     150A      4.050265   151A      4.172188   152A      4.257165  
     153A      4.545303  

    Final Occupation by Irrep:
              A 
    DOCC [    32 ]

  Energy converged.

  @DF-RKS Final Energy:  -381.47026008751470

   => Energetics <=

    Nuclear Repulsion Energy =            416.6623827970695402
    One-Electron Energy =               -1328.5253233356629607
    Two-Electron Energy =                 574.8081342004801400
    DFT Exchange-Correlation Energy =     -44.4035769394014324
    Empirical Dispersion Energy =          -0.0118768100000000
    PCM Polarization Energy =               0.0000000000000000
    EFP Energy =                            0.0000000000000000
    Total Energy =                       -381.4702600875147027


  Saving occupied orbitals to File 180.

*** tstop() called on computer04 at Tue Dec 12 14:46:30 2017
Module time:
	user time   =      69.99 seconds =       1.17 minutes
	system time =       0.33 seconds =       0.01 minutes
	total time  =         71 seconds =       1.18 minutes
Total time:
	user time   =     177.96 seconds =       2.97 minutes
	system time =       0.99 seconds =       0.02 minutes
	total time  =        180 seconds =       3.00 minutes


Properties will be evaluated at   0.000000,   0.000000,   0.000000 Bohr

Properties computed using the SCF density matrix

  Nuclear Dipole Moment: (a.u.)
     X:    -0.6051      Y:     0.1766      Z:     0.1167

  Electronic Dipole Moment: (a.u.)
     X:     0.6228      Y:    -0.1877      Z:    -2.3529

  Dipole Moment: (a.u.)
     X:     0.0177      Y:    -0.0111      Z:    -2.2362     Total:     2.2363

  Dipole Moment: (Debye)
     X:     0.0450      Y:    -0.0282      Z:    -5.6839     Total:     5.6841


*** tstart() called on computer04
*** at Tue Dec 12 14:46:30 2017


         ------------------------------------------------------------
                                   SCF GRAD                          
                          Rob Parrish, Justin Turney,                
                       Andy Simmonett, and Alex Sokolov              
         ------------------------------------------------------------

  ==> Geometry <==

    Molecular point group: c1
    Full point group: C1

    Geometry (in Angstrom), charge = 1, multiplicity = 1:

       Center              X                  Y                   Z               Mass       
    ------------   -----------------  -----------------  -----------------  -----------------
           C         -0.032753298338     0.005867686671    -0.176525163867    12.000000000000
           C          0.005150696076     1.223032426278     0.531106003178    12.000000000000
           C          0.018776753486     1.214786415862     1.922064635680    12.000000000000
           C          0.008159306026     0.000684975880     2.615304296128    12.000000000000
           C         -0.013665447821    -1.211094330530     1.918522787549    12.000000000000
           C         -0.031774687801    -1.214452950303     0.527655072695    12.000000000000
           C         -0.022003793078     0.007619740564    -1.645187275601    12.000000000000
           H         -0.037735724607     2.172050873980     0.003991113192     1.007825032070
           H          0.025662296684     2.153823638469     2.465834921161     1.007825032070
           H          0.021735626212    -0.001255506692     3.700934625523     1.007825032070
           H          0.000152797144    -2.152152455996     2.459198030506     1.007825032070
           H          0.011729073825    -2.161296367649    -0.003281663961     1.007825032070
           N         -0.626720742814    -0.966244070085    -2.320940239137    14.003074004780
           N          0.630111558647     0.959782941462    -2.309715352438    14.003074004780
           H          0.602684424721     1.040851698136    -3.319507547698     1.007825032070
           H          1.249600328063     1.589883975459    -1.817181094795     1.007825032070
           H         -1.255008052978    -1.600274572698    -1.844147820979     1.007825032070
           H         -0.554101113448    -1.061615118808    -3.327124327137     1.007825032070

  Nuclear repulsion =  416.662382797069540

  ==> Basis Set <==

  Basis Set: 6-31G*
    Number of shells: 72
    Number of basis function: 153
    Number of Cartesian functions: 153
    Spherical Harmonics?: false
    Max angular momentum: 2

  ==> DFJKGrad: Density-Fitted SCF Gradients <==

    Gradient:                    1
    J tasked:                  Yes
    K tasked:                  Yes
    wK tasked:                  No
    OpenMP threads:              1
    Integrals threads:           1
    Memory (MB):              2250
    Schwarz Cutoff:          0E+00
    Fitting Condition:       1E-12

   => Auxiliary Basis Set <=

  Basis Set: 
    Number of shells: 297
    Number of basis function: 954
    Number of Cartesian functions: 954
    Spherical Harmonics?: false
    Max angular momentum: 3

  ==> DFT Potential <==

   => B3LYP-D3 Composite Functional <= 

    B3LYP Hybrid-GGA Exchange-Correlation Functional (VWN1-RPA)

    P.J. Stephens et. al., J. Phys. Chem., 98, 11623-11627, 1994

    Points   =           5000
    Deriv    =              1
    GGA      =           TRUE
    Meta     =          FALSE

    X_LRC        =          FALSE
    X_Hybrid     =           TRUE
    X_Alpha      =   2.000000E-01
    X_Omega      =   0.000000E+00
    C_LRC        =          FALSE
    C_Hybrid     =          FALSE
    C_Alpha      =   0.000000E+00
    C_Omega      =   0.000000E+00

   => Exchange Functionals <=

    0.8000    B3_X
    0.2000      HF 

   => Correlation Functionals <=

    0.1900 VWN3RPA_C
    0.8100   LYP_C

   => -D3ZERO: Empirical Dispersion <=

    Grimme's -D3 (zero-damping) Dispersion Correction

    Grimme S.; Antony J.; Ehrlich S.; Krieg H. (2010), J. Chem. Phys., 132: 154104

    S6  =   1.000000E+00
    S8  =   1.703000E+00
    SR6 =   1.261000E+00
    A6  =   1.400000E+01

   => Molecular Quadrature <=

    Radial Scheme    =       TREUTLER
    Pruning Scheme   =           FLAT
    Nuclear Scheme   =       TREUTLER

    BS radius alpha  =              1
    Pruning alpha    =              1
    Radial Points    =             75
    Spherical Points =            302
    Total Points     =         396898
    Total Blocks     =            361
    Max Points       =           4840
    Max Functions    =            151


  -Total Gradient:
     Atom            X                  Y                   Z
    ------   -----------------  -----------------  -----------------
       1       -0.002009252788    -0.000662534204     0.000511813423
       2        0.002073755387    -0.000177373884     0.000229609613
       3        0.000144577352     0.000068630057     0.000083001093
       4       -0.000112706391     0.000004340764    -0.000242544132
       5       -0.000239626498    -0.000109950469    -0.000033210461
       6        0.000185448624     0.000134694958     0.000775089535
       7       -0.003752226396     0.002148231476     0.000006106814
       8       -0.000103650632     0.000117213426     0.000299882317
       9       -0.000092456321    -0.000014586847     0.000054737383
      10        0.000052056927    -0.000027355178     0.000032429274
      11        0.000046670007    -0.000130361273     0.000181133209
      12        0.000440185824    -0.000197819445     0.000272641119
      13        0.002147351565    -0.000303383095    -0.000853202707
      14        0.000559804537    -0.000505512552    -0.001022633442
      15        0.000198388513     0.000054462034    -0.000234464493
      16        0.000396651005     0.000057475444    -0.000138527959
      17       -0.000060238443    -0.000439412993     0.000208382138
      18        0.000125502112    -0.000016753781    -0.000154385301


*** tstop() called on computer04 at Tue Dec 12 14:46:54 2017
Module time:
	user time   =      23.17 seconds =       0.39 minutes
	system time =       0.19 seconds =       0.00 minutes
	total time  =         24 seconds =       0.40 minutes
Total time:
	user time   =     201.14 seconds =       3.35 minutes
	system time =       1.18 seconds =       0.02 minutes
	total time  =        204 seconds =       3.40 minutes

			-----------------------------------------
			 OPTKING 2.0: for geometry optimizations 
			  - R.A. King,  Bethel University        
			-----------------------------------------
	At level 1: Red. Int., RFO, no backsteps, dynamic trust

	Previous internal coordinate definitions found.
	---Fragment 1 Geometry and Gradient---
	 C          -0.0618947638        0.0110883208       -0.3335842153
	 C           0.0097334050        2.3111963373        1.0036448935
	 C           0.0354829218        2.2956136359        3.6321757711
	 C           0.0154188538        0.0012944168        4.9422088738
	 C          -0.0258239539       -2.2886366058        3.6254826482
	 C          -0.0600454579       -2.2949834773        0.9971235800
	 C          -0.0415811428        0.0143992229       -3.1089533882
	 H          -0.0713101849        4.1045812985        0.0075421109
	 H           0.0484947127        4.0701368152        4.6597526899
	 H           0.0410743809       -0.0023725638        6.9937528780
	 H           0.0002887448       -4.0669787380        4.6472107842
	 H           0.0221647373       -4.0842582269       -0.0062014461
	 N          -1.1843305657       -1.8259366700       -4.3859414228
	 N           1.1907382790        1.8137269064       -4.3647294610
	 H           1.1389085073        1.9669246544       -6.2729601612
	 H           2.3614023956        3.0044452967       -3.4339746030
	 H          -2.3716215147       -3.0240806798       -3.4849343302
	 H          -1.0470993543       -2.0061618331       -6.2873537884
	            -0.0020092528       -0.0006625342        0.0005118134
	             0.0020737554       -0.0001773739        0.0002296096
	             0.0001445774        0.0000686301        0.0000830011
	            -0.0001127064        0.0000043408       -0.0002425441
	            -0.0002396265       -0.0001099505       -0.0000332105
	             0.0001854486        0.0001346950        0.0007750895
	            -0.0037522264        0.0021482315        0.0000061068
	            -0.0001036506        0.0001172134        0.0002998823
	            -0.0000924563       -0.0000145868        0.0000547374
	             0.0000520569       -0.0000273552        0.0000324293
	             0.0000466700       -0.0001303613        0.0001811332
	             0.0004401858       -0.0001978194        0.0002726411
	             0.0021473516       -0.0003033831       -0.0008532027
	             0.0005598045       -0.0005055126       -0.0010226334
	             0.0001983885        0.0000544620       -0.0002344645
	             0.0003966510        0.0000574754       -0.0001385280
	            -0.0000602384       -0.0004394130        0.0002083821
	             0.0001255021       -0.0000167538       -0.0001543853

	---Fragment 1 Intrafragment Coordinates---
	 - Coordinate -           - BOHR/RAD -       - ANG/DEG -
	 R(1,2)           =         2.661543	       1.408428
	 R(1,6)           =         2.662471	       1.408919
	 R(1,7)           =         2.775445	       1.468702
	 R(2,3)           =         2.628703	       1.391050
	 R(2,8)           =         2.053051	       1.086428
	 R(3,4)           =         2.642062	       1.398119
	 R(3,9)           =         2.050614	       1.085138
	 R(4,5)           =         2.641828	       1.397995
	 R(4,10)          =         2.051708	       1.085717
	 R(5,6)           =         2.628590	       1.390990
	 R(5,11)          =         2.051124	       1.085408
	 R(6,12)          =         2.053028	       1.086416
	 R(7,13)          =         2.514639	       1.330690
	 R(7,14)          =         2.516578	       1.331716
	 R(13,17)         =         1.912334	       1.011964
	 R(13,18)         =         1.914858	       1.013299
	 R(14,15)         =         1.915072	       1.013412
	 R(14,16)         =         1.911693	       1.011624
	 B(1,2,3)         =         2.091550	     119.836992
	 B(1,2,8)         =         2.106060	     120.668368
	 B(1,6,5)         =         2.091713	     119.846339
	 B(1,6,12)        =         2.106724	     120.706371
	 B(1,7,13)        =         2.098567	     120.239024
	 B(1,7,14)        =         2.098354	     120.226833
	 B(2,1,6)         =         2.091380	     119.827243
	 B(2,1,7)         =         2.095764	     120.078405
	 B(2,3,4)         =         2.095409	     120.058121
	 B(2,3,9)         =         2.089790	     119.736147
	 B(3,2,8)         =         2.083706	     119.387569
	 B(3,4,5)         =         2.100987	     120.377682
	 B(3,4,10)        =         2.091228	     119.818555
	 B(4,3,9)         =         2.097915	     120.201695
	 B(4,5,6)         =         2.095166	     120.044163
	 B(4,5,11)        =         2.097917	     120.201774
	 B(5,4,10)        =         2.090959	     119.803115
	 B(5,6,12)        =         2.083167	     119.356699
	 B(6,1,7)         =         2.095338	     120.054010
	 B(6,5,11)        =         2.089966	     119.746232
	 B(7,13,17)       =         2.096022	     120.093221
	 B(7,13,18)       =         2.141909	     122.722364
	 B(7,14,15)       =         2.142615	     122.762796
	 B(7,14,16)       =         2.097000	     120.149224
	 B(13,7,14)       =         2.085631	     119.497831
	 B(15,14,16)      =         2.039671	     116.864525
	 B(17,13,18)      =         2.041342	     116.960300
	 D(1,2,3,4)       =         0.010966	       0.628331
	 D(1,2,3,9)       =        -3.117894	    -178.642194
	 D(1,6,5,4)       =        -0.003836	      -0.219785
	 D(1,6,5,11)      =        -3.127699	    -179.203947
	 D(1,7,13,17)     =         0.223161	      12.786192
	 D(1,7,13,18)     =        -3.016296	    -172.821042
	 D(1,7,14,15)     =        -3.054990	    -175.038055
	 D(1,7,14,16)     =         0.184414	      10.566161
	 D(2,1,6,5)       =         0.016813	       0.963335
	 D(2,1,6,12)      =        -3.063990	    -175.553720
	*D(2,1,7,13)      =        -2.617994	    -150.000026
	 D(2,1,7,14)      =         0.562041	      32.202560
	 D(2,3,4,5)       =         0.002068	       0.118497
	 D(2,3,4,10)      =         3.138539	     179.825054
	 D(3,2,1,6)       =        -0.020382	      -1.167806
	 D(3,2,1,7)       =        -3.121682	    -178.859185
	 D(3,4,5,6)       =        -0.005663	      -0.324447
	 D(3,4,5,11)      =         3.118119	     178.655046
	 D(4,3,2,8)       =         3.087349	     176.892039
	 D(4,5,6,12)      =         3.077791	     176.344438
	 D(5,4,3,9)       =         3.130869	     179.385596
	 D(5,6,1,7)       =         3.118123	     178.655284
	 D(6,1,2,8)       =        -3.095915	    -177.382852
	 D(6,1,7,13)      =         0.563983	      32.313866
	 D(6,1,7,14)      =        -2.539167	    -145.483548
	 D(6,5,4,10)      =         3.141051	     179.968950
	 D(7,1,2,8)       =         0.085971	       4.925768
	 D(7,1,6,12)      =         0.037319	       2.138229
	 D(8,2,3,9)       =        -0.041512	      -2.378486
	 D(9,3,4,10)      =        -0.015845	      -0.907846
	 D(10,4,5,11)     =        -0.018353	      -1.051556
	 D(11,5,6,12)     =        -0.046072	      -2.639725
	 D(13,7,14,15)    =         0.124760	       7.148219
	 D(13,7,14,16)    =        -2.919021	    -167.247565
	 D(14,7,13,17)    =        -2.956594	    -169.400354
	 D(14,7,13,18)    =         0.087134	       4.992413

	Current energy   :      -381.4702600875

	Energy change for the previous step:
		Projected    :        -0.0007080061
		Actual       :        -0.0000646800
	Energy ratio indicates iffy step: Trust radius decreased to 1.250e-01.


	Performing BFGS update.
	Previous computed or guess Hessian on step 1.
	Steps to be used in Hessian update: 1
	Taking RFO optimization step.
	Going to follow RFO solution 1.
	Using RFO vector 1.
	Norm of target step-size    0.05486
	Projected energy change by RFO approximation:        -0.0001201285

	Back-transformation to cartesian coordinates...
	Successfully converged to displaced geometry.

	Back-transformation to cartesian coordinates to adjust frozen coordinates...
	Successfully converged to displaced geometry.

	--- Internal Coordinate Step in ANG or DEG, aJ/ANG or AJ/DEG ---
	 ---------------------------------------------------------------------------
	   Coordinate                Previous        Force       Change         New 
	   ----------                --------       ------       ------       ------
	    1 R(1,2)          =      1.408428    -0.004255    -0.000350     1.408078
	    2 R(1,6)          =      1.408919    -0.007801    -0.000826     1.408093
	    3 R(1,7)          =      1.468702    -0.017941    -0.001866     1.466836
	    4 R(2,3)          =      1.391050    -0.000868    -0.000136     1.390914
	    5 R(2,8)          =      1.086428     0.000327    -0.000080     1.086348
	    6 R(3,4)          =      1.398119     0.001368     0.000067     1.398186
	    7 R(3,9)          =      1.085138    -0.000122    -0.000017     1.085121
	    8 R(4,5)          =      1.397995     0.002112     0.000171     1.398166
	    9 R(4,10)         =      1.085717    -0.000284    -0.000061     1.085656
	   10 R(5,6)          =      1.390990     0.000218    -0.000026     1.390964
	   11 R(5,11)         =      1.085408    -0.001685    -0.000279     1.085129
	   12 R(6,12)         =      1.086416    -0.000463    -0.000164     1.086251
	   13 R(7,13)         =      1.330690     0.000380     0.000035     1.330725
	   14 R(7,14)         =      1.331716    -0.008065    -0.000859     1.330857
	   15 R(13,17)        =      1.011964    -0.003387    -0.000600     1.011364
	   16 R(13,18)        =      1.013299    -0.001341    -0.000212     1.013087
	   17 R(14,15)        =      1.013412    -0.001905    -0.000298     1.013115
	   18 R(14,16)        =      1.011624    -0.001747    -0.000347     1.011277
	   19 B(1,2,3)        =    119.836992    -0.000020    -0.029996   119.806997
	   20 B(1,2,8)        =    120.668368    -0.000015    -0.030804   120.637564
	   21 B(1,6,5)        =    119.846339    -0.000032    -0.059559   119.786780
	   22 B(1,6,12)       =    120.706371    -0.000010    -0.031597   120.674774
	   23 B(1,7,13)       =    120.239024    -0.000059    -0.077105   120.161919
	   24 B(1,7,14)       =    120.226833    -0.000080    -0.124641   120.102192
	   25 B(2,1,6)        =    119.827243     0.000064     0.094814   119.922057
	   26 B(2,1,7)        =    120.078405    -0.000019    -0.022159   120.056246
	   27 B(2,3,4)        =    120.058121    -0.000009    -0.014385   120.043736
	   28 B(2,3,9)        =    119.736147     0.000000    -0.003552   119.732595
	   29 B(3,2,8)        =    119.387569     0.000035     0.074162   119.461731
	   30 B(3,4,5)        =    120.377682    -0.000006    -0.004199   120.373483
	   31 B(3,4,10)       =    119.818555     0.000001    -0.005741   119.812814
	   32 B(4,3,9)        =    120.201695     0.000009     0.018968   120.220663
	   33 B(4,5,6)        =    120.044163     0.000004     0.018608   120.062772
	   34 B(4,5,11)       =    120.201774     0.000005     0.013915   120.215688
	   35 B(5,4,10)       =    119.803115     0.000005     0.010467   119.813582
	   36 B(5,6,12)       =    119.356699     0.000043     0.099500   119.456198
	   37 B(6,1,7)        =    120.054010    -0.000045    -0.062350   119.991660
	   38 B(6,5,11)       =    119.746232    -0.000009    -0.030273   119.715959
	   39 B(7,13,17)      =    120.093221    -0.000008    -0.016074   120.077148
	   40 B(7,13,18)      =    122.722364     0.000008     0.001569   122.723933
	   41 B(7,14,15)      =    122.762796    -0.000003    -0.011356   122.751440
	   42 B(7,14,16)      =    120.149224    -0.000014    -0.022826   120.126398
	   43 B(13,7,14)      =    119.497831     0.000140     0.232189   119.730020
	   44 B(15,14,16)     =    116.864525     0.000019     0.070630   116.935156
	   45 B(17,13,18)     =    116.960300    -0.000002    -0.032511   116.927789
	   46 D(1,2,3,4)      =      0.628331    -0.000001    -0.118032     0.510299
	   47 D(1,2,3,9)      =   -178.642194    -0.000002    -0.218151  -178.860345
	   48 D(1,6,5,4)      =     -0.219785     0.000002     0.162507    -0.057277
	   49 D(1,6,5,11)     =   -179.203947     0.000000     0.004162  -179.199785
	   50 D(1,7,13,17)    =     12.786192    -0.000001    -0.231164    12.555027
	   51 D(1,7,13,18)    =   -172.821042    -0.000007    -0.791658  -173.612699
	   52 D(1,7,14,15)    =   -175.038055     0.000007     0.822012  -174.216043
	   53 D(1,7,14,16)    =     10.566161     0.000001     0.342175    10.908336
	   54 D(2,1,6,5)      =      0.963335    -0.000003    -0.397776     0.565559
	   55 D(2,1,6,12)     =   -175.553720    -0.000005    -0.565182  -176.118903
	   56 *D(2,1,7,13)    =   -150.000026     0.000000    -0.000000  -150.000026
	   57 D(2,1,7,14)     =     32.202560    -0.000012    -1.318986    30.883574
	   58 D(2,3,4,5)      =      0.118497    -0.000001    -0.119859    -0.001362
	   59 D(2,3,4,10)     =    179.825054     0.000000     0.046808   179.871863
	   60 D(3,2,1,6)      =     -1.167806     0.000003     0.375230    -0.792576
	   61 D(3,2,1,7)      =   -178.859185     0.000001     0.060039  -178.799146
	   62 D(3,4,5,6)      =     -0.324447     0.000001     0.097235    -0.227212
	   63 D(3,4,5,11)     =    178.655046     0.000002     0.255926   178.910972
	   64 D(4,3,2,8)      =    176.892039     0.000001     0.121517   177.013556
	   65 D(4,5,6,12)     =    176.344438     0.000003     0.323363   176.667801
	   66 D(5,4,3,9)      =    179.385596    -0.000000    -0.019414   179.366182
	   67 D(5,6,1,7)      =    178.655284    -0.000001    -0.081855   178.573429
	   68 D(6,1,2,8)      =   -177.382852     0.000000     0.128836  -177.254016
	   69 D(6,1,7,13)     =     32.313866    -0.000002    -0.319066    31.994800
	   70 D(6,1,7,14)     =   -145.483548    -0.000014    -1.638052  -147.121600
	   71 D(6,5,4,10)     =    179.968950    -0.000001    -0.069387   179.899564
	   72 D(7,1,2,8)      =      4.925768    -0.000002    -0.186355     4.739413
	   73 D(7,1,6,12)     =      2.138229    -0.000003    -0.249262     1.888967
	   74 D(8,2,3,9)      =     -2.378486     0.000000     0.021398    -2.357088
	   75 D(9,3,4,10)     =     -0.907846     0.000001     0.147253    -0.760593
	   76 D(10,4,5,11)    =     -1.051556     0.000001     0.089305    -0.962252
	   77 D(11,5,6,12)    =     -2.639725     0.000002     0.165018    -2.474707
	   78 D(13,7,14,15)   =      7.148219    -0.000003    -0.484492     6.663727
	   79 D(13,7,14,16)   =   -167.247565    -0.000009    -0.964328  -168.211893
	   80 D(14,7,13,17)   =   -169.400354     0.000009     1.075078  -168.325276
	   81 D(14,7,13,18)   =      4.992413     0.000004     0.514585     5.506997
	 ---------------------------------------------------------------------------
	Successfully symmetrized geometry.

  ==> Convergence Check <==

  Measures of convergence in internal coordinates in au.
  Criteria marked as inactive (o), active & met (*), and active & unmet ( ).
  ---------------------------------------------------------------------------------------------
   Step     Total Energy     Delta E     MAX Force     RMS Force      MAX Disp      RMS Disp   
  ---------------------------------------------------------------------------------------------
    Convergence Criteria    1.00e-06 *    3.00e-04 *             o    1.20e-03 *             o
  ---------------------------------------------------------------------------------------------
      2    -381.47026009   -6.47e-05      2.18e-03      4.57e-04 o    2.86e-02      6.09e-03 o  ~
  ---------------------------------------------------------------------------------------------

	Writing optimization data to binary file.
	Structure for next step:
	Cartesian Geometry (in Angstrom)
	    C    -0.0257104914   0.0021933451  -0.1772886544
	    C     0.0137430971   1.2204393608   0.5276953691
	    C     0.0273537512   1.2142713396   1.9185291847
	    C     0.0126816067   0.0010392258   2.6133496447
	    C    -0.0157226442  -1.2116015228   1.9179628123
	    C    -0.0343422544  -1.2170035461   0.5271340397
	    C    -0.0136389644   0.0014707354  -1.6440748349
	    H    -0.0239579826   2.1681065703  -0.0020754827
	    H     0.0390264803   2.1541184379   2.4607828010
	    H     0.0254890775   0.0005611948   3.6989299079
	    H    -0.0092393602  -2.1519325637   2.4594796432
	    H    -0.0013759079  -2.1640552431  -0.0038535418
	    N    -0.6199996195  -0.9732220646  -2.3172244630
	    N     0.6191111112   0.9666329111  -2.3068485148
	    H     0.5821025694   1.0540102273  -3.3155094582
	    H     1.2277882939   1.6061389643  -1.8136701269
	    H    -1.2463978599  -1.6064234398  -1.8381224059
	    H    -0.5569109029  -1.0647449322  -3.3241949200
			--------------------------
			 OPTKING Finished Execution 
			--------------------------

    Structure for next step:
    Molecular point group: c1
    Full point group: C1

    Geometry (in Angstrom), charge = 1, multiplicity = 1:

    C           -0.025710491355     0.002193345084    -0.177288654380
    C            0.013743097127     1.220439360761     0.527695369108
    C            0.027353751193     1.214271339561     1.918529184736
    C            0.012681606727     0.001039225791     2.613349644676
    C           -0.015722644156    -1.211601522789     1.917962812275
    C           -0.034342254413    -1.217003546118     0.527134039671
    C           -0.013638964445     0.001470735394    -1.644074834901
    H           -0.023957982569     2.168106570291    -0.002075482729
    H            0.039026480251     2.154118437935     2.460782800964
    H            0.025489077451     0.000561194844     3.698929907920
    H           -0.009239360192    -2.151932563662     2.459479643159
    H           -0.001375907855    -2.164055243146    -0.003853541780
    N           -0.619999619497    -0.973222064636    -2.317224462990
    N            0.619111111178     0.966632911096    -2.306848514805
    H            0.582102569371     1.054010227304    -3.315509458150
    H            1.227788293933     1.606138964250    -1.813670126877
    H           -1.246397859860    -1.606423439790    -1.838122405930
    H           -0.556910902888    -1.064744932171    -3.324194919967

gradient() will perform analytic gradient computation.

*** tstart() called on computer04
*** at Tue Dec 12 14:46:54 2017


         ---------------------------------------------------------
                                   SCF
            by Justin Turney, Rob Parrish, and Andy Simmonett
                              RKS Reference
                        1 Threads,   3145 MiB Core
         ---------------------------------------------------------

  ==> Geometry <==

    Molecular point group: c1
    Full point group: C1

    Geometry (in Angstrom), charge = 1, multiplicity = 1:

       Center              X                  Y                   Z               Mass       
    ------------   -----------------  -----------------  -----------------  -----------------
           C         -0.025710491355     0.002193345084    -0.177288654380    12.000000000000
           C          0.013743097127     1.220439360761     0.527695369108    12.000000000000
           C          0.027353751193     1.214271339561     1.918529184736    12.000000000000
           C          0.012681606727     0.001039225791     2.613349644676    12.000000000000
           C         -0.015722644156    -1.211601522789     1.917962812275    12.000000000000
           C         -0.034342254413    -1.217003546118     0.527134039671    12.000000000000
           C         -0.013638964445     0.001470735394    -1.644074834901    12.000000000000
           H         -0.023957982569     2.168106570291    -0.002075482729     1.007825032070
           H          0.039026480251     2.154118437935     2.460782800964     1.007825032070
           H          0.025489077451     0.000561194844     3.698929907920     1.007825032070
           H         -0.009239360192    -2.151932563662     2.459479643159     1.007825032070
           H         -0.001375907855    -2.164055243146    -0.003853541780     1.007825032070
           N         -0.619999619497    -0.973222064636    -2.317224462990    14.003074004780
           N          0.619111111178     0.966632911096    -2.306848514805    14.003074004780
           H          0.582102569371     1.054010227304    -3.315509458150     1.007825032070
           H          1.227788293933     1.606138964250    -1.813670126877     1.007825032070
           H         -1.246397859860    -1.606423439790    -1.838122405930     1.007825032070
           H         -0.556910902888    -1.064744932171    -3.324194919967     1.007825032070

  Running in c1 symmetry.

  Rotational constants: A =      0.12207  B =      0.03975  C =      0.03106 [cm^-1]
  Rotational constants: A =   3659.64541  B =   1191.65371  C =    931.09109 [MHz]
  Nuclear repulsion =  416.894158693907286

  Charge       = 1
  Multiplicity = 1
  Electrons    = 64
  Nalpha       = 32
  Nbeta        = 32

  ==> Algorithm <==

  SCF Algorithm Type is DF.
  DIIS enabled.
  MOM disabled.
[...]
	 H          -2.3566872017       -3.0333107097       -3.4682551228
	 H          -1.0549486237       -2.0139589617       -6.2784058711
	            -0.0015875667       -0.0002688672       -0.0000167732
	             0.0015219235       -0.0000802279       -0.0000157631
	            -0.0000165804        0.0000012054        0.0000016414
	            -0.0000121836       -0.0000048309        0.0000146962
	            -0.0000042405       -0.0000087889        0.0000110713
	             0.0000162566        0.0000148185       -0.0000308513
	            -0.0012479662        0.0011956671       -0.0000255202
	            -0.0000042792        0.0000067223       -0.0000052719
	             0.0000035710        0.0000013375       -0.0000057355
	             0.0000116859       -0.0000041570       -0.0000017398
	            -0.0000020158        0.0000021104       -0.0000019764
	            -0.0000097784       -0.0000043202        0.0000076782
	             0.0013043592       -0.0008009908        0.0000195609
	             0.0000095385       -0.0000302384        0.0000382884
	            -0.0000017415       -0.0000037859       -0.0000029350
	            -0.0000129670        0.0000045815        0.0000001355
	             0.0000208450       -0.0000056614       -0.0000091765
	             0.0000129732       -0.0000156116        0.0000001877

	---Fragment 1 Intrafragment Coordinates---
	 - Coordinate -           - BOHR/RAD -       - ANG/DEG -
	 R(1,2)           =         2.660910	       1.408093
	 R(1,6)           =         2.660898	       1.408086
	 R(1,7)           =         2.770934	       1.466315
	 R(2,3)           =         2.628362	       1.390869
	 R(2,8)           =         2.052996	       1.086399
	 R(3,4)           =         2.642475	       1.398338
	 R(3,9)           =         2.050578	       1.085119
	 R(4,5)           =         2.642121	       1.398150
	 R(4,10)          =         2.051577	       1.085648
	 R(5,6)           =         2.628703	       1.391050
	 R(5,11)          =         2.050584	       1.085122
	 R(6,12)          =         2.052679	       1.086231
	 R(7,13)          =         2.515118	       1.330943
	 R(7,14)          =         2.514678	       1.330710
	 R(13,17)         =         1.911233	       1.011381
	 R(13,18)         =         1.914541	       1.013131
	 R(14,15)         =         1.914558	       1.013140
	 R(14,16)         =         1.911097	       1.011309
	 B(1,2,3)         =         2.090883	     119.798775
	 B(1,2,8)         =         2.105104	     120.613596
	 B(1,6,5)         =         2.090620	     119.783729
	 B(1,6,12)        =         2.105769	     120.651701
	 B(1,7,13)        =         2.096584	     120.125404
	 B(1,7,14)        =         2.096245	     120.106014
	 B(2,1,6)         =         2.093215	     119.932364
	 B(2,1,7)         =         2.095792	     120.080060
	 B(2,3,4)         =         2.095253	     120.049176
	 B(2,3,9)         =         2.089616	     119.726165
	 B(3,2,8)         =         2.085529	     119.492035
	 B(3,4,5)         =         2.100874	     120.371211
	 B(3,4,10)        =         2.091151	     119.814121
	 B(4,3,9)         =         2.098265	     120.221728
	 B(4,5,6)         =         2.095466	     120.061358
	 B(4,5,11)        =         2.098221	     120.219216
	 B(5,4,10)        =         2.091159	     119.814562
	 B(5,6,12)        =         2.085434	     119.486553
	 B(6,1,7)         =         2.093792	     119.965425
	 B(6,5,11)        =         2.089407	     119.714194
	 B(7,13,17)       =         2.095425	     120.059010
	 B(7,13,18)       =         2.141892	     122.721386
	 B(7,14,15)       =         2.142197	     122.738856
	 B(7,14,16)       =         2.096130	     120.099412
	 B(13,7,14)       =         2.090192	     119.759154
	 B(15,14,16)      =         2.041373	     116.962047
	 B(17,13,18)      =         2.040479	     116.910843
	 D(1,2,3,4)       =         0.009098	       0.521274
	 D(1,2,3,9)       =        -3.121649	    -178.857298
	 D(1,6,5,4)       =        -0.000146	      -0.008392
	 D(1,6,5,11)      =        -3.127249	    -179.178190
	 D(1,7,13,17)     =         0.225869	      12.941332
	 D(1,7,13,18)     =        -3.030593	    -173.640186
	 D(1,7,14,15)     =        -3.042344	    -174.313463
	 D(1,7,14,16)     =         0.191638	      10.980022
	 D(2,1,6,5)       =         0.008004	       0.458594
	 D(2,1,6,12)      =        -3.077245	    -176.313172
	*D(2,1,7,13)      =        -2.617994	    -150.000026
	 D(2,1,7,14)      =         0.543139	      31.119561
	 D(2,3,4,5)       =        -0.001240	      -0.071061
	 D(2,3,4,10)      =         3.138279	     179.810129
	 D(3,2,1,6)       =        -0.012489	      -0.715558
	 D(3,2,1,7)       =        -3.124194	    -179.003155
	 D(3,4,5,6)       =        -0.003277	      -0.187743
	 D(3,4,5,11)      =         3.123752	     178.977826
	 D(4,3,2,8)       =         3.089036	     176.988721
	 D(4,5,6,12)      =         3.085763	     176.801200
	 D(5,4,3,9)       =         3.129452	     179.304404
	 D(5,6,1,7)       =         3.119744	     178.748170
	 D(6,1,2,8)       =        -3.091724	    -177.142715
	 D(6,1,7,13)      =         0.553495	      31.712947
	 D(6,1,7,14)      =        -2.568557	    -147.167466
	 D(6,5,4,10)      =         3.140390	     179.931068
	 D(7,1,2,8)       =         0.079756	       4.569688
	 D(7,1,6,12)      =         0.034495	       1.976404
	 D(8,2,3,9)       =        -0.041711	      -2.389852
	 D(9,3,4,10)      =        -0.014214	      -0.814406
	 D(10,4,5,11)     =        -0.015767	      -0.903364
	 D(11,5,6,12)     =        -0.041340	      -2.368599
	 D(13,7,14,15)    =         0.118717	       6.802009
	 D(13,7,14,16)    =        -2.930486	    -167.904506
	 D(14,7,13,17)    =        -2.935196	    -168.174359
	 D(14,7,13,18)    =         0.091527	       5.244123

	Current energy   :      -381.4703167387

	Energy change for the previous step:
		Projected    :        -0.0000016206
		Actual       :        -0.0000008534

	Performing BFGS update.
	Previous computed or guess Hessian on step 1.
	Steps to be used in Hessian update: 4 3
	Taking RFO optimization step.
	Going to follow RFO solution 1.
	Using RFO vector 1.
	Norm of target step-size    0.00295
	Projected energy change by RFO approximation:        -0.0000000532

	Back-transformation to cartesian coordinates...
	Successfully converged to displaced geometry.

	Back-transformation to cartesian coordinates to adjust frozen coordinates...
	Successfully converged to displaced geometry.

	--- Internal Coordinate Step in ANG or DEG, aJ/ANG or AJ/DEG ---
	 ---------------------------------------------------------------------------
	   Coordinate                Previous        Force       Change         New 
	   ----------                --------       ------       ------       ------
	    1 R(1,2)          =      1.408093     0.000253     0.000043     1.408136
	    2 R(1,6)          =      1.408086     0.000045     0.000011     1.408098
	    3 R(1,7)          =      1.466315     0.000238     0.000000     1.466315
	    4 R(2,3)          =      1.390869    -0.000100    -0.000020     1.390850
	    5 R(2,8)          =      1.086399    -0.000066    -0.000008     1.086391
	    6 R(3,4)          =      1.398338    -0.000108    -0.000005     1.398332
	    7 R(3,9)          =      1.085119     0.000009     0.000002     1.085121
	    8 R(4,5)          =      1.398150     0.000007    -0.000001     1.398149
	    9 R(4,10)         =      1.085648     0.000003     0.000000     1.085648
	   10 R(5,6)          =      1.391050    -0.000108    -0.000009     1.391040
	   11 R(5,11)         =      1.085122     0.000018     0.000004     1.085126
	   12 R(6,12)         =      1.086231     0.000007    -0.000000     1.086231
	   13 R(7,13)         =      1.330943     0.000103     0.000033     1.330976
	   14 R(7,14)         =      1.330710     0.000355     0.000035     1.330745
	   15 R(13,17)        =      1.011381     0.000111     0.000021     1.011402
	   16 R(13,18)        =      1.013131    -0.000007     0.000003     1.013134
	   17 R(14,15)        =      1.013140    -0.000012     0.000001     1.013141
	   18 R(14,16)        =      1.011309     0.000035     0.000010     1.011318
	   19 B(1,2,3)        =    119.798775     0.000000     0.000239   119.799015
	   20 B(1,2,8)        =    120.613596     0.000000    -0.002067   120.611529
	   21 B(1,6,5)        =    119.783729    -0.000000    -0.001595   119.782134
	   22 B(1,6,12)       =    120.651701    -0.000001    -0.005435   120.646266
	   23 B(1,7,13)       =    120.125404    -0.000001    -0.005829   120.119575
	   24 B(1,7,14)       =    120.106014     0.000002     0.007803   120.113817
	   25 B(2,1,6)        =    119.932364    -0.000000     0.000223   119.932587
	   26 B(2,1,7)        =    120.080060    -0.000000    -0.000250   120.079810
	   27 B(2,3,4)        =    120.049176    -0.000000    -0.001386   120.047790
	   28 B(2,3,9)        =    119.726165     0.000001     0.002138   119.728303
	   29 B(3,2,8)        =    119.492035    -0.000000     0.002917   119.494951
	   30 B(3,4,5)        =    120.371211     0.000001     0.002073   120.373284
	   31 B(3,4,10)       =    119.814121    -0.000001    -0.002672   119.811449
	   32 B(4,3,9)        =    120.221728    -0.000000    -0.000872   120.220855
	   33 B(4,5,6)        =    120.061358     0.000000     0.000599   120.061956
	   34 B(4,5,11)       =    120.219216    -0.000000     0.000114   120.219330
	   35 B(5,4,10)       =    119.814562    -0.000000     0.000622   119.815184
	   36 B(5,6,12)       =    119.486553     0.000001     0.006351   119.492904
	   37 B(6,1,7)        =    119.965425     0.000001     0.000154   119.965579
	   38 B(6,5,11)       =    119.714194    -0.000000    -0.000696   119.713498
	   39 B(7,13,17)      =    120.059010    -0.000000    -0.006684   120.052326
	   40 B(7,13,18)      =    122.721386    -0.000000    -0.004784   122.716602
	   41 B(7,14,15)      =    122.738856     0.000000     0.000034   122.738891
	   42 B(7,14,16)      =    120.099412    -0.000000    -0.003095   120.096316
	   43 B(13,7,14)      =    119.759154    -0.000001    -0.001923   119.757230
	   44 B(15,14,16)     =    116.962047    -0.000000    -0.000464   116.961582
	   45 B(17,13,18)     =    116.910843     0.000000    -0.002163   116.908680
	   46 D(1,2,3,4)      =      0.521274    -0.000000    -0.013794     0.507480
	   47 D(1,2,3,9)      =   -178.857298    -0.000000    -0.001140  -178.858438
	   48 D(1,6,5,4)      =     -0.008392     0.000000     0.004780    -0.003612
	   49 D(1,6,5,11)     =   -179.178190     0.000000     0.003490  -179.174701
	   50 D(1,7,13,17)    =     12.941332     0.000000     0.076530    13.017862
	   51 D(1,7,13,18)    =   -173.640186    -0.000000    -0.066798  -173.706984
	   52 D(1,7,14,15)    =   -174.313463     0.000000     0.004819  -174.308644
	   53 D(1,7,14,16)    =     10.980022     0.000000     0.051262    11.031283
	   54 D(2,1,6,5)      =      0.458594    -0.000000    -0.012556     0.446038
	   55 D(2,1,6,12)     =   -176.313172     0.000000     0.001253  -176.311919
	   56 *D(2,1,7,13)    =   -150.000026    -0.000000     0.000000  -150.000026
	   57 D(2,1,7,14)     =     31.119561    -0.000000    -0.003000    31.116561
	   58 D(2,3,4,5)      =     -0.071061     0.000000     0.006042    -0.065019
	   59 D(2,3,4,10)     =    179.810129     0.000000     0.019468   179.829597
	   60 D(3,2,1,6)      =     -0.715558     0.000000     0.017060    -0.698498
	   61 D(3,2,1,7)      =   -179.003155     0.000000     0.012139  -178.991016
	   62 D(3,4,5,6)      =     -0.187743    -0.000000    -0.001502    -0.189244
	   63 D(3,4,5,11)     =    178.977826    -0.000000    -0.000212   178.977614
	   64 D(4,3,2,8)      =    176.988721     0.000000     0.006287   176.995008
	   65 D(4,5,6,12)     =    176.801200    -0.000000    -0.009249   176.791951
	   66 D(5,4,3,9)      =    179.304404    -0.000000    -0.006657   179.297747
	   67 D(5,6,1,7)      =    178.748170    -0.000000    -0.007648   178.740522
	   68 D(6,1,2,8)      =   -177.142715    -0.000000    -0.003429  -177.146144
	   69 D(6,1,7,13)     =     31.712947     0.000000    -0.004923    31.708023
	   70 D(6,1,7,14)     =   -147.167466     0.000000    -0.007924  -147.175390
	   71 D(6,5,4,10)     =    179.931068    -0.000000    -0.014925   179.916143
	   72 D(7,1,2,8)      =      4.569688     0.000000    -0.008350     4.561338
	   73 D(7,1,6,12)     =      1.976404     0.000000     0.006161     1.982565
	   74 D(8,2,3,9)      =     -2.389852     0.000000     0.018941    -2.370910
	   75 D(9,3,4,10)     =     -0.814406     0.000000     0.006770    -0.807637
	   76 D(10,4,5,11)    =     -0.903364    -0.000000    -0.013635    -0.916998
	   77 D(11,5,6,12)    =     -2.368599    -0.000000    -0.010539    -2.379137
	   78 D(13,7,14,15)   =      6.802009    -0.000000     0.001874     6.803882
	   79 D(13,7,14,16)   =   -167.904506     0.000000     0.048317  -167.856190
	   80 D(14,7,13,17)   =   -168.174359     0.000000     0.079629  -168.094730
	   81 D(14,7,13,18)   =      5.244123    -0.000000    -0.063699     5.180425
	 ---------------------------------------------------------------------------
	Successfully symmetrized geometry.

  ==> Convergence Check <==

  Measures of convergence in internal coordinates in au.
  Criteria marked as inactive (o), active & met (*), and active & unmet ( ).
  ---------------------------------------------------------------------------------------------
   Step     Total Energy     Delta E     MAX Force     RMS Force      MAX Disp      RMS Disp   
  ---------------------------------------------------------------------------------------------
    Convergence Criteria    1.00e-06 *    3.00e-04 *             o    1.20e-03 *             o
  ---------------------------------------------------------------------------------------------
      5    -381.47031674   -8.53e-07 *    4.31e-05 *    1.03e-05 o    1.39e-03      3.28e-04 o  ~
  ---------------------------------------------------------------------------------------------


  **** Optimization is complete! (in 5 steps) ****

  ==> Optimization Summary <==

  Measures of convergence in internal coordinates in au.
  --------------------------------------------------------------------------------------------------------------- ~
   Step         Total Energy             Delta E       MAX Force       RMS Force        MAX Disp        RMS Disp  ~
  --------------------------------------------------------------------------------------------------------------- ~
      1    -381.470195407504   -381.470195407504      0.00266546      0.00057955      0.07882658      0.01512720  ~
      2    -381.470260087515     -0.000064680011      0.00217766      0.00045652      0.02858939      0.00609379  ~
      3    -381.470313768608     -0.000053681093      0.00032850      0.00008222      0.00636935      0.00187640  ~
      4    -381.470315885354     -0.000002116747      0.00019110      0.00005083      0.00324813      0.00069867  ~
      5    -381.470316738710     -0.000000853356      0.00004315      0.00001032      0.00138978      0.00032833  ~
  --------------------------------------------------------------------------------------------------------------- ~

	Writing optimization data to binary file.
	Final energy is   -381.4703167387103
	Final (previous) structure:
	Cartesian Geometry (in Angstrom)
	    C    -0.0230151379   0.0031592824  -0.1774816732
	    C     0.0144265595   1.2211647077   0.5280584620
	    C     0.0263811701   1.2142358815   1.9188590499
	    C     0.0122776242   0.0005337273   2.6131762231
	    C    -0.0153641534  -1.2117508328   1.9171686773
	    C    -0.0329588319  -1.2164254654   0.5262380317
	    C    -0.0137378856   0.0026046690  -1.6437672798
	    H    -0.0241393069   2.1688331705  -0.0017520952
	    H     0.0364519105   2.1538514143   2.4615422339
	    H     0.0248036889  -0.0004757198   3.6987512428
	    H    -0.0095356265  -2.1523757613   2.4581690564
	    H    -0.0016246619  -2.1629834107  -0.0056867762
	    N    -0.6190329366  -0.9742066576  -2.3152336916
	    N     0.6189845360   0.9668353224  -2.3076285394
	    H     0.5811778183   1.0533087560  -3.3163634650
	    H     1.2302651560   1.6045899922  -1.8153375989
	    H    -1.2471051549  -1.6051588942  -1.8353215646
	    H    -0.5582547679  -1.0657411816  -3.3223892933
	Saving final (previous) structure.
			--------------------------
			 OPTKING Finished Execution 
			--------------------------

    Final optimized geometry and variables:
    Molecular point group: c1
    Full point group: C1

    Geometry (in Angstrom), charge = 1, multiplicity = 1:

    C           -0.023015137924     0.003159282390    -0.177481673207
    C            0.014426559510     1.221164707742     0.528058462008
    C            0.026381170084     1.214235881471     1.918859049901
    C            0.012277624247     0.000533727302     2.613176223096
    C           -0.015364153434    -1.211750832771     1.917168677256
    C           -0.032958831884    -1.216425465375     0.526238031698
    C           -0.013737885585     0.002604668965    -1.643767279788
    H           -0.024139306914     2.168833170479    -0.001752095188
    H            0.036451910468     2.153851414259     2.461542233899
    H            0.024803688947    -0.000475719820     3.698751242803
    H           -0.009535626493    -2.152375761326     2.458169056449
    H           -0.001624661919    -2.162983410654    -0.005686776175
    N           -0.619032936592    -0.974206657558    -2.315233691633
    N            0.618984535980     0.966835322430    -2.307628539418
    H            0.581177818300     1.053308755992    -3.316363464988
    H            1.230265156019     1.604589992202    -1.815337598858
    H           -1.247105154903    -1.605158894165    -1.835321564566
    H           -0.558254767908    -1.065741181563    -3.322389293289

	Cleaning optimization helper files.


Properties will be evaluated at   0.000000,   0.000000,   0.000000 Bohr

Properties computed using the  density matrix

  Nuclear Dipole Moment: (a.u.)
     X:    -0.3028      Y:     0.0442      Z:     0.1041

  Electronic Dipole Moment: (a.u.)
     X:     0.3052      Y:    -0.0449      Z:    -2.3331

  Dipole Moment: (a.u.)
     X:     0.0024      Y:    -0.0007      Z:    -2.2290     Total:     2.2290

  Dipole Moment: (Debye)
     X:     0.0061      Y:    -0.0018      Z:    -5.6656     Total:     5.6656

  Quadrupole Moment: (Debye Ang)
    XX:   -50.5329     YY:   -36.9477     ZZ:   -13.1195
    XY:     6.1202     XZ:     0.0879     YZ:     0.0741

  Traceless Quadrupole Moment: (Debye Ang)
    XX:   -16.9996     YY:    -3.4143     ZZ:    20.4139
    XY:     6.1202     XZ:     0.0879     YZ:     0.0741

  Mulliken Charges: (a.u.)
   Center  Symbol    Alpha    Beta     Spin     Total
       1     C     2.95189  2.95189  0.00000  0.09621
       2     C     3.08423  3.08423  0.00000 -0.16846
       3     C     3.06252  3.06252  0.00000 -0.12504
       4     C     3.05133  3.05133  0.00000 -0.10266
       5     C     3.06215  3.06215  0.00000 -0.12429
       6     C     3.08278  3.08278  0.00000 -0.16555
       7     C     2.71799  2.71799  0.00000  0.56402
       8     H     0.41468  0.41468  0.00000  0.17063
       9     H     0.40530  0.40530  0.00000  0.18941
      10     H     0.40358  0.40358  0.00000  0.19284
      11     H     0.40529  0.40529  0.00000  0.18943
      12     H     0.41486  0.41486  0.00000  0.17029
      13     N     3.86605  3.86605  0.00000 -0.73209
      14     N     3.86553  3.86553  0.00000 -0.73107
      15     H     0.30576  0.30576  0.00000  0.38847
      16     H     0.30011  0.30011  0.00000  0.39978
      17     H     0.30019  0.30019  0.00000  0.39962
      18     H     0.30577  0.30577  0.00000  0.38847

   Total alpha = 32.00000, Total beta = 32.00000, Total charge =  1.00000


*** Psi4 exiting successfully. Buy a developer a beer!
