    -----------------------------------------------------------------------
          Psi4: An Open-Source Ab Initio Electronic Structure Package
                              Psi4 (no tag) Driver

                          Git: Rev {detached?}  

    J. M. Turney, A. C. Simmonett, R. M. Parrish, E. G. Hohenstein,
    F. A. Evangelista, J. T. Fermann, B. J. Mintz, L. A. Burns, J. J. Wilke,
    M. L. Abrams, N. J. Russ, M. L. Leininger, C. L. Janssen, E. T. Seidl,
    W. D. Allen, H. F. Schaefer, R. A. King, E. F. Valeev, C. D. Sherrill,
    and T. D. Crawford, WIREs Comput. Mol. Sci. 2, 556-565 (2012)
    (doi: 10.1002/wcms.93)

                         Additional Contributions by
    A. E. DePrince, M. Saitow, U. Bozkaya, A. Yu. Sokolov
    -----------------------------------------------------------------------


    Psi4 started on: Tue Jul  5 16:32:21 2016

    Process ID:   4831
    PSI4DATADIR: /export131/home/mjharvey/miniconda3/share
    Memory level set to 256.000 MB

  ==> Input File <==

--------------------------------------------------------------------------
set {
	reference rhf
	basis 6-31G*
}


set_num_threads( 1 )
memory 2 gb

molecule MOL {
0 1

H	 2.866480	 -0.465706	 0.876907
C	 2.405773	 -0.024801	 0.000000
N	 0.988830	 -0.304158	 0.000000
H	 2.866480	 -0.465706	 -0.876907
H	 2.629928	 1.045948	 0.000000
C	 0.186450	 0.905038	 -0.000000
C	 0.597234	 -1.178522	 1.090004
H	 0.367953	 1.508710	 0.895062
H	 0.452021	 1.507012	 -0.863334
C	 -1.288068	 0.542775	 -0.067465
H	 1.163599	 -2.102225	 1.024820
H	 0.808670	 -0.726678	 2.064494
C	 -0.888178	 -1.485532	 0.993634
H	 -1.904422	 1.427792	 0.021234
H	 -1.502914	 0.064087	 -1.021231
O	 -1.643577	 -0.306855	 0.986905
H	 -1.216094	 -2.063517	 1.847695
H	 -1.084209	 -2.059649	 0.089791

	symmetry c1
}
ee = energy('scf')
oeprop('DIPOLE', 'QUADRUPOLE', 'MULLIKEN_CHARGES')
f=open( 'psi4out.xyz', 'w' )
f.write( "18  " )
f.write( str(ee) + "\n" )
f.write( MOL.save_string_xyz() )
f.close()
--------------------------------------------------------------------------

  Memory set to   2.000 GiB by Python script.

*** tstart() called on cx1-3-15-4.cx1.hpc.ic.ac.uk
*** at Tue Jul  5 16:32:22 2016


         ---------------------------------------------------------
                                   SCF
            by Justin Turney, Rob Parrish, and Andy Simmonett
                              RHF Reference
                        1 Threads,   2000 MiB Core
         ---------------------------------------------------------

  ==> Geometry <==

    Molecular point group: c1
    Full point group: C1

    Geometry (in Angstrom), charge = 0, multiplicity = 1:

       Center              X                  Y                   Z               Mass       
    ------------   -----------------  -----------------  -----------------  -----------------
           H          2.814973991266    -0.204458744376     0.440934952439     1.007825032070
           C          2.354266991266     0.236446255624    -0.435972047561    12.000000000000
           N          0.937323991266    -0.042910744376    -0.435972047561    14.003074004780
           H          2.814973991266    -0.204458744376    -1.312879047561     1.007825032070
           H          2.578421991266     1.307195255624    -0.435972047561     1.007825032070
           C          0.134943991266     1.166285255624    -0.435972047561    12.000000000000
           C          0.545727991266    -0.917274744376     0.654031952439    12.000000000000
           H          0.316446991266     1.769957255624     0.459089952439     1.007825032070
           H          0.400514991266     1.768259255624    -1.299306047561     1.007825032070
           C         -1.339574008734     0.804022255624    -0.503437047561    12.000000000000
           H          1.112092991266    -1.840977744376     0.588847952439     1.007825032070
           H          0.757163991266    -0.465430744376     1.628521952439     1.007825032070
           C         -0.939684008734    -1.224284744376     0.557661952439    12.000000000000
           H         -1.955928008734     1.689039255624    -0.414738047561     1.007825032070
           H         -1.554420008734     0.325334255624    -1.457203047561     1.007825032070
           O         -1.695083008734    -0.045607744376     0.550932952439    15.994914619560
           H         -1.267600008734    -1.802269744376     1.411722952439     1.007825032070
           H         -1.135715008734    -1.798401744376    -0.346181047561     1.007825032070

  Running in c1 symmetry.

  Rotational constants: A =      0.16245  B =      0.07907  C =      0.05780 [cm^-1]
  Rotational constants: A =   4870.13188  B =   2370.58035  C =   1732.78208 [MHz]
  Nuclear repulsion =  341.570690868401243

  Charge       = 0
  Multiplicity = 1
  Electrons    = 56
  Nalpha       = 28
  Nbeta        = 28

  ==> Algorithm <==

  SCF Algorithm Type is DF.
  DIIS enabled.
  MOM disabled.
  Fractional occupation disabled.
  Guess Type is CORE.
  Energy threshold   = 1.00e-06
  Density threshold  = 1.00e-06
  Integral threshold = 0.00e+00

  ==> Primary Basis <==

  Basis Set: 6-31G*
    Number of shells: 64
    Number of basis function: 127
    Number of Cartesian functions: 127
    Spherical Harmonics?: false
    Max angular momentum: 2

  ==> Pre-Iterations <==

   -------------------------------------------------------
    Irrep   Nso     Nmo     Nalpha   Nbeta   Ndocc  Nsocc
   -------------------------------------------------------
     A        127     127       0       0       0       0
   -------------------------------------------------------
    Total     127     127      28      28      28       0
   -------------------------------------------------------

 OEINTS: Overlap, kinetic, potential, dipole, and quadrupole integrals
         stored in file 35.

  ==> Integral Setup <==

  ==> DFJK: Density-Fitted J/K Matrices <==

    J tasked:                  Yes
    K tasked:                  Yes
    wK tasked:                  No
    OpenMP threads:              1
    Integrals threads:           1
    Memory (MB):              1430
    Algorithm:                Core
    Integral Cache:           NONE
    Schwarz Cutoff:          1E-12
    Fitting Condition:       1E-12

   => Auxiliary Basis Set <=

  Basis Set: 
    Number of shells: 267
    Number of basis function: 842
    Number of Cartesian functions: 842
    Spherical Harmonics?: false
    Max angular momentum: 3

  Minimum eigenvalue in the overlap matrix is 3.2379679599E-03.
  Using Symmetric Orthogonalization.
  SCF Guess: Core (One-Electron) Hamiltonian.

  ==> Iterations <==

                           Total Energy        Delta E     RMS |[F,P]|

   @DF-RHF iter   1:  -254.48596443569932   -2.54486e+02   7.04801e-02 
   @DF-RHF iter   2:  -175.86494443668732    7.86210e+01   7.54765e-02 DIIS
   @DF-RHF iter   3:  -270.02273878213850   -9.41578e+01   5.13058e-02 DIIS
   @DF-RHF iter   4:  -267.96165769583445    2.06108e+00   6.03284e-02 DIIS
   @DF-RHF iter   5:  -324.33350393591957   -5.63718e+01   9.42292e-03 DIIS
   @DF-RHF iter   6:  -324.93035296472692   -5.96849e-01   3.40116e-03 DIIS
   @DF-RHF iter   7:  -325.00701263713484   -7.66597e-02   1.30038e-03 DIIS
   @DF-RHF iter   8:  -325.01966261811424   -1.26500e-02   3.81603e-04 DIIS
   @DF-RHF iter   9:  -325.02143591930724   -1.77330e-03   1.05843e-04 DIIS
   @DF-RHF iter  10:  -325.02153485718873   -9.89379e-05   4.45025e-05 DIIS
   @DF-RHF iter  11:  -325.02155954266095   -2.46855e-05   6.09702e-06 DIIS
   @DF-RHF iter  12:  -325.02156005177949   -5.09119e-07   1.84100e-06 DIIS
   @DF-RHF iter  13:  -325.02156009184978   -4.00703e-08   5.93756e-07 DIIS

  ==> Post-Iterations <==

    Orbital Energies (a.u.)
    -----------------------

    Doubly Occupied:                                                      

       1A    -20.553579     2A    -15.545888     3A    -11.265619  
       4A    -11.265263     5A    -11.244201     6A    -11.243731  
       7A    -11.239419     8A     -1.382919     9A     -1.231533  
      10A     -1.038091    11A     -0.980483    12A     -0.883067  
      13A     -0.868417    14A     -0.775038    15A     -0.682606  
      16A     -0.644121    17A     -0.643282    18A     -0.631330  
      19A     -0.628064    20A     -0.570983    21A     -0.559106  
      22A     -0.544553    23A     -0.527292    24A     -0.500189  
      25A     -0.482381    26A     -0.451875    27A     -0.406167  
      28A     -0.350065  

    Virtual:                                                              

      29A      0.238961    30A      0.259516    31A      0.279012  
      32A      0.281770    33A      0.300188    34A      0.305580  
      35A      0.311074    36A      0.325135    37A      0.330395  
      38A      0.344697    39A      0.351579    40A      0.360081  
      41A      0.385633    42A      0.423109    43A      0.437801  
      44A      0.451230    45A      0.473600    46A      0.495507  
      47A      0.732941    48A      0.736059    49A      0.755305  
      50A      0.789244    51A      0.794055    52A      0.801516  
      53A      0.827663    54A      0.865881    55A      0.887332  
      56A      0.924447    57A      0.928519    58A      0.942321  
      59A      0.959594    60A      1.052508    61A      1.088105  
      62A      1.100880    63A      1.109720    64A      1.137556  
      65A      1.141655    66A      1.147396    67A      1.154377  
      68A      1.168144    69A      1.176465    70A      1.184728  
      71A      1.200960    72A      1.221965    73A      1.237191  
      74A      1.246426    75A      1.303301    76A      1.345454  
      77A      1.378666    78A      1.474747    79A      1.520241  
      80A      1.591545    81A      1.625567    82A      1.663106  
      83A      1.667913    84A      1.706996    85A      1.713965  
      86A      1.877015    87A      1.905921    88A      1.984251  
      89A      2.003422    90A      2.091695    91A      2.157294  
      92A      2.172367    93A      2.218706    94A      2.247201  
      95A      2.312716    96A      2.321387    97A      2.334681  
      98A      2.374783    99A      2.384254   100A      2.443585  
     101A      2.451779   102A      2.497777   103A      2.508900  
     104A      2.579449   105A      2.593545   106A      2.628653  
     107A      2.671521   108A      2.684413   109A      2.775076  
     110A      2.785495   111A      2.806595   112A      2.895939  
     113A      2.903276   114A      2.942960   115A      3.082808  
     116A      3.136574   117A      3.160339   118A      3.236631  
     119A      3.256051   120A      3.327567   121A      4.401388  
     122A      4.526166   123A      4.641675   124A      4.684199  
     125A      4.778084   126A      4.944906   127A      4.953024  

    Final Occupation by Irrep:
              A 
    DOCC [    28 ]

  Energy converged.

  @DF-RHF Final Energy:  -325.02156009184978

   => Energetics <=

    Nuclear Repulsion Energy =            341.5706908684012433
    One-Electron Energy =               -1118.9058928530876074
    Two-Electron Energy =                 452.3136418928365856
    DFT Exchange-Correlation Energy =       0.0000000000000000
    Empirical Dispersion Energy =           0.0000000000000000
    PCM Polarization Energy =               0.0000000000000000
    EFP Energy =                            0.0000000000000000
    Total Energy =                       -325.0215600918497785

    Alert: EFP and PCM quantities not currently incorporated into SCF psivars.

Properties will be evaluated at   0.000000,   0.000000,   0.000000 Bohr
  ==> Properties <==


Properties computed using the SCF density matrix

  Nuclear Dipole Moment: (a.u.)
     X:     4.5649      Y:     0.5097      Z:    -0.6872

  Electronic Dipole Moment: (a.u.)
     X:    -3.9956      Y:    -0.4459      Z:     0.5942

  Dipole Moment: (a.u.)
     X:     0.5693      Y:     0.0638      Z:    -0.0929     Total:     0.5803

  Dipole Moment: (Debye)
     X:     1.4470      Y:     0.1621      Z:    -0.2362     Total:     1.4750


  Saving occupied orbitals to File 180.

*** tstop() called on cx1-3-15-4.cx1.hpc.ic.ac.uk at Tue Jul  5 16:32:32 2016
Module time:
	user time   =       9.77 seconds =       0.16 minutes
	system time =       0.06 seconds =       0.00 minutes
	total time  =         10 seconds =       0.17 minutes
Total time:
	user time   =       9.77 seconds =       0.16 minutes
	system time =       0.06 seconds =       0.00 minutes
	total time  =         10 seconds =       0.17 minutes


Properties will be evaluated at   0.000000,   0.000000,   0.000000 Bohr

Properties computed using the  density matrix

  Nuclear Dipole Moment: (a.u.)
     X:     4.5649      Y:     0.5097      Z:    -0.6872

  Electronic Dipole Moment: (a.u.)
     X:    -3.9956      Y:    -0.4459      Z:     0.5942

  Dipole Moment: (a.u.)
     X:     0.5693      Y:     0.0638      Z:    -0.0929     Total:     0.5803

  Dipole Moment: (Debye)
     X:     1.4470      Y:     0.1621      Z:    -0.2362     Total:     1.4750

  Quadrupole Moment: (Debye Ang)
    XX:   -46.2577     YY:   -40.7971     ZZ:   -45.2326
    XY:     0.1151     XZ:     2.5874     YZ:    -2.4522

  Traceless Quadrupole Moment: (Debye Ang)
    XX:    -2.1619     YY:     3.2987     ZZ:    -1.1368
    XY:     0.1151     XZ:     2.5874     YZ:    -2.4522

  Mulliken Charges: (a.u.)
   Center  Symbol    Alpha    Beta     Spin     Total
       1     H     0.42248  0.42248  0.00000  0.15504
       2     C     3.14160  3.14160  0.00000 -0.28320
       3     N     3.78694  3.78694  0.00000 -0.57388
       4     H     0.41460  0.41460  0.00000  0.17080
       5     H     0.42147  0.42147  0.00000  0.15706
       6     C     3.07061  3.07061  0.00000 -0.14122
       7     C     3.07167  3.07167  0.00000 -0.14335
       8     H     0.42850  0.42850  0.00000  0.14299
       9     H     0.41600  0.41600  0.00000  0.16800
      10     C     2.99773  2.99773  0.00000  0.00454
      11     H     0.41572  0.41572  0.00000  0.16856
      12     H     0.42811  0.42811  0.00000  0.14378
      13     C     2.99753  2.99753  0.00000  0.00494
      14     H     0.41362  0.41362  0.00000  0.17276
      15     H     0.42400  0.42400  0.00000  0.15200
      16     O     4.31209  4.31209  0.00000 -0.62417
      17     H     0.41346  0.41346  0.00000  0.17308
      18     H     0.42387  0.42387  0.00000  0.15227

   Total alpha = 28.00000, Total beta = 28.00000, Total charge = -0.00000


*** PSI4 exiting successfully. Buy a developer a beer!
