    -----------------------------------------------------------------------
          Psi4: An Open-Source Ab Initio Electronic Structure Package
                              Psi4 (no tag) Driver

                          Git: Rev {detached?}  

    J. M. Turney, A. C. Simmonett, R. M. Parrish, E. G. Hohenstein,
    F. A. Evangelista, J. T. Fermann, B. J. Mintz, L. A. Burns, J. J. Wilke,
    M. L. Abrams, N. J. Russ, M. L. Leininger, C. L. Janssen, E. T. Seidl,
    W. D. Allen, H. F. Schaefer, R. A. King, E. F. Valeev, C. D. Sherrill,
    and T. D. Crawford, WIREs Comput. Mol. Sci. 2, 556-565 (2012)
    (doi: 10.1002/wcms.93)

                         Additional Contributions by
    A. E. DePrince, M. Saitow, U. Bozkaya, A. Yu. Sokolov
    -----------------------------------------------------------------------


    Psi4 started on: Tue Jul  5 16:44:26 2016

    Process ID:   7941
    PSI4DATADIR: /export131/home/mjharvey/miniconda3/share
    Memory level set to 256.000 MB

  ==> Input File <==

--------------------------------------------------------------------------
set {
	reference rhf
	basis 6-31G*
}


set_num_threads( 1 )
memory 2 gb

molecule MOL {
0 1

H	 -3.161837	 0.500524	 -0.000234
C	 -2.367097	 -0.232926	 -0.000000
O	 -1.158440	 0.455814	 -0.000122
H	 -2.468853	 -0.861886	 -0.882833
H	 -2.468942	 -0.861421	 0.883154
C	 -1.058687	 1.440634	 0.983775
C	 -0.686069	 0.782002	 2.300597
H	 -2.006583	 1.971636	 1.080874
H	 -0.305125	 2.177429	 0.702372
C	 -1.848872	 0.003404	 2.914237
H	 0.158039	 0.121349	 2.128313
H	 -0.346456	 1.551860	 2.986659
H	 -2.188382	 -0.788863	 2.252821
H	 -1.555374	 -0.455401	 3.852428
H	 -2.696864	 0.651739	 3.116656

	symmetry c1
}
set optking {
	frozen_dihedral = ("
		6 3 2 4,
		11 7 6 8
	")
}

ee = energy('scf')
oeprop('DIPOLE', 'QUADRUPOLE', 'MULLIKEN_CHARGES')
f=open( 'psi4out.xyz', 'w' )
f.write( "15  " )
f.write( str(ee) + "\n" )
f.write( MOL.save_string_xyz() )
f.close()
--------------------------------------------------------------------------

  Memory set to   2.000 GiB by Python script.

*** tstart() called on cx1-3-16-3.cx1.hpc.ic.ac.uk
*** at Tue Jul  5 16:44:27 2016


         ---------------------------------------------------------
                                   SCF
            by Justin Turney, Rob Parrish, and Andy Simmonett
                              RHF Reference
                        1 Threads,   2000 MiB Core
         ---------------------------------------------------------

  ==> Geometry <==

    Molecular point group: c1
    Full point group: C1

    Geometry (in Angstrom), charge = 0, multiplicity = 1:

       Center              X                  Y                   Z               Mass       
    ------------   -----------------  -----------------  -----------------  -----------------
           H         -1.714193072879     0.024691832193    -1.223723071295     1.007825032070
           C         -0.919453072879    -0.708758167807    -1.223489071295    12.000000000000
           O          0.289203927121    -0.020018167807    -1.223611071295    15.994914619560
           H         -1.021209072879    -1.337718167807    -2.106322071295     1.007825032070
           H         -1.021298072879    -1.337253167807    -0.340335071295     1.007825032070
           C          0.388956927121     0.964801832193    -0.239714071295    12.000000000000
           C          0.761574927121     0.306169832193     1.077107928705    12.000000000000
           H         -0.558939072879     1.495803832193    -0.142615071295     1.007825032070
           H          1.142518927121     1.701596832193    -0.521117071295     1.007825032070
           C         -0.401228072879    -0.472428167807     1.690747928705    12.000000000000
           H          1.605682927121    -0.354483167807     0.904823928705     1.007825032070
           H          1.101187927121     1.076027832193     1.763169928705     1.007825032070
           H         -0.740738072879    -1.264695167807     1.029331928705     1.007825032070
           H         -0.107730072879    -0.931233167807     2.628938928705     1.007825032070
           H         -1.249220072879     0.175906832193     1.893166928705     1.007825032070

  Running in c1 symmetry.

  Rotational constants: A =      0.25550  B =      0.13331  C =      0.09911 [cm^-1]
  Rotational constants: A =   7659.71603  B =   3996.60504  C =   2971.23708 [MHz]
  Nuclear repulsion =  199.187556665079825

  Charge       = 0
  Multiplicity = 1
  Electrons    = 42
  Nalpha       = 21
  Nbeta        = 21

  ==> Algorithm <==

  SCF Algorithm Type is DF.
  DIIS enabled.
  MOM disabled.
  Fractional occupation disabled.
  Guess Type is CORE.
  Energy threshold   = 1.00e-06
  Density threshold  = 1.00e-06
  Integral threshold = 0.00e+00

  ==> Primary Basis <==

  Basis Set: 6-31G*
    Number of shells: 50
    Number of basis function: 95
    Number of Cartesian functions: 95
    Spherical Harmonics?: false
    Max angular momentum: 2

  ==> Pre-Iterations <==

   -------------------------------------------------------
    Irrep   Nso     Nmo     Nalpha   Nbeta   Ndocc  Nsocc
   -------------------------------------------------------
     A         95      95       0       0       0       0
   -------------------------------------------------------
    Total      95      95      21      21      21       0
   -------------------------------------------------------

 OEINTS: Overlap, kinetic, potential, dipole, and quadrupole integrals
         stored in file 35.

  ==> Integral Setup <==

  ==> DFJK: Density-Fitted J/K Matrices <==

    J tasked:                  Yes
    K tasked:                  Yes
    wK tasked:                  No
    OpenMP threads:              1
    Integrals threads:           1
    Memory (MB):              1430
    Algorithm:                Core
    Integral Cache:           NONE
    Schwarz Cutoff:          1E-12
    Fitting Condition:       1E-12

   => Auxiliary Basis Set <=

  Basis Set: 
    Number of shells: 210
    Number of basis function: 655
    Number of Cartesian functions: 655
    Spherical Harmonics?: false
    Max angular momentum: 3

  Minimum eigenvalue in the overlap matrix is 4.8114924288E-03.
  Using Symmetric Orthogonalization.
  SCF Guess: Core (One-Electron) Hamiltonian.

  ==> Iterations <==

                           Total Energy        Delta E     RMS |[F,P]|

   @DF-RHF iter   1:  -183.53663269761674   -1.83537e+02   7.98856e-02 
   @DF-RHF iter   2:  -156.11699413815498    2.74196e+01   6.66446e-02 DIIS
   @DF-RHF iter   3:  -203.47919153854579   -4.73622e+01   5.34213e-02 DIIS
   @DF-RHF iter   4:  -230.49499047554676   -2.70158e+01   1.90374e-02 DIIS
   @DF-RHF iter   5:  -232.04485059603766   -1.54986e+00   3.79034e-03 DIIS
   @DF-RHF iter   6:  -232.10433577674380   -5.94852e-02   1.30159e-03 DIIS
   @DF-RHF iter   7:  -232.11187408846777   -7.53831e-03   3.66516e-04 DIIS
   @DF-RHF iter   8:  -232.11262632924544   -7.52241e-04   9.43692e-05 DIIS
   @DF-RHF iter   9:  -232.11267535667938   -4.90274e-05   2.81751e-05 DIIS
   @DF-RHF iter  10:  -232.11268137246660   -6.01579e-06   6.85894e-06 DIIS
   @DF-RHF iter  11:  -232.11268183009727   -4.57631e-07   2.13837e-06 DIIS
   @DF-RHF iter  12:  -232.11268186283561   -3.27383e-08   5.38701e-07 DIIS

  ==> Post-Iterations <==

    Orbital Energies (a.u.)
    -----------------------

    Doubly Occupied:                                                      

       1A    -20.551208     2A    -11.267364     3A    -11.259782  
       4A    -11.214721     5A    -11.209970     6A     -1.379299  
       7A     -1.054190     8A     -0.968306     9A     -0.878313  
      10A     -0.808110    11A     -0.686081    12A     -0.662717  
      13A     -0.635114    14A     -0.583771    15A     -0.562701  
      16A     -0.544606    17A     -0.536861    18A     -0.486226  
      19A     -0.479536    20A     -0.458318    21A     -0.395964  

    Virtual:                                                              

      22A      0.239486    23A      0.266601    24A      0.276588  
      25A      0.297548    26A      0.310371    27A      0.314639  
      28A      0.324656    29A      0.335703    30A      0.350160  
      31A      0.363838    32A      0.401900    33A      0.445821  
      34A      0.456174    35A      0.510249    36A      0.693685  
      37A      0.717306    38A      0.759437    39A      0.765697  
      40A      0.795436    41A      0.819436    42A      0.832161  
      43A      0.904119    44A      0.960537    45A      0.976441  
      46A      1.046709    47A      1.071947    48A      1.101064  
      49A      1.132995    50A      1.154364    51A      1.158240  
      52A      1.184698    53A      1.200334    54A      1.211319  
      55A      1.221743    56A      1.244848    57A      1.279946  
      58A      1.288620    59A      1.305257    60A      1.444441  
      61A      1.465226    62A      1.558449    63A      1.634715  
      64A      1.734290    65A      1.748455    66A      1.768106  
      67A      1.889693    68A      1.968409    69A      1.974911  
      70A      2.069999    71A      2.213031    72A      2.231410  
      73A      2.280508    74A      2.321846    75A      2.377687  
      76A      2.445879    77A      2.470486    78A      2.511060  
      79A      2.554589    80A      2.577750    81A      2.617600  
      82A      2.706288    83A      2.719394    84A      2.755635  
      85A      2.858860    86A      2.924669    87A      2.983094  
      88A      3.063933    89A      3.137579    90A      3.306719  
      91A      4.408716    92A      4.606400    93A      4.677001  
      94A      4.812646    95A      4.950549  

    Final Occupation by Irrep:
              A 
    DOCC [    21 ]

  Energy converged.

  @DF-RHF Final Energy:  -232.11268186283561

   => Energetics <=

    Nuclear Repulsion Energy =            199.1875566650798248
    One-Electron Energy =                -709.3543388240142349
    Two-Electron Energy =                 278.0541002960983406
    DFT Exchange-Correlation Energy =       0.0000000000000000
    Empirical Dispersion Energy =           0.0000000000000000
    PCM Polarization Energy =               0.0000000000000000
    EFP Energy =                            0.0000000000000000
    Total Energy =                       -232.1126818628360979

    Alert: EFP and PCM quantities not currently incorporated into SCF psivars.

Properties will be evaluated at   0.000000,   0.000000,   0.000000 Bohr
  ==> Properties <==


Properties computed using the SCF density matrix

  Nuclear Dipole Moment: (a.u.)
     X:    -2.4022      Y:    -0.7045      Z:     3.6365

  Electronic Dipole Moment: (a.u.)
     X:     2.0092      Y:     0.7908      Z:    -3.2316

  Dipole Moment: (a.u.)
     X:    -0.3931      Y:     0.0863      Z:     0.4049     Total:     0.5708

  Dipole Moment: (Debye)
     X:    -0.9991      Y:     0.2194      Z:     1.0290     Total:     1.4509


  Saving occupied orbitals to File 180.

*** tstop() called on cx1-3-16-3.cx1.hpc.ic.ac.uk at Tue Jul  5 16:44:32 2016
Module time:
	user time   =       4.86 seconds =       0.08 minutes
	system time =       0.03 seconds =       0.00 minutes
	total time  =          5 seconds =       0.08 minutes
Total time:
	user time   =       4.86 seconds =       0.08 minutes
	system time =       0.03 seconds =       0.00 minutes
	total time  =          5 seconds =       0.08 minutes


Properties will be evaluated at   0.000000,   0.000000,   0.000000 Bohr

Properties computed using the  density matrix

  Nuclear Dipole Moment: (a.u.)
     X:    -2.4022      Y:    -0.7045      Z:     3.6365

  Electronic Dipole Moment: (a.u.)
     X:     2.0092      Y:     0.7908      Z:    -3.2316

  Dipole Moment: (a.u.)
     X:    -0.3931      Y:     0.0863      Z:     0.4049     Total:     0.5708

  Dipole Moment: (Debye)
     X:    -0.9991      Y:     0.2194      Z:     1.0290     Total:     1.4509

  Quadrupole Moment: (Debye Ang)
    XX:   -32.8430     YY:   -31.6689     ZZ:   -35.6422
    XY:     1.1190     XZ:     2.1373     YZ:     0.7208

  Traceless Quadrupole Moment: (Debye Ang)
    XX:     0.5417     YY:     1.7158     ZZ:    -2.2575
    XY:     1.1190     XZ:     2.1373     YZ:     0.7208

  Mulliken Charges: (a.u.)
   Center  Symbol    Alpha    Beta     Spin     Total
       1     H     0.43048  0.43048  0.00000  0.13904
       2     C     3.07625  3.07625  0.00000 -0.15249
       3     O     4.30286  4.30286  0.00000 -0.60573
       4     H     0.41294  0.41294  0.00000  0.17413
       5     H     0.43506  0.43506  0.00000  0.12989
       6     C     3.00100  3.00100  0.00000 -0.00199
       7     C     3.15801  3.15801  0.00000 -0.31602
       8     H     0.43216  0.43216  0.00000  0.13568
       9     H     0.41377  0.41377  0.00000  0.17246
      10     C     3.24547  3.24547  0.00000 -0.49094
      11     H     0.41200  0.41200  0.00000  0.17600
      12     H     0.42407  0.42407  0.00000  0.15187
      13     H     0.41724  0.41724  0.00000  0.16552
      14     H     0.41695  0.41695  0.00000  0.16610
      15     H     0.42176  0.42176  0.00000  0.15648

   Total alpha = 21.00000, Total beta = 21.00000, Total charge =  0.00000


*** PSI4 exiting successfully. Buy a developer a beer!
