    -----------------------------------------------------------------------
          Psi4: An Open-Source Ab Initio Electronic Structure Package
                              Psi4 (no tag) Driver

                          Git: Rev {detached?}  

    J. M. Turney, A. C. Simmonett, R. M. Parrish, E. G. Hohenstein,
    F. A. Evangelista, J. T. Fermann, B. J. Mintz, L. A. Burns, J. J. Wilke,
    M. L. Abrams, N. J. Russ, M. L. Leininger, C. L. Janssen, E. T. Seidl,
    W. D. Allen, H. F. Schaefer, R. A. King, E. F. Valeev, C. D. Sherrill,
    and T. D. Crawford, WIREs Comput. Mol. Sci. 2, 556-565 (2012)
    (doi: 10.1002/wcms.93)

                         Additional Contributions by
    A. E. DePrince, M. Saitow, U. Bozkaya, A. Yu. Sokolov
    -----------------------------------------------------------------------


    Psi4 started on: Tue Jul  5 16:45:01 2016

    Process ID:   9050
    PSI4DATADIR: /export131/home/mjharvey/miniconda3/share
    Memory level set to 256.000 MB

  ==> Input File <==

--------------------------------------------------------------------------
set {
	reference rhf
	basis 6-31G*
}


set_num_threads( 1 )
memory 2 gb

molecule MOL {
0 1

H	 -3.161837	 0.500524	 -0.000234
C	 -2.367097	 -0.232926	 -0.000000
O	 -1.158440	 0.455814	 -0.000122
H	 -2.468853	 -0.861886	 -0.882833
H	 -2.468942	 -0.861421	 0.883154
C	 -1.058687	 1.440634	 0.983775
C	 0.351949	 1.430249	 1.546501
H	 -1.784070	 1.253859	 1.776765
H	 -1.290281	 2.418955	 0.560501
C	 0.613744	 0.222519	 2.445241
H	 1.053220	 1.439892	 0.717774
H	 0.508555	 2.350916	 2.100167
H	 0.485987	 -0.710261	 1.903002
H	 1.626740	 0.240759	 2.832992
H	 -0.063095	 0.206811	 3.294974

	symmetry c1
}
set optking {
	frozen_dihedral = ("
		6 3 2 4,
		11 7 6 8
	")
}

ee = energy('scf')
oeprop('DIPOLE', 'QUADRUPOLE', 'MULLIKEN_CHARGES')
f=open( 'psi4out.xyz', 'w' )
f.write( "15  " )
f.write( str(ee) + "\n" )
f.write( MOL.save_string_xyz() )
f.close()
--------------------------------------------------------------------------

  Memory set to   2.000 GiB by Python script.

*** tstart() called on cx1-3-16-3.cx1.hpc.ic.ac.uk
*** at Tue Jul  5 16:45:02 2016


         ---------------------------------------------------------
                                   SCF
            by Justin Turney, Rob Parrish, and Andy Simmonett
                              RHF Reference
                        1 Threads,   2000 MiB Core
         ---------------------------------------------------------

  ==> Geometry <==

    Molecular point group: c1
    Full point group: C1

    Geometry (in Angstrom), charge = 0, multiplicity = 1:

       Center              X                  Y                   Z               Mass       
    ------------   -----------------  -----------------  -----------------  -----------------
           H         -2.410255852677    -0.142642054139    -0.985661011284     1.007825032070
           C         -1.615515852677    -0.876092054139    -0.985427011284    12.000000000000
           O         -0.406858852677    -0.187352054139    -0.985549011284    15.994914619560
           H         -1.717271852677    -1.505052054139    -1.868260011284     1.007825032070
           H         -1.717360852677    -1.504587054139    -0.102273011284     1.007825032070
           C         -0.307105852677     0.797467945861    -0.001652011284    12.000000000000
           C          1.103530147323     0.787082945861     0.561073988716    12.000000000000
           H         -1.032488852677     0.610692945861     0.791337988716     1.007825032070
           H         -0.538699852677     1.775788945861    -0.424926011284     1.007825032070
           C          1.365325147323    -0.420647054139     1.459813988716    12.000000000000
           H          1.804801147323     0.796725945861    -0.267653011284     1.007825032070
           H          1.260136147323     1.707749945861     1.114739988716     1.007825032070
           H          1.237568147323    -1.353427054139     0.917574988716     1.007825032070
           H          2.378321147323    -0.402407054139     1.847564988716     1.007825032070
           H          0.688486147323    -0.436355054139     2.309546988716     1.007825032070

  Running in c1 symmetry.

  Rotational constants: A =      0.34196  B =      0.09624  C =      0.08484 [cm^-1]
  Rotational constants: A =  10251.76148  B =   2885.24778  C =   2543.36945 [MHz]
  Nuclear repulsion =  193.973749407060893

  Charge       = 0
  Multiplicity = 1
  Electrons    = 42
  Nalpha       = 21
  Nbeta        = 21

  ==> Algorithm <==

  SCF Algorithm Type is DF.
  DIIS enabled.
  MOM disabled.
  Fractional occupation disabled.
  Guess Type is CORE.
  Energy threshold   = 1.00e-06
  Density threshold  = 1.00e-06
  Integral threshold = 0.00e+00

  ==> Primary Basis <==

  Basis Set: 6-31G*
    Number of shells: 50
    Number of basis function: 95
    Number of Cartesian functions: 95
    Spherical Harmonics?: false
    Max angular momentum: 2

  ==> Pre-Iterations <==

   -------------------------------------------------------
    Irrep   Nso     Nmo     Nalpha   Nbeta   Ndocc  Nsocc
   -------------------------------------------------------
     A         95      95       0       0       0       0
   -------------------------------------------------------
    Total      95      95      21      21      21       0
   -------------------------------------------------------

 OEINTS: Overlap, kinetic, potential, dipole, and quadrupole integrals
         stored in file 35.

  ==> Integral Setup <==

  ==> DFJK: Density-Fitted J/K Matrices <==

    J tasked:                  Yes
    K tasked:                  Yes
    wK tasked:                  No
    OpenMP threads:              1
    Integrals threads:           1
    Memory (MB):              1430
    Algorithm:                Core
    Integral Cache:           NONE
    Schwarz Cutoff:          1E-12
    Fitting Condition:       1E-12

   => Auxiliary Basis Set <=

  Basis Set: 
    Number of shells: 210
    Number of basis function: 655
    Number of Cartesian functions: 655
    Spherical Harmonics?: false
    Max angular momentum: 3

  Minimum eigenvalue in the overlap matrix is 5.0324625114E-03.
  Using Symmetric Orthogonalization.
  SCF Guess: Core (One-Electron) Hamiltonian.

  ==> Iterations <==

                           Total Energy        Delta E     RMS |[F,P]|

   @DF-RHF iter   1:  -182.63315345326163   -1.82633e+02   8.10288e-02 
   @DF-RHF iter   2:  -159.42948294436070    2.32037e+01   6.48593e-02 DIIS
   @DF-RHF iter   3:  -203.07069079048722   -4.36412e+01   5.35149e-02 DIIS
   @DF-RHF iter   4:  -229.94346695274771   -2.68728e+01   2.20855e-02 DIIS
   @DF-RHF iter   5:  -232.05461246297841   -2.11115e+00   3.87425e-03 DIIS
   @DF-RHF iter   6:  -232.12261689180690   -6.80044e-02   1.62554e-03 DIIS
   @DF-RHF iter   7:  -232.13383985584159   -1.12230e-02   3.46325e-04 DIIS
   @DF-RHF iter   8:  -232.13459885898658   -7.59003e-04   1.09697e-04 DIIS
   @DF-RHF iter   9:  -232.13465994788476   -6.10889e-05   3.17427e-05 DIIS
   @DF-RHF iter  10:  -232.13466751597900   -7.56809e-06   7.31663e-06 DIIS
   @DF-RHF iter  11:  -232.13466806367927   -5.47700e-07   2.44760e-06 DIIS
   @DF-RHF iter  12:  -232.13466810718336   -4.35041e-08   7.53647e-07 DIIS

  ==> Post-Iterations <==

    Orbital Energies (a.u.)
    -----------------------

    Doubly Occupied:                                                      

       1A    -20.551103     2A    -11.266193     3A    -11.265205  
       4A    -11.213722     5A    -11.206678     6A     -1.378348  
       7A     -1.053889     8A     -0.952308     9A     -0.884971  
      10A     -0.802868    11A     -0.667669    12A     -0.660972  
      13A     -0.634249    14A     -0.585654    15A     -0.580049  
      16A     -0.541740    17A     -0.495024    18A     -0.488071  
      19A     -0.481537    20A     -0.464036    21A     -0.406241  

    Virtual:                                                              

      22A      0.233408    23A      0.264819    24A      0.289505  
      25A      0.297165    26A      0.310176    27A      0.318783  
      28A      0.328123    29A      0.332006    30A      0.336489  
      31A      0.352155    32A      0.376111    33A      0.413864  
      34A      0.450515    35A      0.452698    36A      0.711378  
      37A      0.724609    38A      0.754042    39A      0.769990  
      40A      0.798176    41A      0.802374    42A      0.850482  
      43A      0.900176    44A      0.930247    45A      0.967502  
      46A      1.003762    47A      1.084615    48A      1.109779  
      49A      1.136261    50A      1.139970    51A      1.146651  
      52A      1.164381    53A      1.184615    54A      1.202818  
      55A      1.213183    56A      1.236612    57A      1.242490  
      58A      1.263796    59A      1.283797    60A      1.398959  
      61A      1.429806    62A      1.529946    63A      1.662664  
      64A      1.708963    65A      1.753530    66A      1.790790  
      67A      1.876845    68A      1.941748    69A      1.956134  
      70A      2.087945    71A      2.182306    72A      2.236225  
      73A      2.287541    74A      2.321502    75A      2.382334  
      76A      2.452861    77A      2.464430    78A      2.502342  
      79A      2.526009    80A      2.596224    81A      2.618194  
      82A      2.701868    83A      2.716119    84A      2.769884  
      85A      2.842221    86A      2.884001    87A      3.001726  
      88A      3.041061    89A      3.188802    90A      3.327394  
      91A      4.373417    92A      4.588901    93A      4.675885  
      94A      4.776244    95A      4.925639  

    Final Occupation by Irrep:
              A 
    DOCC [    21 ]

  Energy converged.

  @DF-RHF Final Energy:  -232.13466810718336

   => Energetics <=

    Nuclear Repulsion Energy =            193.9737494070608932
    One-Electron Energy =                -699.0560291747900692
    Two-Electron Energy =                 272.9476116605468974
    DFT Exchange-Correlation Energy =       0.0000000000000000
    Empirical Dispersion Energy =           0.0000000000000000
    PCM Polarization Energy =               0.0000000000000000
    EFP Energy =                            0.0000000000000000
    Total Energy =                       -232.1346681071822786

    Alert: EFP and PCM quantities not currently incorporated into SCF psivars.

Properties will be evaluated at   0.000000,   0.000000,   0.000000 Bohr
  ==> Properties <==


Properties computed using the SCF density matrix

  Nuclear Dipole Moment: (a.u.)
     X:    -0.0458      Y:    -0.4261      Z:     3.1189

  Electronic Dipole Moment: (a.u.)
     X:    -0.3532      Y:     0.5055      Z:    -2.7745

  Dipole Moment: (a.u.)
     X:    -0.3990      Y:     0.0794      Z:     0.3445     Total:     0.5331

  Dipole Moment: (Debye)
     X:    -1.0141      Y:     0.2019      Z:     0.8755     Total:     1.3549


  Saving occupied orbitals to File 180.

*** tstop() called on cx1-3-16-3.cx1.hpc.ic.ac.uk at Tue Jul  5 16:45:07 2016
Module time:
	user time   =       4.90 seconds =       0.08 minutes
	system time =       0.05 seconds =       0.00 minutes
	total time  =          5 seconds =       0.08 minutes
Total time:
	user time   =       4.90 seconds =       0.08 minutes
	system time =       0.05 seconds =       0.00 minutes
	total time  =          5 seconds =       0.08 minutes


Properties will be evaluated at   0.000000,   0.000000,   0.000000 Bohr

Properties computed using the  density matrix

  Nuclear Dipole Moment: (a.u.)
     X:    -0.0458      Y:    -0.4261      Z:     3.1189

  Electronic Dipole Moment: (a.u.)
     X:    -0.3532      Y:     0.5055      Z:    -2.7745

  Dipole Moment: (a.u.)
     X:    -0.3990      Y:     0.0794      Z:     0.3445     Total:     0.5331

  Dipole Moment: (Debye)
     X:    -1.0141      Y:     0.2019      Z:     0.8755     Total:     1.3549

  Quadrupole Moment: (Debye Ang)
    XX:   -31.1573     YY:   -32.0665     ZZ:   -34.6835
    XY:     1.2473     XZ:     0.9072     YZ:     0.7553

  Traceless Quadrupole Moment: (Debye Ang)
    XX:     1.4784     YY:     0.5692     ZZ:    -2.0477
    XY:     1.2473     XZ:     0.9072     YZ:     0.7553

  Mulliken Charges: (a.u.)
   Center  Symbol    Alpha    Beta     Spin     Total
       1     H     0.42962  0.42962  0.00000  0.14076
       2     C     3.08027  3.08027  0.00000 -0.16054
       3     O     4.30427  4.30427  0.00000 -0.60853
       4     H     0.41357  0.41357  0.00000  0.17286
       5     H     0.42911  0.42911  0.00000  0.14179
       6     C     2.99195  2.99195  0.00000  0.01610
       7     C     3.15722  3.15722  0.00000 -0.31445
       8     H     0.43237  0.43237  0.00000  0.13525
       9     H     0.42532  0.42532  0.00000  0.14936
      10     C     3.24433  3.24433  0.00000 -0.48865
      11     H     0.41171  0.41171  0.00000  0.17658
      12     H     0.42425  0.42425  0.00000  0.15149
      13     H     0.41222  0.41222  0.00000  0.17555
      14     H     0.41897  0.41897  0.00000  0.16205
      15     H     0.42481  0.42481  0.00000  0.15038

   Total alpha = 21.00000, Total beta = 21.00000, Total charge = -0.00000


*** PSI4 exiting successfully. Buy a developer a beer!
