    -----------------------------------------------------------------------
          Psi4: An Open-Source Ab Initio Electronic Structure Package
                              Psi4 (no tag) Driver

                          Git: Rev {detached?}  

    J. M. Turney, A. C. Simmonett, R. M. Parrish, E. G. Hohenstein,
    F. A. Evangelista, J. T. Fermann, B. J. Mintz, L. A. Burns, J. J. Wilke,
    M. L. Abrams, N. J. Russ, M. L. Leininger, C. L. Janssen, E. T. Seidl,
    W. D. Allen, H. F. Schaefer, R. A. King, E. F. Valeev, C. D. Sherrill,
    and T. D. Crawford, WIREs Comput. Mol. Sci. 2, 556-565 (2012)
    (doi: 10.1002/wcms.93)

                         Additional Contributions by
    A. E. DePrince, M. Saitow, U. Bozkaya, A. Yu. Sokolov
    -----------------------------------------------------------------------


    Psi4 started on: Tue Jul  5 16:56:45 2016

    Process ID:  15324
    PSI4DATADIR: /export131/home/mjharvey/miniconda3/share
    Memory level set to 256.000 MB

  ==> Input File <==

--------------------------------------------------------------------------
set {
	reference rhf
	basis 6-31G*
}


set_num_threads( 1 )
memory 2 gb

molecule MOL {
0 1

H	 -2.153054	 -2.250733	 0.000000
O	 -2.462445	 -1.355403	 0.000000
C	 -1.434260	 -0.483044	 0.000000
C	 -0.160282	 -0.998433	 0.214627
C	 -1.606806	 0.873172	 -0.202032
H	 -0.050522	 -2.055314	 0.369249
C	 0.931284	 -0.154718	 0.225708
H	 -2.586306	 1.284548	 -0.369080
C	 -0.495009	 1.711703	 -0.187945
H	 1.912113	 -0.560710	 0.392185
C	 0.777868	 1.209965	 0.024721
C	 -0.683838	 3.129388	 -0.400099
H	 1.624995	 1.868669	 0.032793
N	 -0.833755	 4.243538	 -0.564718

	symmetry c1
}
set optking {
	frozen_dihedral = ("
		5 3 2 1
	")
}

ee = energy('scf')
oeprop('DIPOLE', 'QUADRUPOLE', 'MULLIKEN_CHARGES')
f=open( 'psi4out.xyz', 'w' )
f.write( "14  " )
f.write( str(ee) + "\n" )
f.write( MOL.save_string_xyz() )
f.close()
--------------------------------------------------------------------------

  Memory set to   2.000 GiB by Python script.

*** tstart() called on cx1-3-4-4.cx1.hpc.ic.ac.uk
*** at Tue Jul  5 16:56:46 2016


         ---------------------------------------------------------
                                   SCF
            by Justin Turney, Rob Parrish, and Andy Simmonett
                              RHF Reference
                        1 Threads,   2000 MiB Core
         ---------------------------------------------------------

  ==> Geometry <==

    Molecular point group: c1
    Full point group: C1

    Geometry (in Angstrom), charge = 0, multiplicity = 1:

       Center              X                  Y                   Z               Mass       
    ------------   -----------------  -----------------  -----------------  -----------------
           H         -1.444226132697    -3.086375479290     0.095596690772     1.007825032070
           O         -1.753617132697    -2.191045479290     0.095596690772    15.994914619560
           C         -0.725432132697    -1.318686479290     0.095596690772    12.000000000000
           C          0.548545867303    -1.834075479290     0.310223690772    12.000000000000
           C         -0.897978132697     0.037529520710    -0.106435309228    12.000000000000
           H          0.658305867303    -2.890956479290     0.464845690772     1.007825032070
           C          1.640111867303    -0.990360479290     0.321304690772    12.000000000000
           H         -1.877478132697     0.448905520710    -0.273483309228     1.007825032070
           C          0.213818867303     0.876060520710    -0.092348309228    12.000000000000
           H          2.620940867303    -1.396352479290     0.487781690772     1.007825032070
           C          1.486695867303     0.374322520710     0.120317690772    12.000000000000
           C          0.024989867303     2.293745520710    -0.304502309228    12.000000000000
           H          2.333822867303     1.033026520710     0.128389690772     1.007825032070
           N         -0.124927132697     3.407895520710    -0.469121309228    14.003074004780

  Running in c1 symmetry.

  Rotational constants: A =      0.11885  B =      0.04008  C =      0.02997 [cm^-1]
  Rotational constants: A =   3563.12311  B =   1201.56720  C =    898.62637 [MHz]
  Nuclear repulsion =  379.327902674544532

  Charge       = 0
  Multiplicity = 1
  Electrons    = 62
  Nalpha       = 31
  Nbeta        = 31

  ==> Algorithm <==

  SCF Algorithm Type is DF.
  DIIS enabled.
  MOM disabled.
  Fractional occupation disabled.
  Guess Type is CORE.
  Energy threshold   = 1.00e-06
  Density threshold  = 1.00e-06
  Integral threshold = 0.00e+00

  ==> Primary Basis <==

  Basis Set: 6-31G*
    Number of shells: 64
    Number of basis function: 145
    Number of Cartesian functions: 145
    Spherical Harmonics?: false
    Max angular momentum: 2

  ==> Pre-Iterations <==

   -------------------------------------------------------
    Irrep   Nso     Nmo     Nalpha   Nbeta   Ndocc  Nsocc
   -------------------------------------------------------
     A        145     145       0       0       0       0
   -------------------------------------------------------
    Total     145     145      31      31      31       0
   -------------------------------------------------------

 OEINTS: Overlap, kinetic, potential, dipole, and quadrupole integrals
         stored in file 35.

  ==> Integral Setup <==

  ==> DFJK: Density-Fitted J/K Matrices <==

    J tasked:                  Yes
    K tasked:                  Yes
    wK tasked:                  No
    OpenMP threads:              1
    Integrals threads:           1
    Memory (MB):              1430
    Algorithm:                Core
    Integral Cache:           NONE
    Schwarz Cutoff:          1E-12
    Fitting Condition:       1E-12

   => Auxiliary Basis Set <=

  Basis Set: 
    Number of shells: 261
    Number of basis function: 854
    Number of Cartesian functions: 854
    Spherical Harmonics?: false
    Max angular momentum: 3

  Minimum eigenvalue in the overlap matrix is 4.1967297640E-04.
  Using Symmetric Orthogonalization.
  SCF Guess: Core (One-Electron) Hamiltonian.

  ==> Iterations <==

                           Total Energy        Delta E     RMS |[F,P]|

   @DF-RHF iter   1:  -309.43546055024314   -3.09435e+02   6.50357e-02 
   @DF-RHF iter   2:  -146.49121972968300    1.62944e+02   7.88215e-02 DIIS
   @DF-RHF iter   3:  -317.83280579894478   -1.71342e+02   5.28160e-02 DIIS
   @DF-RHF iter   4:  -342.04357993678428   -2.42108e+01   5.26718e-02 DIIS
   @DF-RHF iter   5:  -395.87871984499367   -5.38351e+01   1.08129e-02 DIIS
   @DF-RHF iter   6:  -397.09068279483887   -1.21196e+00   4.29380e-03 DIIS
   @DF-RHF iter   7:  -397.27039742431094   -1.79715e-01   1.18837e-03 DIIS
   @DF-RHF iter   8:  -397.28589465667727   -1.54972e-02   4.35594e-04 DIIS
   @DF-RHF iter   9:  -397.28843709647566   -2.54244e-03   1.40027e-04 DIIS
   @DF-RHF iter  10:  -397.28882058702362   -3.83491e-04   6.02686e-05 DIIS
   @DF-RHF iter  11:  -397.28892321289169   -1.02626e-04   3.04343e-05 DIIS
   @DF-RHF iter  12:  -397.28897275434093   -4.95414e-05   1.36236e-05 DIIS
   @DF-RHF iter  13:  -397.28898226823554   -9.51389e-06   7.14282e-06 DIIS
   @DF-RHF iter  14:  -397.28898559784290   -3.32961e-06   2.39398e-06 DIIS
   @DF-RHF iter  15:  -397.28898584719997   -2.49357e-07   5.75907e-07 DIIS

  ==> Post-Iterations <==

    Orbital Energies (a.u.)
    -----------------------

    Doubly Occupied:                                                      

       1A    -20.611047     2A    -15.574811     3A    -11.327056  
       4A    -11.294964     5A    -11.275905     6A    -11.264870  
       7A    -11.261204     8A    -11.259546     9A    -11.258562  
      10A     -1.433015    11A     -1.232412    12A     -1.182513  
      13A     -1.063420    14A     -1.039941    15A     -0.898839  
      16A     -0.859235    17A     -0.793922    18A     -0.718018  
      19A     -0.691177    20A     -0.675866    21A     -0.629000  
      22A     -0.614659    23A     -0.592229    24A     -0.566872  
      25A     -0.547169    26A     -0.538130    27A     -0.522301  
      28A     -0.473587    29A     -0.472042    30A     -0.363659  
      31A     -0.337545  

    Virtual:                                                              

      32A      0.085757    33A      0.132541    34A      0.200311  
      35A      0.220307    36A      0.225888    37A      0.274130  
      38A      0.280415    39A      0.290820    40A      0.330334  
      41A      0.369264    42A      0.378555    43A      0.437631  
      44A      0.455210    45A      0.468655    46A      0.485838  
      47A      0.570748    48A      0.598720    49A      0.633639  
      50A      0.700301    51A      0.713993    52A      0.717187  
      53A      0.757325    54A      0.782774    55A      0.793268  
      56A      0.803104    57A      0.804023    58A      0.827388  
      59A      0.852282    60A      0.856732    61A      0.871001  
      62A      0.884253    63A      0.887601    64A      0.937568  
      65A      0.955040    66A      0.993279    67A      0.996672  
      68A      1.064716    69A      1.090036    70A      1.103505  
      71A      1.104231    72A      1.122979    73A      1.126895  
      74A      1.138702    75A      1.169676    76A      1.188545  
      77A      1.220852    78A      1.232478    79A      1.262223  
      80A      1.331372    81A      1.376298    82A      1.391986  
      83A      1.437679    84A      1.450199    85A      1.465300  
      86A      1.518185    87A      1.558940    88A      1.587471  
      89A      1.610090    90A      1.634388    91A      1.688036  
      92A      1.701488    93A      1.730380    94A      1.733406  
      95A      1.799781    96A      1.807028    97A      1.844939  
      98A      1.983302    99A      2.024184   100A      2.062238  
     101A      2.079593   102A      2.102787   103A      2.110501  
     104A      2.154378   105A      2.227365   106A      2.241747  
     107A      2.261964   108A      2.285189   109A      2.292199  
     110A      2.295532   111A      2.330005   112A      2.388358  
     113A      2.422958   114A      2.440296   115A      2.454490  
     116A      2.537151   117A      2.585705   118A      2.614074  
     119A      2.623408   120A      2.754231   121A      2.824837  
     122A      2.843170   123A      2.868043   124A      2.928916  
     125A      2.994037   126A      3.004526   127A      3.023816  
     128A      3.097871   129A      3.138745   130A      3.168868  
     131A      3.209191   132A      3.280564   133A      3.382053  
     134A      3.562858   135A      3.674687   136A      3.870776  
     137A      4.348302   138A      4.465617   139A      4.506280  
     140A      4.559740   141A      4.613397   142A      4.720944  
     143A      4.828497   144A      4.970597   145A      5.257827  

    Final Occupation by Irrep:
              A 
    DOCC [    31 ]

  Energy converged.

  @DF-RHF Final Energy:  -397.28898584719997

   => Energetics <=

    Nuclear Repulsion Energy =            379.3279026745445321
    One-Electron Energy =               -1290.4865303892054271
    Two-Electron Energy =                 513.8696418674619508
    DFT Exchange-Correlation Energy =       0.0000000000000000
    Empirical Dispersion Energy =           0.0000000000000000
    PCM Polarization Energy =               0.0000000000000000
    EFP Energy =                            0.0000000000000000
    Total Energy =                       -397.2889858471990010

    Alert: EFP and PCM quantities not currently incorporated into SCF psivars.

Properties will be evaluated at   0.000000,   0.000000,   0.000000 Bohr
  ==> Properties <==


Properties computed using the SCF density matrix

  Nuclear Dipole Moment: (a.u.)
     X:     2.1400      Y:    -5.5438      Z:     0.8485

  Electronic Dipole Moment: (a.u.)
     X:    -1.4439      Y:     3.3462      Z:    -0.5870

  Dipole Moment: (a.u.)
     X:     0.6961      Y:    -2.1976      Z:     0.2615     Total:     2.3200

  Dipole Moment: (Debye)
     X:     1.7693      Y:    -5.5856      Z:     0.6646     Total:     5.8967


  Saving occupied orbitals to File 180.

*** tstop() called on cx1-3-4-4.cx1.hpc.ic.ac.uk at Tue Jul  5 16:57:02 2016
Module time:
	user time   =      15.42 seconds =       0.26 minutes
	system time =       0.10 seconds =       0.00 minutes
	total time  =         16 seconds =       0.27 minutes
Total time:
	user time   =      15.42 seconds =       0.26 minutes
	system time =       0.10 seconds =       0.00 minutes
	total time  =         16 seconds =       0.27 minutes


Properties will be evaluated at   0.000000,   0.000000,   0.000000 Bohr

Properties computed using the  density matrix

  Nuclear Dipole Moment: (a.u.)
     X:     2.1400      Y:    -5.5438      Z:     0.8485

  Electronic Dipole Moment: (a.u.)
     X:    -1.4439      Y:     3.3462      Z:    -0.5870

  Dipole Moment: (a.u.)
     X:     0.6961      Y:    -2.1976      Z:     0.2615     Total:     2.3200

  Dipole Moment: (Debye)
     X:     1.7693      Y:    -5.5856      Z:     0.6646     Total:     5.8967

  Quadrupole Moment: (Debye Ang)
    XX:   -48.8407     YY:   -56.9816     ZZ:   -54.1953
    XY:    -0.2451     XZ:     1.0675     YZ:     1.3591

  Traceless Quadrupole Moment: (Debye Ang)
    XX:     4.4985     YY:    -3.6424     ZZ:    -0.8561
    XY:    -0.2451     XZ:     1.0675     YZ:     1.3591

  Mulliken Charges: (a.u.)
   Center  Symbol    Alpha    Beta     Spin     Total
       1     H     0.26692  0.26692  0.00000  0.46615
       2     O     4.37907  4.37907  0.00000 -0.75814
       3     C     2.78298  2.78298  0.00000  0.43405
       4     C     3.13897  3.13897  0.00000 -0.27794
       5     C     3.11589  3.11589  0.00000 -0.23177
       6     H     0.39660  0.39660  0.00000  0.20680
       7     C     3.09484  3.09484  0.00000 -0.18967
       8     H     0.37402  0.37402  0.00000  0.25195
       9     C     2.99089  2.99089  0.00000  0.01823
      10     H     0.38938  0.38938  0.00000  0.22125
      11     C     3.09956  3.09956  0.00000 -0.19913
      12     C     2.86528  2.86528  0.00000  0.26944
      13     H     0.38122  0.38122  0.00000  0.23756
      14     N     3.72439  3.72439  0.00000 -0.44878

   Total alpha = 31.00000, Total beta = 31.00000, Total charge =  0.00000


*** PSI4 exiting successfully. Buy a developer a beer!
