    -----------------------------------------------------------------------
          Psi4: An Open-Source Ab Initio Electronic Structure Package
                              Psi4 (no tag) Driver

                          Git: Rev {detached?}  

    J. M. Turney, A. C. Simmonett, R. M. Parrish, E. G. Hohenstein,
    F. A. Evangelista, J. T. Fermann, B. J. Mintz, L. A. Burns, J. J. Wilke,
    M. L. Abrams, N. J. Russ, M. L. Leininger, C. L. Janssen, E. T. Seidl,
    W. D. Allen, H. F. Schaefer, R. A. King, E. F. Valeev, C. D. Sherrill,
    and T. D. Crawford, WIREs Comput. Mol. Sci. 2, 556-565 (2012)
    (doi: 10.1002/wcms.93)

                         Additional Contributions by
    A. E. DePrince, M. Saitow, U. Bozkaya, A. Yu. Sokolov
    -----------------------------------------------------------------------


    Psi4 started on: Tue Jul  5 16:38:21 2016

    Process ID:  24441
    PSI4DATADIR: /export131/home/mjharvey/miniconda3/share
    Memory level set to 256.000 MB

  ==> Input File <==

--------------------------------------------------------------------------
set {
	reference rhf
	basis 6-31G*
}


set_num_threads( 1 )
memory 2 gb

molecule MOL {
0 1

H	 -2.258317	 -0.920211	 0.781428
O	 -2.347518	 -0.290803	 0.079804
C	 -1.184022	 0.487508	 -0.006784
C	 0.062599	 -0.378592	 0.031606
H	 -1.176523	 1.099369	 -0.904519
H	 -1.187323	 1.153111	 0.844927
O	 -0.043959	 -1.331029	 -0.978982
H	 0.152937	 -0.862108	 1.006301
H	 0.944499	 0.244194	 -0.106143
C	 0.205349	 -2.638254	 -0.568920
H	 -0.499175	 -2.956067	 0.197416
H	 0.095197	 -3.278403	 -1.433199
H	 1.214292	 -2.745689	 -0.176131

	symmetry c1
}
set optking {
	frozen_dihedral = ("
		8 4 3 5,
		1 2 3 5,
		4 7 10 13
	")
}

ee = energy('scf')
oeprop('DIPOLE', 'QUADRUPOLE', 'MULLIKEN_CHARGES')
f=open( 'psi4out.xyz', 'w' )
f.write( "13  " )
f.write( str(ee) + "\n" )
f.write( MOL.save_string_xyz() )
f.close()
--------------------------------------------------------------------------

  Memory set to   2.000 GiB by Python script.

*** tstart() called on cx1-49-4-2.cx1.hpc.ic.ac.uk
*** at Tue Jul  5 16:38:21 2016


         ---------------------------------------------------------
                                   SCF
            by Justin Turney, Rob Parrish, and Andy Simmonett
                              RHF Reference
                        1 Threads,   2000 MiB Core
         ---------------------------------------------------------

  ==> Geometry <==

    Molecular point group: c1
    Full point group: C1

    Geometry (in Angstrom), charge = 0, multiplicity = 1:

       Center              X                  Y                   Z               Mass       
    ------------   -----------------  -----------------  -----------------  -----------------
           H         -1.574840980324    -0.070486606221     1.053605070375     1.007825032070
           O         -1.664041980324     0.558921393779     0.351981070375    15.994914619560
           C         -0.500545980324     1.337232393779     0.265393070375    12.000000000000
           C          0.746075019676     0.471132393779     0.303783070375    12.000000000000
           H         -0.493046980324     1.949093393779    -0.632341929625     1.007825032070
           H         -0.503846980324     2.002835393779     1.117104070375     1.007825032070
           O          0.639517019676    -0.481304606221    -0.706804929625    15.994914619560
           H          0.836413019676    -0.012383606221     1.278478070375     1.007825032070
           H          1.627975019676     1.093918393779     0.166034070375     1.007825032070
           C          0.888825019676    -1.788529606221    -0.296742929625    12.000000000000
           H          0.184301019676    -2.106342606221     0.469593070375     1.007825032070
           H          0.778673019676    -2.428678606221    -1.161021929625     1.007825032070
           H          1.897768019676    -1.895964606221     0.096046070375     1.007825032070

  Running in c1 symmetry.

  Rotational constants: A =      0.33913  B =      0.10828  C =      0.09231 [cm^-1]
  Rotational constants: A =  10166.86816  B =   3246.13118  C =   2767.38553 [MHz]
  Nuclear repulsion =  196.405658496724016

  Charge       = 0
  Multiplicity = 1
  Electrons    = 42
  Nalpha       = 21
  Nbeta        = 21

  ==> Algorithm <==

  SCF Algorithm Type is DF.
  DIIS enabled.
  MOM disabled.
  Fractional occupation disabled.
  Guess Type is CORE.
  Energy threshold   = 1.00e-06
  Density threshold  = 1.00e-06
  Integral threshold = 0.00e+00

  ==> Primary Basis <==

  Basis Set: 6-31G*
    Number of shells: 46
    Number of basis function: 91
    Number of Cartesian functions: 91
    Spherical Harmonics?: false
    Max angular momentum: 2

  ==> Pre-Iterations <==

   -------------------------------------------------------
    Irrep   Nso     Nmo     Nalpha   Nbeta   Ndocc  Nsocc
   -------------------------------------------------------
     A         91      91       0       0       0       0
   -------------------------------------------------------
    Total      91      91      21      21      21       0
   -------------------------------------------------------

 OEINTS: Overlap, kinetic, potential, dipole, and quadrupole integrals
         stored in file 35.

  ==> Integral Setup <==

  ==> DFJK: Density-Fitted J/K Matrices <==

    J tasked:                  Yes
    K tasked:                  Yes
    wK tasked:                  No
    OpenMP threads:              1
    Integrals threads:           1
    Memory (MB):              1430
    Algorithm:                Core
    Integral Cache:           NONE
    Schwarz Cutoff:          1E-12
    Fitting Condition:       1E-12

   => Auxiliary Basis Set <=

  Basis Set: 
    Number of shells: 192
    Number of basis function: 605
    Number of Cartesian functions: 605
    Spherical Harmonics?: false
    Max angular momentum: 3

  Minimum eigenvalue in the overlap matrix is 4.8519181089E-03.
  Using Symmetric Orthogonalization.
  SCF Guess: Core (One-Electron) Hamiltonian.

  ==> Iterations <==

                           Total Energy        Delta E     RMS |[F,P]|

   @DF-RHF iter   1:  -223.78562950870713   -2.23786e+02   7.93087e-02 
   @DF-RHF iter   2:  -172.52450655739136    5.12611e+01   7.27141e-02 DIIS
   @DF-RHF iter   3:  -234.48445399798146   -6.19599e+01   6.46751e-02 DIIS
   @DF-RHF iter   4:  -261.33226542660202   -2.68478e+01   3.61221e-02 DIIS
   @DF-RHF iter   5:  -267.72578919900684   -6.39352e+00   7.06950e-03 DIIS
   @DF-RHF iter   6:  -267.91035062525697   -1.84561e-01   2.97982e-03 DIIS
   @DF-RHF iter   7:  -267.93911346551704   -2.87628e-02   6.56961e-04 DIIS
   @DF-RHF iter   8:  -267.94085826829712   -1.74480e-03   2.48131e-04 DIIS
   @DF-RHF iter   9:  -267.94113399702786   -2.75729e-04   7.21639e-05 DIIS
   @DF-RHF iter  10:  -267.94116587737835   -3.18804e-05   1.68208e-05 DIIS
   @DF-RHF iter  11:  -267.94116791959300   -2.04221e-06   3.95652e-06 DIIS
   @DF-RHF iter  12:  -267.94116805564573   -1.36053e-07   1.56494e-06 DIIS
   @DF-RHF iter  13:  -267.94116807364554   -1.79998e-08   4.20774e-07 DIIS

  ==> Post-Iterations <==

    Orbital Energies (a.u.)
    -----------------------

    Doubly Occupied:                                                      

       1A    -20.558301     2A    -20.551471     3A    -11.276060  
       4A    -11.271279     5A    -11.269168     6A     -1.390357  
       7A     -1.354737     8A     -1.019433     9A     -0.919849  
      10A     -0.841638    11A     -0.688824    12A     -0.679854  
      13A     -0.670566    14A     -0.628146    15A     -0.605195  
      16A     -0.581347    17A     -0.528551    18A     -0.498812  
      19A     -0.473023    20A     -0.444966    21A     -0.410928  

    Virtual:                                                              

      22A      0.207582    23A      0.265356    24A      0.272711  
      25A      0.292532    26A      0.312414    27A      0.322145  
      28A      0.327466    29A      0.342773    30A      0.347169  
      31A      0.407931    32A      0.436953    33A      0.452609  
      34A      0.738402    35A      0.771247    36A      0.778400  
      37A      0.809097    38A      0.821043    39A      0.836020  
      40A      0.883839    41A      0.916398    42A      0.959559  
      43A      1.067896    44A      1.090408    45A      1.117924  
      46A      1.129405    47A      1.141751    48A      1.165447  
      49A      1.189764    50A      1.207641    51A      1.228010  
      52A      1.256560    53A      1.276072    54A      1.318741  
      55A      1.374949    56A      1.392501    57A      1.453557  
      58A      1.582789    59A      1.664100    60A      1.711878  
      61A      1.718342    62A      1.800882    63A      1.832091  
      64A      1.895989    65A      1.970483    66A      2.048754  
      67A      2.155410    68A      2.210093    69A      2.258456  
      70A      2.389508    71A      2.416721    72A      2.438854  
      73A      2.473994    74A      2.481971    75A      2.507451  
      76A      2.603755    77A      2.666626    78A      2.744415  
      79A      2.763511    80A      2.799660    81A      2.865622  
      82A      2.913784    83A      3.048553    84A      3.175035  
      85A      3.207571    86A      3.319638    87A      4.168573  
      88A      4.383754    89A      4.620245    90A      4.689362  
      91A      4.866943  

    Final Occupation by Irrep:
              A 
    DOCC [    21 ]

  Energy converged.

  @DF-RHF Final Energy:  -267.94116807364554

   => Energetics <=

    Nuclear Repulsion Energy =            196.4056584967240155
    One-Electron Energy =                -755.3686030222305590
    Two-Electron Energy =                 291.0217764518601484
    DFT Exchange-Correlation Energy =       0.0000000000000000
    Empirical Dispersion Energy =           0.0000000000000000
    PCM Polarization Energy =               0.0000000000000000
    EFP Energy =                            0.0000000000000000
    Total Energy =                       -267.9411680736464518

    Alert: EFP and PCM quantities not currently incorporated into SCF psivars.

Properties will be evaluated at   0.000000,   0.000000,   0.000000 Bohr
  ==> Properties <==


Properties computed using the SCF density matrix

  Nuclear Dipole Moment: (a.u.)
     X:     2.5763      Y:    -1.3758      Z:     2.2365

  Electronic Dipole Moment: (a.u.)
     X:    -1.8525      Y:     1.1109      Z:    -1.3312

  Dipole Moment: (a.u.)
     X:     0.7238      Y:    -0.2649      Z:     0.9053     Total:     1.1889

  Dipole Moment: (Debye)
     X:     1.8397      Y:    -0.6734      Z:     2.3010     Total:     3.0220


  Saving occupied orbitals to File 180.

*** tstop() called on cx1-49-4-2.cx1.hpc.ic.ac.uk at Tue Jul  5 16:38:26 2016
Module time:
	user time   =       4.77 seconds =       0.08 minutes
	system time =       0.05 seconds =       0.00 minutes
	total time  =          5 seconds =       0.08 minutes
Total time:
	user time   =       4.77 seconds =       0.08 minutes
	system time =       0.05 seconds =       0.00 minutes
	total time  =          5 seconds =       0.08 minutes


Properties will be evaluated at   0.000000,   0.000000,   0.000000 Bohr

Properties computed using the  density matrix

  Nuclear Dipole Moment: (a.u.)
     X:     2.5763      Y:    -1.3758      Z:     2.2365

  Electronic Dipole Moment: (a.u.)
     X:    -1.8525      Y:     1.1109      Z:    -1.3312

  Dipole Moment: (a.u.)
     X:     0.7238      Y:    -0.2649      Z:     0.9053     Total:     1.1889

  Dipole Moment: (Debye)
     X:     1.8397      Y:    -0.6734      Z:     2.3010     Total:     3.0220

  Quadrupole Moment: (Debye Ang)
    XX:   -35.3282     YY:   -27.2588     ZZ:   -30.8599
    XY:     1.4410     XZ:    -0.7392     YZ:    -0.6662

  Traceless Quadrupole Moment: (Debye Ang)
    XX:    -4.1793     YY:     3.8902     ZZ:     0.2891
    XY:     1.4410     XZ:    -0.7392     YZ:    -0.6662

  Mulliken Charges: (a.u.)
   Center  Symbol    Alpha    Beta     Spin     Total
       1     H     0.28316  0.28316  0.00000  0.43368
       2     O     4.36584  4.36584  0.00000 -0.73167
       3     C     2.99224  2.99224  0.00000  0.01552
       4     C     3.01548  3.01548  0.00000 -0.03097
       5     H     0.40923  0.40923  0.00000  0.18155
       6     H     0.43114  0.43114  0.00000  0.13773
       7     O     4.29596  4.29596  0.00000 -0.59191
       8     H     0.43447  0.43447  0.00000  0.13106
       9     H     0.42148  0.42148  0.00000  0.15704
      10     C     3.07852  3.07852  0.00000 -0.15704
      11     H     0.43410  0.43410  0.00000  0.13179
      12     H     0.40931  0.40931  0.00000  0.18139
      13     H     0.42908  0.42908  0.00000  0.14184

   Total alpha = 21.00000, Total beta = 21.00000, Total charge = -0.00000


*** PSI4 exiting successfully. Buy a developer a beer!
