
    -----------------------------------------------------------------------
          Psi4: An Open-Source Ab Initio Electronic Structure Package
                               Psi4 1.1 release

                         Git: Rev {HEAD} add49b9 


    R. M. Parrish, L. A. Burns, D. G. A. Smith, A. C. Simmonett,
    A. E. DePrince III, E. G. Hohenstein, U. Bozkaya, A. Yu. Sokolov,
    R. Di Remigio, R. M. Richard, J. F. Gonthier, A. M. James,
    H. R. McAlexander, A. Kumar, M. Saitow, X. Wang, B. P. Pritchard,
    P. Verma, H. F. Schaefer III, K. Patkowski, R. A. King, E. F. Valeev,
    F. A. Evangelista, J. M. Turney, T. D. Crawford, and C. D. Sherrill,
    J. Chem. Theory Comput. in press (2017).
    (doi: 10.1021/acs.jctc.7b00174)

    -----------------------------------------------------------------------


    Psi4 started on: Tuesday, 12 December 2017 02:33PM

    Process ID:  17169
    PSIDATADIR: /shared/raimis/opt/miniconda/share/psi4
    Memory:     500.0 MiB
    Threads:    1
    
  ==> Input File <==

--------------------------------------------------------------------------
set_num_threads(1)
set_memory(3145728000)

set { reference rks }
set { basis 6-31G* }

molecule MOL {
    1 1
    noreorient
    nocom
    symmetry c1
    C    0.000000   0.000000  -0.177864
    C    0.036678   1.219374   0.524165
    C    0.031764   1.213119   1.915444
    C   -0.000000  -0.000000   2.610107
    C   -0.031764  -1.213119   1.915444
    C   -0.036677  -1.219374   0.524165
    C    0.000000  -0.000000  -1.644734
    H    0.018170   2.164705  -0.010853
    H    0.042402   2.152895   2.457886
    H   -0.000000  -0.000000   3.695756
    H   -0.042402  -2.152895   2.457886
    H   -0.018170  -2.164705  -0.010853
    N   -0.712590  -0.905950  -2.308460
    N    0.712590   0.905950  -2.308461
    H    0.673432   1.006469  -3.315997
    H    1.377190   1.485970  -1.813317
    H   -1.472673  -1.387080  -1.845783
    H   -0.575653  -1.099813  -3.293566
}

set optking { frozen_dihedral = (" 1 7 13 17 ") }

set optking { dynamic_level = 1 
 geom_maxiter = 250
 print_trajectory_xyz_file = True }

energy, wfn = optimize('B3LYP-D3', return_wfn=True)

import os
os.chdir(os.environ['HTMD_PSI4_WORKDIR'])

oeprop(wfn, 'DIPOLE', 'QUADRUPOLE', 'MULLIKEN_CHARGES')

with open('psi4out.xyz', 'w') as f:
    f.write('18 ' )
    f.write('%.12f\n' % energy)
    f.write(MOL.save_string_xyz())
--------------------------------------------------------------------------
  Threads set to 1 by Python driver.

  Memory set to   2.930 GiB by Python driver.
gradient() will perform analytic gradient computation.

*** tstart() called on computer06
*** at Tue Dec 12 14:33:21 2017

   => Loading Basis Set <=

    Name: 6-31G*
    Role: ORBITAL
    Keyword: BASIS
    atoms 1-7         entry C          line   102 file /shared/raimis/opt/miniconda/share/psi4/basis/6-31gs.gbs 
    atoms 8-12, 15-18 entry H          line    35 file /shared/raimis/opt/miniconda/share/psi4/basis/6-31gs.gbs 
    atoms 13-14       entry N          line   119 file /shared/raimis/opt/miniconda/share/psi4/basis/6-31gs.gbs 


         ---------------------------------------------------------
                                   SCF
            by Justin Turney, Rob Parrish, and Andy Simmonett
                              RKS Reference
                        1 Threads,   3000 MiB Core
         ---------------------------------------------------------

  ==> Geometry <==

    Molecular point group: c1
    Full point group: C1

    Geometry (in Angstrom), charge = 1, multiplicity = 1:

       Center              X                  Y                   Z               Mass       
    ------------   -----------------  -----------------  -----------------  -----------------
           C          0.000000000000     0.000000000000    -0.177864000000    12.000000000000
           C          0.036678000000     1.219374000000     0.524165000000    12.000000000000
           C          0.031764000000     1.213119000000     1.915444000000    12.000000000000
           C          0.000000000000     0.000000000000     2.610107000000    12.000000000000
           C         -0.031764000000    -1.213119000000     1.915444000000    12.000000000000
           C         -0.036677000000    -1.219374000000     0.524165000000    12.000000000000
           C          0.000000000000     0.000000000000    -1.644734000000    12.000000000000
           H          0.018170000000     2.164705000000    -0.010853000000     1.007825032070
           H          0.042402000000     2.152895000000     2.457886000000     1.007825032070
           H          0.000000000000     0.000000000000     3.695756000000     1.007825032070
           H         -0.042402000000    -2.152895000000     2.457886000000     1.007825032070
           H         -0.018170000000    -2.164705000000    -0.010853000000     1.007825032070
           N         -0.712590000000    -0.905950000000    -2.308460000000    14.003074004780
           N          0.712590000000     0.905950000000    -2.308461000000    14.003074004780
           H          0.673432000000     1.006469000000    -3.315997000000     1.007825032070
           H          1.377190000000     1.485970000000    -1.813317000000     1.007825032070
           H         -1.472673000000    -1.387080000000    -1.845783000000     1.007825032070
           H         -0.575653000000    -1.099813000000    -3.293566000000     1.007825032070

  Running in c1 symmetry.

  Rotational constants: A =      0.12185  B =      0.03956  C =      0.03130 [cm^-1]
  Rotational constants: A =   3652.82928  B =   1186.04402  C =    938.26905 [MHz]
  Nuclear repulsion =  416.871672211151179

  Charge       = 1
  Multiplicity = 1
  Electrons    = 64
  Nalpha       = 32
  Nbeta        = 32

  ==> Algorithm <==

  SCF Algorithm Type is DF.
  DIIS enabled.
  MOM disabled.
  Fractional occupation disabled.
  Guess Type is SAD.
  Energy threshold   = 1.00e-08
  Density threshold  = 1.00e-08
  Integral threshold = 0.00e+00

  ==> Primary Basis <==

  Basis Set: 6-31G*
    Blend: 6-31G*
    Number of shells: 72
    Number of basis function: 153
    Number of Cartesian functions: 153
    Spherical Harmonics?: false
    Max angular momentum: 2

  ==> DFT Potential <==

   => B3LYP Composite Functional <= 

    B3LYP Hybrid-GGA Exchange-Correlation Functional (VWN1-RPA)

    P.J. Stephens et. al., J. Phys. Chem., 98, 11623-11627, 1994

    Points   =           5000
    Deriv    =              1
    GGA      =           TRUE
    Meta     =          FALSE

    X_LRC        =          FALSE
    X_Hybrid     =           TRUE
    X_Alpha      =   2.000000E-01
    X_Omega      =   0.000000E+00
    C_LRC        =          FALSE
    C_Hybrid     =          FALSE
    C_Alpha      =   0.000000E+00
    C_Omega      =   0.000000E+00

   => Exchange Functionals <=

    0.8000    B3_X
    0.2000      HF 

   => Correlation Functionals <=

    0.1900 VWN3RPA_C
    0.8100   LYP_C

   => Molecular Quadrature <=

    Radial Scheme    =       TREUTLER
    Pruning Scheme   =           FLAT
    Nuclear Scheme   =       TREUTLER

    BS radius alpha  =              1
    Pruning alpha    =              1
    Radial Points    =             75
    Spherical Points =            302
    Total Points     =         396977
    Total Blocks     =            366
    Max Points       =           4893
    Max Functions    =            150

   => -D3ZERO: Empirical Dispersion <=

    Grimme's -D3 (zero-damping) Dispersion Correction
    Grimme S.; Antony J.; Ehrlich S.; Krieg H. (2010), J. Chem. Phys., 132: 154104

        S6 =   1.000000E+00
        S8 =   1.703000E+00
       SR6 =   1.261000E+00
    ALPHA6 =   1.400000E+01

   => Loading Basis Set <=

    Name: (6-31G* AUX)
    Role: JKFIT
    Keyword: DF_BASIS_SCF
    atoms 1-7         entry C          line   120 file /shared/raimis/opt/miniconda/share/psi4/basis/cc-pvdz-jkfit.gbs 
    atoms 8-12, 15-18 entry H          line    50 file /shared/raimis/opt/miniconda/share/psi4/basis/cc-pvdz-jkfit.gbs 
    atoms 13-14       entry N          line   170 file /shared/raimis/opt/miniconda/share/psi4/basis/cc-pvdz-jkfit.gbs 

  ==> Pre-Iterations <==

   -------------------------------------------------------
    Irrep   Nso     Nmo     Nalpha   Nbeta   Ndocc  Nsocc
   -------------------------------------------------------
     A        153     153       0       0       0       0
   -------------------------------------------------------
    Total     153     153      32      32      32       0
   -------------------------------------------------------

  ==> Integral Setup <==

  ==> DFJK: Density-Fitted J/K Matrices <==

    J tasked:                  Yes
    K tasked:                  Yes
    wK tasked:                  No
    OpenMP threads:              1
    Integrals threads:           1
    Memory (MB):              2250
    Algorithm:                Core
    Integral Cache:           NONE
    Schwarz Cutoff:          1E-12
    Fitting Condition:       1E-12

   => Auxiliary Basis Set <=

  Basis Set: (6-31G* AUX)
    Blend: CC-PVDZ-JKFIT
    Number of shells: 297
    Number of basis function: 954
    Number of Cartesian functions: 954
    Spherical Harmonics?: false
    Max angular momentum: 3

  Minimum eigenvalue in the overlap matrix is 4.8706439715E-04.
  Using Symmetric Orthogonalization.

  SCF Guess: Superposition of Atomic Densities via on-the-fly atomic UHF.

  ==> Iterations <==

                           Total Energy        Delta E     RMS |[F,P]|

   @DF-RKS iter   0:  -379.37726108939239   -3.79377e+02   3.34494e-02 
   @DF-RKS iter   1:  -381.00764692999041   -1.63039e+00   6.10834e-03 
   @DF-RKS iter   2:  -380.93159562949154    7.60513e-02   6.62406e-03 DIIS
   @DF-RKS iter   3:  -381.46046054128607   -5.28865e-01   8.55386e-04 DIIS
   @DF-RKS iter   4:  -381.46577830990969   -5.31777e-03   5.52703e-04 DIIS
   @DF-RKS iter   5:  -381.46939066007076   -3.61235e-03   1.32648e-04 DIIS
   @DF-RKS iter   6:  -381.46958333782368   -1.92678e-04   4.45813e-05 DIIS
   @DF-RKS iter   7:  -381.46960750628296   -2.41685e-05   8.90997e-06 DIIS
   @DF-RKS iter   8:  -381.46960827236018   -7.66077e-07   3.00142e-06 DIIS
   @DF-RKS iter   9:  -381.46960836521913   -9.28590e-08   7.74519e-07 DIIS
   @DF-RKS iter  10:  -381.46960837127625   -6.05712e-09   2.72206e-07 DIIS
   @DF-RKS iter  11:  -381.46960837205910   -7.82848e-10   6.85887e-08 DIIS
   @DF-RKS iter  12:  -381.46960837210730   -4.82032e-11   3.25285e-08 DIIS
   @DF-RKS iter  13:  -381.46960837212242   -1.51203e-11   4.86456e-09 DIIS

  ==> Post-Iterations <==

    Orbital Energies (a.u.)
    -----------------------

    Doubly Occupied:                                                      

       1A    -14.568589     2A    -14.566039     3A    -10.496424  
       4A    -10.372485     5A    -10.355991     6A    -10.355632  
       7A    -10.343292     8A    -10.340296     9A    -10.340068  
      10A     -1.183077    11A     -1.091223    12A     -1.013975  
      13A     -0.926183    14A     -0.901872    15A     -0.844792  
      16A     -0.784572    17A     -0.772395    18A     -0.741746  
      19A     -0.732119    20A     -0.691215    21A     -0.669244  
      22A     -0.625280    23A     -0.614739    24A     -0.584525  
      25A     -0.579089    26A     -0.570968    27A     -0.518477  
      28A     -0.505087    29A     -0.497709    30A     -0.472777  
      31A     -0.412168    32A     -0.405471  

    Virtual:                                                              

      33A     -0.219086    34A     -0.156895    35A     -0.128603  
      36A     -0.106203    37A     -0.067673    38A     -0.059315  
      39A     -0.038322    40A     -0.031894    41A      0.007463  
      42A      0.017512    43A      0.021472    44A      0.054991  
      45A      0.062077    46A      0.084993    47A      0.129049  
      48A      0.146929    49A      0.155838    50A      0.158108  
      51A      0.201774    52A      0.243252    53A      0.298418  
      54A      0.350304    55A      0.355842    56A      0.382043  
      57A      0.388365    58A      0.397462    59A      0.421783  
      60A      0.422753    61A      0.442927    62A      0.448196  
      63A      0.453639    64A      0.471496    65A      0.474019  
      66A      0.475338    67A      0.485234    68A      0.515562  
      69A      0.526351    70A      0.533472    71A      0.541013  
      72A      0.590231    73A      0.606276    74A      0.654909  
      75A      0.659948    76A      0.684152    77A      0.688356  
      78A      0.703933    79A      0.715570    80A      0.719335  
      81A      0.735156    82A      0.765709    83A      0.774744  
      84A      0.797259    85A      0.809729    86A      0.825242  
      87A      0.852106    88A      0.943067    89A      0.958654  
      90A      0.989584    91A      1.002681    92A      1.026353  
      93A      1.067643    94A      1.080671    95A      1.134928  
      96A      1.155369    97A      1.220925    98A      1.273955  
      99A      1.283219   100A      1.307315   101A      1.322146  
     102A      1.343453   103A      1.362377   104A      1.381975  
     105A      1.444279   106A      1.448746   107A      1.487519  
     108A      1.620982   109A      1.624978   110A      1.654891  
     111A      1.659620   112A      1.736773   113A      1.753385  
     114A      1.796017   115A      1.825628   116A      1.846950  
     117A      1.897885   118A      1.908087   119A      1.959862  
     120A      1.973746   121A      1.997537   122A      2.013031  
     123A      2.037835   124A      2.054702   125A      2.129085  
     126A      2.130266   127A      2.153051   128A      2.210115  
     129A      2.235716   130A      2.279761   131A      2.356046  
     132A      2.367013   133A      2.443206   134A      2.453542  
     135A      2.489430   136A      2.514179   137A      2.551307  
     138A      2.587829   139A      2.603197   140A      2.631212  
     141A      2.737913   142A      2.875919   143A      2.983685  
     144A      3.259347   145A      3.638202   146A      3.656724  
     147A      3.911737   148A      3.947662   149A      3.964062  
     150A      4.051994   151A      4.174454   152A      4.257227  
     153A      4.546531  

    Final Occupation by Irrep:
              A 
    DOCC [    32 ]

  Energy converged.

  @DF-RKS Final Energy:  -381.46960837212242

   => Energetics <=

    Nuclear Repulsion Energy =            416.8716722111511785
    One-Electron Energy =               -1328.9795383814389425
    Two-Electron Energy =                 575.0561998445800782
    DFT Exchange-Correlation Energy =     -44.4059809364147853
    Empirical Dispersion Energy =          -0.0119611100000000
    PCM Polarization Energy =               0.0000000000000000
    EFP Energy =                            0.0000000000000000
    Total Energy =                       -381.4696083721224227



Properties will be evaluated at   0.000000,   0.000000,   0.000000 Bohr

Properties computed using the SCF density matrix

  Nuclear Dipole Moment: (a.u.)
     X:     0.0044      Y:     0.0105      Z:     0.0058

  Electronic Dipole Moment: (a.u.)
     X:     0.0057      Y:    -0.0083      Z:    -2.2521

  Dipole Moment: (a.u.)
     X:     0.0101      Y:     0.0022      Z:    -2.2463     Total:     2.2463

  Dipole Moment: (Debye)
     X:     0.0256      Y:     0.0056      Z:    -5.7096     Total:     5.7096


*** tstop() called on computer06 at Tue Dec 12 14:34:24 2017
Module time:
	user time   =      62.55 seconds =       1.04 minutes
	system time =       0.62 seconds =       0.01 minutes
	total time  =         63 seconds =       1.05 minutes
Total time:
	user time   =      62.55 seconds =       1.04 minutes
	system time =       0.62 seconds =       0.01 minutes
	total time  =         63 seconds =       1.05 minutes

*** tstart() called on computer06
*** at Tue Dec 12 14:34:24 2017


         ------------------------------------------------------------
                                   SCF GRAD                          
                          Rob Parrish, Justin Turney,                
                       Andy Simmonett, and Alex Sokolov              
         ------------------------------------------------------------

  ==> Geometry <==

    Molecular point group: c1
    Full point group: C1

    Geometry (in Angstrom), charge = 1, multiplicity = 1:

       Center              X                  Y                   Z               Mass       
    ------------   -----------------  -----------------  -----------------  -----------------
           C          0.000000000000     0.000000000000    -0.177864000000    12.000000000000
           C          0.036678000000     1.219374000000     0.524165000000    12.000000000000
           C          0.031764000000     1.213119000000     1.915444000000    12.000000000000
           C          0.000000000000     0.000000000000     2.610107000000    12.000000000000
           C         -0.031764000000    -1.213119000000     1.915444000000    12.000000000000
           C         -0.036677000000    -1.219374000000     0.524165000000    12.000000000000
           C          0.000000000000     0.000000000000    -1.644734000000    12.000000000000
           H          0.018170000000     2.164705000000    -0.010853000000     1.007825032070
           H          0.042402000000     2.152895000000     2.457886000000     1.007825032070
           H          0.000000000000     0.000000000000     3.695756000000     1.007825032070
           H         -0.042402000000    -2.152895000000     2.457886000000     1.007825032070
           H         -0.018170000000    -2.164705000000    -0.010853000000     1.007825032070
           N         -0.712590000000    -0.905950000000    -2.308460000000    14.003074004780
           N          0.712590000000     0.905950000000    -2.308461000000    14.003074004780
           H          0.673432000000     1.006469000000    -3.315997000000     1.007825032070
           H          1.377190000000     1.485970000000    -1.813317000000     1.007825032070
           H         -1.472673000000    -1.387080000000    -1.845783000000     1.007825032070
           H         -0.575653000000    -1.099813000000    -3.293566000000     1.007825032070

  Nuclear repulsion =  416.871672211151179

  ==> Basis Set <==

  Basis Set: 6-31G*
    Blend: 6-31G*
    Number of shells: 72
    Number of basis function: 153
    Number of Cartesian functions: 153
    Spherical Harmonics?: false
    Max angular momentum: 2

  ==> DFJKGrad: Density-Fitted SCF Gradients <==

    Gradient:                    1
    J tasked:                  Yes
    K tasked:                  Yes
    wK tasked:                  No
    OpenMP threads:              1
    Integrals threads:           1
    Memory (MB):              2250
    Schwarz Cutoff:          0E+00
    Fitting Condition:       1E-12

   => Auxiliary Basis Set <=

  Basis Set: (6-31G* AUX)
    Blend: CC-PVDZ-JKFIT
    Number of shells: 297
    Number of basis function: 954
    Number of Cartesian functions: 954
    Spherical Harmonics?: false
    Max angular momentum: 3

  ==> DFT Potential <==

   => B3LYP Composite Functional <= 

    B3LYP Hybrid-GGA Exchange-Correlation Functional (VWN1-RPA)

    P.J. Stephens et. al., J. Phys. Chem., 98, 11623-11627, 1994

    Points   =           5000
    Deriv    =              1
    GGA      =           TRUE
    Meta     =          FALSE

    X_LRC        =          FALSE
    X_Hybrid     =           TRUE
    X_Alpha      =   2.000000E-01
    X_Omega      =   0.000000E+00
    C_LRC        =          FALSE
    C_Hybrid     =          FALSE
    C_Alpha      =   0.000000E+00
    C_Omega      =   0.000000E+00

   => Exchange Functionals <=

    0.8000    B3_X
    0.2000      HF 

   => Correlation Functionals <=

    0.1900 VWN3RPA_C
    0.8100   LYP_C

   => Molecular Quadrature <=

    Radial Scheme    =       TREUTLER
    Pruning Scheme   =           FLAT
    Nuclear Scheme   =       TREUTLER

    BS radius alpha  =              1
    Pruning alpha    =              1
    Radial Points    =             75
    Spherical Points =            302
    Total Points     =         396977
    Total Blocks     =            366
    Max Points       =           4893
    Max Functions    =            150


  -Total Gradient:
     Atom            X                  Y                   Z
    ------   -----------------  -----------------  -----------------
       1        0.001918832405    -0.001844870426     0.001250321238
       2        0.000096493469    -0.000248904119    -0.000929255891
       3       -0.000214300646    -0.000489644795     0.000350264480
       4        0.000049476797     0.000205912079    -0.000009683345
       5       -0.000140808651    -0.000137752632     0.000025040321
       6        0.000097747303     0.000876371111     0.000180477436
       7       -0.000514991145    -0.002165191292    -0.002331087501
       8        0.000086440879    -0.000030016834     0.000026791711
       9       -0.000003747256     0.000006949303    -0.000046507329
      10        0.000029477159    -0.000021031153    -0.000026733903
      11       -0.000021993470     0.000006677258     0.000005110575
      12        0.000380053178    -0.000406814272     0.000359422083
      13        0.000407809637     0.002011832337     0.001537455092
      14       -0.001584256711     0.001580946788    -0.000172698287
      15        0.000616745841    -0.000048571919     0.000101261933
      16       -0.000898302415     0.000474533337     0.000034491822
      17       -0.002227358222     0.002633262336    -0.001235584481
      18        0.001915269485    -0.002407241009     0.000866538465


*** tstop() called on computer06 at Tue Dec 12 14:34:40 2017
Module time:
	user time   =      15.61 seconds =       0.26 minutes
	system time =       0.32 seconds =       0.01 minutes
	total time  =         16 seconds =       0.27 minutes
Total time:
	user time   =      78.16 seconds =       1.30 minutes
	system time =       0.95 seconds =       0.02 minutes
	total time  =         79 seconds =       1.32 minutes

			-----------------------------------------
			 OPTKING 2.0: for geometry optimizations 
			  - R.A. King,  Bethel University        
			-----------------------------------------
	At level 1: Red. Int., RFO, no backsteps, dynamic trust

	Internal coordinates to be generated automatically.
	Detected frag 1 with atoms:  1 2 3 4 5 6 7 8 9 10 11 12 13 14 15 16 17 18
	---Fragment 1 Bond Connectivity---
	 1 : 2 6 7
	 2 : 1 3 8
	 3 : 2 4 9
	 4 : 3 5 10
	 5 : 4 6 11
	 6 : 1 5 12
	 7 : 1 13 14
	 8 : 2
	 9 : 3
	 10 : 4
	 11 : 5
	 12 : 6
	 13 : 7 17 18
	 14 : 7 15 16
	 15 : 14
	 16 : 14
	 17 : 13
	 18 : 13

	Assuming in current code that numbering for constraints corresponds to unified fragment.
	Frozen dihedral atom list: 
	     1     7    13    17
	---Fragment 1 Geometry and Gradient---
	 C           0.0000000000        0.0000000000       -0.3361142489
	 C           0.0693113751        2.3042829136        0.9905282984
	 C           0.0600252609        2.2924626766        3.6196645829
	 C           0.0000000000        0.0000000000        4.9323874075
	 C          -0.0600252609       -2.2924626766        3.6196645829
	 C          -0.0693094854       -2.3042829136        0.9905282984
	 C           0.0000000000        0.0000000000       -3.1080968214
	 H           0.0343363238        4.0906996085       -0.0205091977
	 H           0.0801281675        4.0683819429        4.6447314059
	 H           0.0000000000        0.0000000000        6.9839666940
	 H          -0.0801281675       -4.0683819429        4.6447314059
	 H          -0.0343363238       -4.0906996085       -0.0205091977
	 N          -1.3465999450       -1.7119973901       -4.3623571887
	 N           1.3465999450        1.7119973901       -4.3623590784
	 H           1.2726020491        1.9019507712       -6.2663261875
	 H           2.6025119329        2.8080763417       -3.4266725221
	 H          -2.7829486533       -2.6212013244       -3.4880243707
	 H          -1.0878265176       -2.0783453674       -6.2239377406
	             0.0019188324       -0.0018448704        0.0012503212
	             0.0000964935       -0.0002489041       -0.0009292559
	            -0.0002143006       -0.0004896448        0.0003502645
	             0.0000494768        0.0002059121       -0.0000096833
	            -0.0001408087       -0.0001377526        0.0000250403
	             0.0000977473        0.0008763711        0.0001804774
	            -0.0005149911       -0.0021651913       -0.0023310875
	             0.0000864409       -0.0000300168        0.0000267917
	            -0.0000037473        0.0000069493       -0.0000465073
	             0.0000294772       -0.0000210312       -0.0000267339
	            -0.0000219935        0.0000066773        0.0000051106
	             0.0003800532       -0.0004068143        0.0003594221
	             0.0004078096        0.0020118323        0.0015374551
	            -0.0015842567        0.0015809468       -0.0001726983
	             0.0006167458       -0.0000485719        0.0001012619
	            -0.0008983024        0.0004745333        0.0000344918
	            -0.0022273582        0.0026332623       -0.0012355845
	             0.0019152695       -0.0024072410        0.0008665385

	Previous optimization step data not found.  Starting new optimization.

	---Fragment 1 Intrafragment Coordinates---
	 - Coordinate -           - BOHR/RAD -       - ANG/DEG -
	 R(1,2)           =         2.659794	       1.407502
	 R(1,6)           =         2.659794	       1.407502
	 R(1,7)           =         2.771983	       1.466870
	 R(2,3)           =         2.629179	       1.391302
	 R(2,8)           =         2.052975	       1.086387
	 R(3,4)           =         2.642391	       1.398293
	 R(3,9)           =         2.050623	       1.085143
	 R(4,5)           =         2.642391	       1.398293
	 R(4,10)          =         2.051579	       1.085649
	 R(5,6)           =         2.629179	       1.391302
	 R(5,11)          =         2.050623	       1.085143
	 R(6,12)          =         2.052975	       1.086387
	 R(7,13)          =         2.513451	       1.330061
	 R(7,14)          =         2.513452	       1.330061
	 R(13,17)         =         1.911598	       1.011574
	 R(13,18)         =         1.914852	       1.013296
	 R(14,15)         =         1.914850	       1.013295
	 R(14,16)         =         1.911600	       1.011575
	 B(1,2,3)         =         2.088380	     119.655334
	 B(1,2,8)         =         2.103396	     120.515735
	 B(1,6,5)         =         2.088380	     119.655336
	 B(1,6,12)        =         2.103396	     120.515739
	 B(1,7,13)        =         2.093263	     119.935135
	 B(1,7,14)        =         2.093264	     119.935172
	 B(2,1,6)         =         2.097220	     120.161836
	 B(2,1,7)         =         2.092983	     119.919082
	 B(2,3,4)         =         2.095280	     120.050699
	 B(2,3,9)         =         2.089718	     119.732039
	 B(3,2,8)         =         2.090149	     119.756716
	 B(3,4,5)         =         2.101792	     120.423818
	 B(3,4,10)        =         2.090697	     119.788091
	 B(4,3,9)         =         2.098135	     120.214304
	 B(4,5,6)         =         2.095280	     120.050698
	 B(4,5,11)        =         2.098135	     120.214304
	 B(5,4,10)        =         2.090697	     119.788091
	 B(5,6,12)        =         2.090149	     119.756718
	 B(6,1,7)         =         2.092983	     119.919082
	 B(6,5,11)        =         2.089718	     119.732040
	 B(7,13,17)       =         2.092413	     119.886421
	 B(7,13,18)       =         2.144859	     122.891390
	 B(7,14,15)       =         2.144860	     122.891403
	 B(7,14,16)       =         2.092412	     119.886356
	 B(13,7,14)       =         2.096659	     120.129694
	 B(15,14,16)      =         2.043400	     117.078183
	 B(17,13,18)      =         2.043399	     117.078130
	 D(1,2,3,4)       =         0.007800	       0.446917
	 D(1,2,3,9)       =        -3.122897	    -178.928796
	 D(1,6,5,4)       =         0.007799	       0.446823
	 D(1,6,5,11)      =        -3.122897	    -178.928843
	*D(1,7,13,17)     =         0.349065	      19.999953
	 D(1,7,13,18)     =        -2.870944	    -164.492979
	 D(1,7,14,15)     =        -3.032165	    -173.730265
	 D(1,7,14,16)     =         0.187844	      10.762677
	 D(2,1,6,5)       =        -0.003905	      -0.223756
	 D(2,1,6,12)      =        -3.091438	    -177.126344
	 D(2,1,7,13)      =        -2.505167	    -143.535494
	 D(2,1,7,14)      =         0.636426	      36.464506
	 D(2,3,4,5)       =        -0.003943	      -0.225922
	 D(2,3,4,10)      =         3.137650	     179.774078
	 D(3,2,1,6)       =        -0.003908	      -0.223897
	 D(3,2,1,7)       =         3.137686	     179.776150
	 D(3,4,5,6)       =        -0.003942	      -0.225875
	 D(3,4,5,11)      =         3.126701	     179.146753
	 D(4,3,2,8)       =         3.095745	     177.373103
	 D(4,5,6,12)      =         3.095746	     177.373164
	 D(5,4,3,9)       =         3.126701	     179.146753
	 D(5,6,1,7)       =         3.137687	     179.776197
	 D(6,1,2,8)       =        -3.091438	    -177.126330
	 D(6,1,7,13)      =         0.636427	      36.464553
	 D(6,1,7,14)      =        -2.505166	    -143.535447
	 D(6,5,4,10)      =         3.137650	     179.774125
	 D(7,1,2,8)       =         0.050156	       2.873717
	 D(7,1,6,12)      =         0.050154	       2.873609
	 D(8,2,3,9)       =        -0.034952	      -2.002610
	 D(9,3,4,10)      =        -0.014892	      -0.853247
	 D(10,4,5,11)     =        -0.014892	      -0.853247
	 D(11,5,6,12)     =        -0.034950	      -2.002502
	 D(13,7,14,15)    =         0.109428	       6.269735
	 D(13,7,14,16)    =        -2.953749	    -169.237323
	 D(14,7,13,17)    =        -2.792528	    -160.000047
	 D(14,7,13,18)    =         0.270649	      15.507021

	Current energy   :      -381.4696083721

	Generating empirical Hessian (Schlegel '84) for each fragment.
	Taking RFO optimization step.
	Going to follow RFO solution 1.
	Using RFO vector 1.
	Norm of target step-size    0.22289
	Projected energy change by RFO approximation:        -0.0011725345

	Back-transformation to cartesian coordinates...
	Could not converge backtransformation.
	Using first guess instead.

	Back-transformation to cartesian coordinates to adjust frozen coordinates...
	Successfully converged to displaced geometry.

	--- Internal Coordinate Step in ANG or DEG, aJ/ANG or AJ/DEG ---
	 ---------------------------------------------------------------------------
	   Coordinate                Previous        Force       Change         New 
	   ----------                --------       ------       ------       ------
	    1 R(1,2)          =      1.407502     0.005084     0.000787     1.408290
	    2 R(1,6)          =      1.407502    -0.001173    -0.000130     1.407372
	    3 R(1,7)          =      1.466870    -0.009837    -0.001742     1.465128
	    4 R(2,3)          =      1.391302    -0.002546    -0.000271     1.391031
	    5 R(2,8)          =      1.086387     0.000339     0.000075     1.086462
	    6 R(3,4)          =      1.398293     0.002786     0.000413     1.398706
	    7 R(3,9)          =      1.085143     0.000139     0.000090     1.085234
	    8 R(4,5)          =      1.398293     0.001613     0.000325     1.398618
	    9 R(4,10)         =      1.085649     0.000214     0.000080     1.085729
	   10 R(5,6)          =      1.391302     0.000062     0.000065     1.391367
	   11 R(5,11)         =      1.085143     0.000022     0.000028     1.085171
	   12 R(6,12)         =      1.086387    -0.001508    -0.000072     1.086315
	   13 R(7,13)         =      1.330061     0.017811     0.003350     1.333411
	   14 R(7,14)         =      1.330061    -0.003185    -0.000284     1.329778
	   15 R(13,17)        =      1.011574     0.001192     0.001340     1.012914
	   16 R(13,18)        =      1.013296     0.001018     0.002733     1.016028
	   17 R(14,15)        =      1.013295     0.001074     0.000249     1.013544
	   18 R(14,16)        =      1.011575     0.002470     0.000455     1.012030
	   19 B(1,2,3)        =    119.655334    -0.000003    -0.003579   119.651755
	   20 B(1,2,8)        =    120.515735     0.000001     0.003148   120.518883
	   21 B(1,6,5)        =    119.655336    -0.000016    -0.058191   119.597145
	   22 B(1,6,12)       =    120.515739    -0.000031    -0.151362   120.364377
	   23 B(1,7,13)       =    119.935135    -0.000018    -0.094032   119.841102
	   24 B(1,7,14)       =    119.935172     0.000061     0.180626   120.115798
	   25 B(2,1,6)        =    120.161836     0.000018     0.056378   120.218214
	   26 B(2,1,7)        =    119.919082     0.000089     0.265395   120.184477
	   27 B(2,3,4)        =    120.050699    -0.000015    -0.050162   120.000537
	   28 B(2,3,9)        =    119.732039     0.000011     0.041813   119.773852
	   29 B(3,2,8)        =    119.756716     0.000003     0.010613   119.767329
	   30 B(3,4,5)        =    120.423818     0.000013     0.043146   120.466963
	   31 B(3,4,10)       =    119.788091    -0.000008    -0.031275   119.756816
	   32 B(4,3,9)        =    120.214304     0.000004     0.007359   120.221662
	   33 B(4,5,6)        =    120.050698     0.000003     0.011257   120.061955
	   34 B(4,5,11)       =    120.214304    -0.000001     0.000579   120.214882
	   35 B(5,4,10)       =    119.788091    -0.000005    -0.011997   119.776094
	   36 B(5,6,12)       =    119.756718     0.000048     0.220574   119.977292
	   37 B(6,1,7)        =    119.919082    -0.000107    -0.321775   119.597307
	   38 B(6,5,11)       =    119.732040    -0.000002    -0.010830   119.721209
	   39 B(7,13,17)      =    119.886421     0.000001    -0.012989   119.873432
	   40 B(7,13,18)      =    122.891390    -0.000027    -0.556994   122.334396
	   41 B(7,14,15)      =    122.891403    -0.000039    -0.199604   122.691799
	   42 B(7,14,16)      =    119.886356     0.000021     0.079152   119.965508
	   43 B(13,7,14)      =    120.129694    -0.000042    -0.189538   119.940156
	   44 B(15,14,16)     =    117.078183     0.000016     0.039637   117.117819
	   45 B(17,13,18)     =    117.078130     0.000016     0.095730   117.173860
	   46 D(1,2,3,4)      =      0.446917    -0.000001    -0.261913     0.185003
	   47 D(1,2,3,9)      =   -178.928796    -0.000001    -0.165047  -179.093843
	   48 D(1,6,5,4)      =      0.446823     0.000001     0.162389     0.609212
	   49 D(1,6,5,11)     =   -178.928843     0.000000     0.045348  -178.883495
	   50 *D(1,7,13,17)   =     19.999953     0.000000     0.000000    19.999953
	   51 D(1,7,13,18)    =   -164.492979    -0.000034    -4.779555  -169.272534
	   52 D(1,7,14,15)    =   -173.730265    -0.000004    -0.848363  -174.578628
	   53 D(1,7,14,16)    =     10.762677     0.000004     0.266874    11.029551
	   54 D(2,1,6,5)      =     -0.223756    -0.000002    -0.437645    -0.661401
	   55 D(2,1,6,12)     =   -177.126344    -0.000004    -0.689993  -177.816337
	   56 D(2,1,7,13)     =   -143.535494    -0.000016    -3.509798  -147.045292
	   57 D(2,1,7,14)     =     36.464506     0.000005     0.180934    36.645440
	   58 D(2,3,4,5)      =     -0.225922    -0.000000    -0.012017    -0.237939
	   59 D(2,3,4,10)     =    179.774078     0.000001     0.117517   179.891595
	   60 D(3,2,1,6)      =     -0.223897     0.000003     0.487565     0.263668
	   61 D(3,2,1,7)      =    179.776150     0.000003     0.473187   180.249337
	   62 D(3,4,5,6)      =     -0.225875     0.000000     0.062109    -0.163765
	   63 D(3,4,5,11)     =    179.146753     0.000001     0.179663   179.326415
	   64 D(4,3,2,8)      =    177.373103    -0.000000    -0.037075   177.336028
	   65 D(4,5,6,12)     =    177.373164     0.000002     0.402146   177.775309
	   66 D(5,4,3,9)      =    179.146753    -0.000001    -0.109106   179.037646
	   67 D(5,6,1,7)      =    179.776197    -0.000002    -0.423352   179.352845
	   68 D(6,1,2,8)      =   -177.126330     0.000001     0.260774  -176.865556
	   69 D(6,1,7,13)     =     36.464553    -0.000016    -3.524087    32.940466
	   70 D(6,1,7,14)     =   -143.535447     0.000005     0.166645  -143.368802
	   71 D(6,5,4,10)     =    179.774125    -0.000000    -0.067449   179.706677
	   72 D(7,1,2,8)      =      2.873717     0.000001     0.246397     3.120114
	   73 D(7,1,6,12)     =      2.873609    -0.000004    -0.675700     2.197909
	   74 D(8,2,3,9)      =     -2.002610     0.000000     0.059792    -1.942818
	   75 D(9,3,4,10)     =     -0.853247     0.000000     0.020427    -0.832821
	   76 D(10,4,5,11)    =     -0.853247     0.000000     0.050104    -0.803143
	   77 D(11,5,6,12)    =     -2.002502     0.000001     0.285104    -1.717398
	   78 D(13,7,14,15)   =      6.269735     0.000017     2.846044     9.115779
	   79 D(13,7,14,16)   =   -169.237323     0.000025     3.961280  -165.276043
	   80 D(14,7,13,17)   =   -160.000047    -0.000021    -3.684189  -163.684236
	   81 D(14,7,13,18)   =     15.507021    -0.000055    -8.463744     7.043277
	 ---------------------------------------------------------------------------
	Successfully symmetrized geometry.

  ==> Convergence Check <==

  Measures of convergence in internal coordinates in au.
  Criteria marked as inactive (o), active & met (*), and active & unmet ( ).
  --------------------------------------------------------------------------------------------- ~
   Step     Total Energy     Delta E     MAX Force     RMS Force      MAX Disp      RMS Disp    ~
  --------------------------------------------------------------------------------------------- ~
    Convergence Criteria    1.00e-06 *    3.00e-04 *             o    1.20e-03 *             o  ~
  --------------------------------------------------------------------------------------------- ~
      1    -381.46960837   -3.81e+02      3.16e-03      6.40e-04 o    1.48e-01      2.46e-02 o  ~
  ---------------------------------------------------------------------------------------------

	Writing optimization data to binary file.
	Structure for next step:
	Cartesian Geometry (in Angstrom)
	    C    -0.0130659693   0.0130140336  -0.1763285502
	    C     0.0336466065   1.2297117067   0.5313043927
	    C     0.0411173712   1.2169926335   1.9222570607
	    C     0.0062527638  -0.0000460522   2.6107193110
	    C    -0.0412522258  -1.2098144485   1.9104796595
	    C    -0.0576017969  -1.2096634701   0.5192092032
	    C    -0.0159048994   0.0125975150  -1.6414541107
	    H     0.0169755773   2.1776052254   0.0006255410
	    H     0.0621929697   2.1538253420   2.4696436783
	    H     0.0140134433  -0.0054152118   3.6964070998
	    H    -0.0571652569  -2.1520252044   2.4486078889
	    H    -0.0579798670  -2.1505770569  -0.0237105702
	    N    -0.6820691634  -0.9339975142  -2.3033956623
	    N     0.7032540867   0.9091127660  -2.3103188315
	    H     0.6682047282   0.9963056238  -3.3194966318
	    H     1.3792667942   1.4816567066  -1.8210284016
	    H    -1.4146318125  -1.4553196331  -1.8369519531
	    H    -0.5829563498  -1.0684169615  -3.3056041238
			--------------------------
			 OPTKING Finished Execution 
			--------------------------

    Structure for next step:
    Molecular point group: c1
    Full point group: C1

    Geometry (in Angstrom), charge = 1, multiplicity = 1:

    C           -0.013065969282     0.013014033559    -0.176328550178
    C            0.033646606489     1.229711706719     0.531304392713
    C            0.041117371164     1.216992633550     1.922257060674
    C            0.006252763752    -0.000046052152     2.610719310980
    C           -0.041252225780    -1.209814448535     1.910479659522
    C           -0.057601796861    -1.209663470127     0.519209203223
    C           -0.015904899446     0.012597515032    -1.641454110653
    H            0.016975577309     2.177605225406     0.000625540957
    H            0.062192969718     2.153825342040     2.469643678272
    H            0.014013443269    -0.005415211815     3.696407099784
    H           -0.057165256863    -2.152025204357     2.448607888930
    H           -0.057979866984    -2.150577056948    -0.023710570219
    N           -0.682069163392    -0.933997514185    -2.303395662253
    N            0.703254086708     0.909112766042    -2.310318831480
    H            0.668204728219     0.996305623820    -3.319496631757
    H            1.379266794213     1.481656706606    -1.821028401601
    H           -1.414631812468    -1.455319633111    -1.836951953085
    H           -0.582956349767    -1.068416961545    -3.305604123831

gradient() will perform analytic gradient computation.

*** tstart() called on computer06
*** at Tue Dec 12 14:34:41 2017

   => Loading Basis Set <=

    Name: 6-31G*
    Role: ORBITAL
    Keyword: BASIS
    atoms 1-7         entry C          line   102 file /shared/raimis/opt/miniconda/share/psi4/basis/6-31gs.gbs 
    atoms 8-12, 15-18 entry H          line    35 file /shared/raimis/opt/miniconda/share/psi4/basis/6-31gs.gbs 
    atoms 13-14       entry N          line   119 file /shared/raimis/opt/miniconda/share/psi4/basis/6-31gs.gbs 


         ---------------------------------------------------------
                                   SCF
            by Justin Turney, Rob Parrish, and Andy Simmonett
                              RKS Reference
                        1 Threads,   3000 MiB Core
         ---------------------------------------------------------

  ==> Geometry <==

    Molecular point group: c1
    Full point group: C1

    Geometry (in Angstrom), charge = 1, multiplicity = 1:

       Center              X                  Y                   Z               Mass       
    ------------   -----------------  -----------------  -----------------  -----------------
           C         -0.013065969282     0.013014033559    -0.176328550178    12.000000000000
           C          0.033646606489     1.229711706719     0.531304392713    12.000000000000
           C          0.041117371164     1.216992633550     1.922257060674    12.000000000000
           C          0.006252763752    -0.000046052152     2.610719310980    12.000000000000
           C         -0.041252225780    -1.209814448535     1.910479659522    12.000000000000
           C         -0.057601796861    -1.209663470127     0.519209203223    12.000000000000
           C         -0.015904899446     0.012597515032    -1.641454110653    12.000000000000
           H          0.016975577309     2.177605225406     0.000625540957     1.007825032070
           H          0.062192969718     2.153825342040     2.469643678272     1.007825032070
           H          0.014013443269    -0.005415211815     3.696407099784     1.007825032070
           H         -0.057165256863    -2.152025204357     2.448607888930     1.007825032070
           H         -0.057979866984    -2.150577056948    -0.023710570219     1.007825032070
           N         -0.682069163392    -0.933997514185    -2.303395662253    14.003074004780
           N          0.703254086708     0.909112766042    -2.310318831480    14.003074004780
           H          0.668204728219     0.996305623820    -3.319496631757     1.007825032070
           H          1.379266794213     1.481656706606    -1.821028401601     1.007825032070
           H         -1.414631812468    -1.455319633111    -1.836951953085     1.007825032070
           H         -0.582956349767    -1.068416961545    -3.305604123831     1.007825032070

  Running in c1 symmetry.

  Rotational constants: A =      0.12182  B =      0.03966  C =      0.03124 [cm^-1]
  Rotational constants: A =   3651.93366  B =   1189.04727  C =    936.57163 [MHz]
  Nuclear repulsion =  416.879782100484874

  Charge       = 1
  Multiplicity = 1
  Electrons    = 64
  Nalpha       = 32
  Nbeta        = 32

  ==> Algorithm <==

  SCF Algorithm Type is DF.
  DIIS enabled.
  MOM disabled.
  Fractional occupation disabled.
  Guess Type is READ.
  Energy threshold   = 1.00e-08
  Density threshold  = 1.00e-08
  Integral threshold = 0.00e+00

  ==> Primary Basis <==

  Basis Set: 6-31G*
    Blend: 6-31G*
    Number of shells: 72
    Number of basis function: 153
    Number of Cartesian functions: 153
    Spherical Harmonics?: false
    Max angular momentum: 2

  ==> DFT Potential <==

   => B3LYP Composite Functional <= 

    B3LYP Hybrid-GGA Exchange-Correlation Functional (VWN1-RPA)

    P.J. Stephens et. al., J. Phys. Chem., 98, 11623-11627, 1994

    Points   =           5000
    Deriv    =              1
    GGA      =           TRUE
    Meta     =          FALSE

    X_LRC        =          FALSE
    X_Hybrid     =           TRUE
    X_Alpha      =   2.000000E-01
    X_Omega      =   0.000000E+00
    C_LRC        =          FALSE
    C_Hybrid     =          FALSE
    C_Alpha      =   0.000000E+00
    C_Omega      =   0.000000E+00

   => Exchange Functionals <=

    0.8000    B3_X
    0.2000      HF 

   => Correlation Functionals <=

    0.1900 VWN3RPA_C
    0.8100   LYP_C

   => Molecular Quadrature <=

    Radial Scheme    =       TREUTLER
    Pruning Scheme   =           FLAT
    Nuclear Scheme   =       TREUTLER

    BS radius alpha  =              1
    Pruning alpha    =              1
    Radial Points    =             75
    Spherical Points =            302
    Total Points     =         396958
    Total Blocks     =            358
    Max Points       =           4843
    Max Functions    =            152

   => -D3ZERO: Empirical Dispersion <=

    Grimme's -D3 (zero-damping) Dispersion Correction
    Grimme S.; Antony J.; Ehrlich S.; Krieg H. (2010), J. Chem. Phys., 132: 154104

        S6 =   1.000000E+00
        S8 =   1.703000E+00
       SR6 =   1.261000E+00
    ALPHA6 =   1.400000E+01

   => Loading Basis Set <=

    Name: (6-31G* AUX)
    Role: JKFIT
    Keyword: DF_BASIS_SCF
    atoms 1-7         entry C          line   120 file /shared/raimis/opt/miniconda/share/psi4/basis/cc-pvdz-jkfit.gbs 
    atoms 8-12, 15-18 entry H          line    50 file /shared/raimis/opt/miniconda/share/psi4/basis/cc-pvdz-jkfit.gbs 
    atoms 13-14       entry N          line   170 file /shared/raimis/opt/miniconda/share/psi4/basis/cc-pvdz-jkfit.gbs 

  Reading orbitals from file 180, no projection.

  ==> Pre-Iterations <==

   -------------------------------------------------------
    Irrep   Nso     Nmo     Nalpha   Nbeta   Ndocc  Nsocc
   -------------------------------------------------------
     A        153     153       0       0       0       0
   -------------------------------------------------------
    Total     153     153      32      32      32       0
   -------------------------------------------------------

  ==> Integral Setup <==

  ==> DFJK: Density-Fitted J/K Matrices <==

    J tasked:                  Yes
    K tasked:                  Yes
    wK tasked:                  No
    OpenMP threads:              1
    Integrals threads:           1
    Memory (MB):              2250
    Algorithm:                Core
    Integral Cache:           NONE
    Schwarz Cutoff:          1E-12
    Fitting Condition:       1E-12

   => Auxiliary Basis Set <=

  Basis Set: (6-31G* AUX)
    Blend: CC-PVDZ-JKFIT
    Number of shells: 297
    Number of basis function: 954
    Number of Cartesian functions: 954
    Spherical Harmonics?: false
    Max angular momentum: 3

  Minimum eigenvalue in the overlap matrix is 4.8716225732E-04.
  Using Symmetric Orthogonalization.

  SCF Guess: Orbitals guess was supplied from a previous computation.

  ==> Iterations <==

                           Total Energy        Delta E     RMS |[F,P]|

   @DF-RKS iter   0:  -381.46389577462838   -3.81464e+02   5.23796e-04 
   @DF-RKS iter   1:  -381.47001527773563   -6.11950e-03   4.61385e-05 
   @DF-RKS iter   2:  -381.47002435082982   -9.07309e-06   5.02980e-05 DIIS
   @DF-RKS iter   3:  -381.47004962030752   -2.52695e-05   1.49606e-05 DIIS
   @DF-RKS iter   4:  -381.47005164510324   -2.02480e-06   6.74095e-06 DIIS
   @DF-RKS iter   5:  -381.47005211918929   -4.74086e-07   1.83882e-06 DIIS
   @DF-RKS iter   6:  -381.47005215617946   -3.69902e-08   5.61377e-07 DIIS
   @DF-RKS iter   7:  -381.47005215994147   -3.76201e-09   1.67751e-07 DIIS
   @DF-RKS iter   8:  -381.47005216026838   -3.26907e-10   5.14724e-08 DIIS
   @DF-RKS iter   9:  -381.47005216030118   -3.27987e-11   1.32767e-08 DIIS
   @DF-RKS iter  10:  -381.47005216030294   -1.76215e-12   6.46387e-09 DIIS

  ==> Post-Iterations <==

    Orbital Energies (a.u.)
    -----------------------

    Doubly Occupied:                                                      

       1A    -14.568411     2A    -14.567060     3A    -10.496591  
       4A    -10.372723     5A    -10.356237     6A    -10.355998  
       7A    -10.343549     8A    -10.340520     9A    -10.340407  
      10A     -1.182914    11A     -1.090751    12A     -1.014185  
      13A     -0.926513    14A     -0.902170    15A     -0.844533  
      16A     -0.784680    17A     -0.772840    18A     -0.740448  
      19A     -0.732396    20A     -0.690419    21A     -0.669065  
      22A     -0.625478    23A     -0.615042    24A     -0.585795  
      25A     -0.579131    26A     -0.571983    27A     -0.518232  
      28A     -0.505470    29A     -0.498039    30A     -0.473061  
      31A     -0.412047    32A     -0.405732  

    Virtual:                                                              

      33A     -0.219082    34A     -0.157220    35A     -0.127746  
      36A     -0.107726    37A     -0.067596    38A     -0.061110  
      39A     -0.038036    40A     -0.033073    41A      0.007909  
      42A      0.018163    43A      0.021429    44A      0.055077  
      45A      0.061885    46A      0.085059    47A      0.127392  
      48A      0.146099    49A      0.157560    50A      0.157744  
      51A      0.201404    52A      0.243296    53A      0.299073  
      54A      0.351119    55A      0.355065    56A      0.381306  
      57A      0.388202    58A      0.397204    59A      0.421644  
      60A      0.423764    61A      0.442296    62A      0.448341  
      63A      0.453479    64A      0.471333    65A      0.472928  
      66A      0.475243    67A      0.484817    68A      0.513759  
      69A      0.528344    70A      0.532587    71A      0.539971  
      72A      0.592010    73A      0.605915    74A      0.656143  
      75A      0.657205    76A      0.684142    77A      0.687887  
      78A      0.703921    79A      0.715912    80A      0.719288  
      81A      0.737368    82A      0.770544    83A      0.774712  
      84A      0.799197    85A      0.810275    86A      0.828255  
      87A      0.851207    88A      0.942263    89A      0.957117  
      90A      0.990748    91A      1.003232    92A      1.026844  
      93A      1.069472    94A      1.079469    95A      1.135028  
      96A      1.163781    97A      1.212186    98A      1.275392  
      99A      1.283445   100A      1.307570   101A      1.322993  
     102A      1.342997   103A      1.360762   104A      1.373480  
     105A      1.437734   106A      1.450036   107A      1.487649  
     108A      1.617528   109A      1.630787   110A      1.655611  
     111A      1.663676   112A      1.737550   113A      1.754585  
     114A      1.795140   115A      1.824435   116A      1.853252  
     117A      1.896328   118A      1.905696   119A      1.958982  
     120A      1.973982   121A      1.997054   122A      2.013645  
     123A      2.038532   124A      2.054356   125A      2.127316  
     126A      2.130433   127A      2.152460   128A      2.206805  
     129A      2.244751   130A      2.265337   131A      2.349456  
     132A      2.366810   133A      2.445046   134A      2.454397  
     135A      2.488803   136A      2.511180   137A      2.548242  
     138A      2.587907   139A      2.602651   140A      2.631184  
     141A      2.738315   142A      2.872047   143A      2.987077  
     144A      3.259065   145A      3.636413   146A      3.656058  
     147A      3.910628   148A      3.947033   149A      3.963636  
     150A      4.050559   151A      4.173527   152A      4.257072  
     153A      4.546513  

    Final Occupation by Irrep:
              A 
    DOCC [    32 ]

  Energy converged.

  @DF-RKS Final Energy:  -381.47005216030294

   => Energetics <=

    Nuclear Repulsion Energy =            416.8797821004848743
    One-Electron Energy =               -1328.9886550791254649
    Two-Electron Energy =                 575.0541632762242443
    DFT Exchange-Correlation Energy =     -44.4034027478865809
    Empirical Dispersion Energy =          -0.0119397100000000
    PCM Polarization Energy =               0.0000000000000000
    EFP Energy =                            0.0000000000000000
    Total Energy =                       -381.4700521603029415



Properties will be evaluated at   0.000000,   0.000000,   0.000000 Bohr

Properties computed using the SCF density matrix

  Nuclear Dipole Moment: (a.u.)
     X:    -0.1977      Y:     0.2271      Z:     0.1315

  Electronic Dipole Moment: (a.u.)
     X:     0.2022      Y:    -0.2177      Z:    -2.3777

  Dipole Moment: (a.u.)
     X:     0.0045      Y:     0.0095      Z:    -2.2462     Total:     2.2462

  Dipole Moment: (Debye)
     X:     0.0115      Y:     0.0241      Z:    -5.7092     Total:     5.7093


*** tstop() called on computer06 at Tue Dec 12 14:35:31 2017
Module time:
	user time   =      49.56 seconds =       0.83 minutes
	system time =       0.38 seconds =       0.01 minutes
	total time  =         50 seconds =       0.83 minutes
Total time:
	user time   =     127.79 seconds =       2.13 minutes
	system time =       1.34 seconds =       0.02 minutes
	total time  =        130 seconds =       2.17 minutes

*** tstart() called on computer06
*** at Tue Dec 12 14:35:31 2017


         ------------------------------------------------------------
                                   SCF GRAD                          
                          Rob Parrish, Justin Turney,                
                       Andy Simmonett, and Alex Sokolov              
         ------------------------------------------------------------

  ==> Geometry <==

    Molecular point group: c1
    Full point group: C1

    Geometry (in Angstrom), charge = 1, multiplicity = 1:

       Center              X                  Y                   Z               Mass       
    ------------   -----------------  -----------------  -----------------  -----------------
           C         -0.013065969282     0.013014033559    -0.176328550178    12.000000000000
           C          0.033646606489     1.229711706719     0.531304392713    12.000000000000
           C          0.041117371164     1.216992633550     1.922257060674    12.000000000000
           C          0.006252763752    -0.000046052152     2.610719310980    12.000000000000
           C         -0.041252225780    -1.209814448535     1.910479659522    12.000000000000
           C         -0.057601796861    -1.209663470127     0.519209203223    12.000000000000
           C         -0.015904899446     0.012597515032    -1.641454110653    12.000000000000
           H          0.016975577309     2.177605225406     0.000625540957     1.007825032070
           H          0.062192969718     2.153825342040     2.469643678272     1.007825032070
           H          0.014013443269    -0.005415211815     3.696407099784     1.007825032070
           H         -0.057165256863    -2.152025204357     2.448607888930     1.007825032070
           H         -0.057979866984    -2.150577056948    -0.023710570219     1.007825032070
           N         -0.682069163392    -0.933997514185    -2.303395662253    14.003074004780
           N          0.703254086708     0.909112766042    -2.310318831480    14.003074004780
           H          0.668204728219     0.996305623820    -3.319496631757     1.007825032070
           H          1.379266794213     1.481656706606    -1.821028401601     1.007825032070
           H         -1.414631812468    -1.455319633111    -1.836951953085     1.007825032070
           H         -0.582956349767    -1.068416961545    -3.305604123831     1.007825032070

  Nuclear repulsion =  416.879782100484874

  ==> Basis Set <==

  Basis Set: 6-31G*
    Blend: 6-31G*
    Number of shells: 72
    Number of basis function: 153
    Number of Cartesian functions: 153
    Spherical Harmonics?: false
    Max angular momentum: 2

  ==> DFJKGrad: Density-Fitted SCF Gradients <==

    Gradient:                    1
    J tasked:                  Yes
    K tasked:                  Yes
    wK tasked:                  No
    OpenMP threads:              1
    Integrals threads:           1
    Memory (MB):              2250
    Schwarz Cutoff:          0E+00
    Fitting Condition:       1E-12

   => Auxiliary Basis Set <=

  Basis Set: (6-31G* AUX)
    Blend: CC-PVDZ-JKFIT
    Number of shells: 297
    Number of basis function: 954
    Number of Cartesian functions: 954
    Spherical Harmonics?: false
    Max angular momentum: 3

  ==> DFT Potential <==

   => B3LYP Composite Functional <= 

    B3LYP Hybrid-GGA Exchange-Correlation Functional (VWN1-RPA)

    P.J. Stephens et. al., J. Phys. Chem., 98, 11623-11627, 1994

    Points   =           5000
    Deriv    =              1
    GGA      =           TRUE
    Meta     =          FALSE

    X_LRC        =          FALSE
    X_Hybrid     =           TRUE
    X_Alpha      =   2.000000E-01
    X_Omega      =   0.000000E+00
    C_LRC        =          FALSE
    C_Hybrid     =          FALSE
    C_Alpha      =   0.000000E+00
    C_Omega      =   0.000000E+00

   => Exchange Functionals <=

    0.8000    B3_X
    0.2000      HF 

   => Correlation Functionals <=

    0.1900 VWN3RPA_C
    0.8100   LYP_C

   => Molecular Quadrature <=

    Radial Scheme    =       TREUTLER
    Pruning Scheme   =           FLAT
    Nuclear Scheme   =       TREUTLER

    BS radius alpha  =              1
    Pruning alpha    =              1
    Radial Points    =             75
    Spherical Points =            302
    Total Points     =         396958
    Total Blocks     =            358
    Max Points       =           4843
    Max Functions    =            152


  -Total Gradient:
     Atom            X                  Y                   Z
    ------   -----------------  -----------------  -----------------
       1        0.002711774324    -0.002102759831     0.000374864777
       2       -0.000304126004     0.000160388875     0.000072626692
       3        0.000061464379     0.000050008697     0.000114342628
       4        0.000027641155     0.000091252640     0.000081773845
       5        0.000147474485     0.000021069175     0.000078405895
       6        0.000033312323     0.000144041682    -0.000623648532
       7       -0.004299441430     0.005693160259    -0.000082821583
       8       -0.000047665612     0.000064526682     0.000135014072
       9        0.000007947548     0.000073153409     0.000018643714
      10       -0.000068519379     0.000030337100     0.000032450816
      11       -0.000012856197    -0.000034896324    -0.000039321528
      12       -0.000373684828    -0.000054697814    -0.000444392417
      13        0.001721808398    -0.002886186897     0.002019378270
      14        0.000237657840    -0.000735654258     0.000220821579
      15       -0.000069117194    -0.000134910119    -0.000165306607
      16        0.000501607789    -0.000257541787     0.000047453612
      17       -0.001834354305     0.000634948732     0.000257965700
      18        0.001548869597    -0.000759705366    -0.002111270707


*** tstop() called on computer06 at Tue Dec 12 14:35:46 2017
Module time:
	user time   =      14.84 seconds =       0.25 minutes
	system time =       0.29 seconds =       0.00 minutes
	total time  =         15 seconds =       0.25 minutes
Total time:
	user time   =     142.63 seconds =       2.38 minutes
	system time =       1.63 seconds =       0.03 minutes
	total time  =        145 seconds =       2.42 minutes

			-----------------------------------------
			 OPTKING 2.0: for geometry optimizations 
			  - R.A. King,  Bethel University        
			-----------------------------------------
	At level 1: Red. Int., RFO, no backsteps, dynamic trust

	Previous internal coordinate definitions found.
	---Fragment 1 Geometry and Gradient---
	 C          -0.0246911036        0.0245929593       -0.3332126692
	 C           0.0635828716        2.3238183481        1.0040197954
	 C           0.0777005708        2.2997827831        3.6325394017
	 C           0.0118160111       -0.0000870260        4.9335445076
	 C          -0.0779554091       -2.2862179793        3.6102833389
	 C          -0.1088516208       -2.2859326715        0.9811631998
	 C          -0.0300559041        0.0238058534       -3.1018987288
	 H           0.0320791921        4.1150775016        0.0011821011
	 H           0.1175276802        4.0701400345        4.6669501977
	 H           0.0264815700       -0.0102332673        6.9851970942
	 H          -0.1080266798       -4.0667382673        4.6271983169
	 H          -0.1095660698       -4.0640016653       -0.0448064842
	 N          -1.2889239225       -1.7649995106       -4.3527869773
	 N           1.3289576257        1.7179741517       -4.3658698711
	 H           1.2627239370        1.8827447737       -6.2729395331
	 H           2.6064365052        2.7999253984       -3.4412449592
	 H          -2.6732667044       -2.7501555424       -3.4713361106
	 H          -1.1016278485       -2.0190154531       -6.2466864978
	             0.0027117743       -0.0021027598        0.0003748648
	            -0.0003041260        0.0001603889        0.0000726267
	             0.0000614644        0.0000500087        0.0001143426
	             0.0000276412        0.0000912526        0.0000817738
	             0.0001474745        0.0000210692        0.0000784059
	             0.0000333123        0.0001440417       -0.0006236485
	            -0.0042994414        0.0056931603       -0.0000828216
	            -0.0000476656        0.0000645267        0.0001350141
	             0.0000079475        0.0000731534        0.0000186437
	            -0.0000685194        0.0000303371        0.0000324508
	            -0.0000128562       -0.0000348963       -0.0000393215
	            -0.0003736848       -0.0000546978       -0.0004443924
	             0.0017218084       -0.0028861869        0.0020193783
	             0.0002376578       -0.0007356543        0.0002208216
	            -0.0000691172       -0.0001349101       -0.0001653066
	             0.0005016078       -0.0002575418        0.0000474536
	            -0.0018343543        0.0006349487        0.0002579657
	             0.0015488696       -0.0007597054       -0.0021112707

	---Fragment 1 Intrafragment Coordinates---
	 - Coordinate -           - BOHR/RAD -       - ANG/DEG -
	 R(1,2)           =         2.661282	       1.408290
	 R(1,6)           =         2.659548	       1.407372
	 R(1,7)           =         2.768691	       1.465128
	 R(2,3)           =         2.628667	       1.391031
	 R(2,8)           =         2.053116	       1.086462
	 R(3,4)           =         2.643172	       1.398706
	 R(3,9)           =         2.050794	       1.085234
	 R(4,5)           =         2.643005	       1.398618
	 R(4,10)          =         2.051730	       1.085729
	 R(5,6)           =         2.629302	       1.391367
	 R(5,11)          =         2.050676	       1.085171
	 R(6,12)          =         2.052838	       1.086315
	 R(7,13)          =         2.519781	       1.333411
	 R(7,14)          =         2.512916	       1.329778
	 R(13,17)         =         1.914130	       1.012914
	 R(13,18)         =         1.920015	       1.016028
	 R(14,15)         =         1.915320	       1.013544
	 R(14,16)         =         1.912460	       1.012030
	 B(1,2,3)         =         2.088317	     119.651755
	 B(1,2,8)         =         2.103451	     120.518883
	 B(1,6,5)         =         2.087364	     119.597145
	 B(1,6,12)        =         2.100755	     120.364377
	 B(1,7,13)        =         2.091622	     119.841102
	 B(1,7,14)        =         2.096416	     120.115798
	 B(2,1,6)         =         2.098204	     120.218214
	 B(2,1,7)         =         2.097615	     120.184477
	 B(2,3,4)         =         2.094404	     120.000537
	 B(2,3,9)         =         2.090448	     119.773852
	 B(3,2,8)         =         2.090334	     119.767329
	 B(3,4,5)         =         2.102545	     120.466963
	 B(3,4,10)        =         2.090151	     119.756816
	 B(4,3,9)         =         2.098264	     120.221662
	 B(4,5,6)         =         2.095476	     120.061955
	 B(4,5,11)        =         2.098146	     120.214882
	 B(5,4,10)        =         2.090487	     119.776094
	 B(5,6,12)        =         2.093999	     119.977292
	 B(6,1,7)         =         2.087367	     119.597307
	 B(6,5,11)        =         2.089529	     119.721209
	 B(7,13,17)       =         2.092186	     119.873432
	 B(7,13,18)       =         2.135138	     122.334396
	 B(7,14,15)       =         2.141376	     122.691799
	 B(7,14,16)       =         2.093793	     119.965508
	 B(13,7,14)       =         2.093351	     119.940156
	 B(15,14,16)      =         2.044092	     117.117819
	 B(17,13,18)      =         2.045070	     117.173860
	 D(1,2,3,4)       =         0.003229	       0.185003
	 D(1,2,3,9)       =        -3.125777	    -179.093843
	 D(1,6,5,4)       =         0.010633	       0.609212
	 D(1,6,5,11)      =        -3.122106	    -178.883495
	*D(1,7,13,17)     =         0.349065	      19.999953
	 D(1,7,13,18)     =        -2.954363	    -169.272534
	 D(1,7,14,15)     =        -3.046972	    -174.578628
	 D(1,7,14,16)     =         0.192502	      11.029551
	 D(2,1,6,5)       =        -0.011544	      -0.661401
	 D(2,1,6,12)      =        -3.103481	    -177.816337
	 D(2,1,7,13)      =        -2.566424	    -147.045292
	 D(2,1,7,14)      =         0.639584	      36.645440
	 D(2,3,4,5)       =        -0.004153	      -0.237939
	 D(2,3,4,10)      =         3.139701	     179.891595
	 D(3,2,1,6)       =         0.004602	       0.263668
	 D(3,2,1,7)       =        -3.137241	    -179.750663
	 D(3,4,5,6)       =        -0.002858	      -0.163765
	 D(3,4,5,11)      =         3.129836	     179.326415
	 D(4,3,2,8)       =         3.095098	     177.336028
	 D(4,5,6,12)      =         3.102764	     177.775309
	 D(5,4,3,9)       =         3.124796	     179.037646
	 D(5,6,1,7)       =         3.130298	     179.352845
	 D(6,1,2,8)       =        -3.086886	    -176.865556
	 D(6,1,7,13)      =         0.574920	      32.940466
	 D(6,1,7,14)      =        -2.502258	    -143.368802
	 D(6,5,4,10)      =         3.136473	     179.706677
	 D(7,1,2,8)       =         0.054456	       3.120114
	 D(7,1,6,12)      =         0.038361	       2.197909
	 D(8,2,3,9)       =        -0.033909	      -1.942818
	 D(9,3,4,10)      =        -0.014535	      -0.832821
	 D(10,4,5,11)     =        -0.014017	      -0.803143
	 D(11,5,6,12)     =        -0.029974	      -1.717398
	 D(13,7,14,15)    =         0.159100	       9.115779
	 D(13,7,14,16)    =        -2.884611	    -165.276043
	 D(14,7,13,17)    =        -2.856829	    -163.684236
	 D(14,7,13,18)    =         0.122928	       7.043277

	Current energy   :      -381.4700521603

	Energy change for the previous step:
		Projected    :        -0.0011725345
		Actual       :        -0.0004437882

	Performing BFGS update.
	Previous computed or guess Hessian on step 1.
	Steps to be used in Hessian update: 1
	Taking RFO optimization step.
	Going to follow RFO solution 1.
	Using RFO vector 1.
	Norm of target step-size    0.13777
	Projected energy change by RFO approximation:        -0.0002384545

	Back-transformation to cartesian coordinates...
	Could not converge backtransformation.
	Using first guess instead.

	Back-transformation to cartesian coordinates to adjust frozen coordinates...
	Successfully converged to displaced geometry.

	--- Internal Coordinate Step in ANG or DEG, aJ/ANG or AJ/DEG ---
	 ---------------------------------------------------------------------------
	   Coordinate                Previous        Force       Change         New 
	   ----------                --------       ------       ------       ------
	    1 R(1,2)          =      1.408290    -0.002914    -0.000076     1.408214
	    2 R(1,6)          =      1.407372     0.005813     0.000737     1.408109
	    3 R(1,7)          =      1.465128     0.001545    -0.000280     1.464848
	    4 R(2,3)          =      1.391031    -0.000950    -0.000178     1.390853
	    5 R(2,8)          =      1.086462     0.000076     0.000066     1.086529
	    6 R(3,4)          =      1.398706    -0.000758     0.000050     1.398756
	    7 R(3,9)          =      1.085234    -0.000603    -0.000048     1.085186
	    8 R(4,5)          =      1.398618    -0.002245    -0.000143     1.398475
	    9 R(4,10)         =      1.085729    -0.000268     0.000007     1.085736
	   10 R(5,6)          =      1.391367    -0.001455    -0.000094     1.391272
	   11 R(5,11)         =      1.085171    -0.000093     0.000018     1.085189
	   12 R(6,12)         =      1.086315    -0.002218    -0.000316     1.085999
	   13 R(7,13)         =      1.333411    -0.010991    -0.000008     1.333402
	   14 R(7,14)         =      1.329778     0.003695     0.000407     1.330185
	   15 R(13,17)        =      1.012914    -0.009207    -0.000635     1.012279
	   16 R(13,18)        =      1.016028    -0.019228     0.001256     1.017285
	   17 R(14,15)        =      1.013544    -0.001271     0.000041     1.013585
	   18 R(14,16)        =      1.012030    -0.001762    -0.000009     1.012021
	   19 B(1,2,3)        =    119.651755     0.000012     0.032534   119.684288
	   20 B(1,2,8)        =    120.518883    -0.000018    -0.065871   120.453011
	   21 B(1,6,5)        =    119.597145     0.000008     0.009883   119.607028
	   22 B(1,6,12)       =    120.364377     0.000023     0.039900   120.404277
	   23 B(1,7,13)       =    119.841102     0.000097     0.262810   120.103913
	   24 B(1,7,14)       =    120.115798    -0.000075    -0.107263   120.008535
	   25 B(2,1,6)        =    120.218214    -0.000026    -0.043412   120.174802
	   26 B(2,1,7)        =    120.184477    -0.000090    -0.150970   120.033507
	   27 B(2,3,4)        =    120.000537     0.000007    -0.003896   119.996641
	   28 B(2,3,9)        =    119.773852    -0.000002     0.014498   119.788350
	   29 B(3,2,8)        =    119.767329     0.000005     0.032599   119.799928
	   30 B(3,4,5)        =    120.466963    -0.000000     0.005395   120.472359
	   31 B(3,4,10)       =    119.756816     0.000002     0.003210   119.760026
	   32 B(4,3,9)        =    120.221662    -0.000005    -0.010120   120.211543
	   33 B(4,5,6)        =    120.061955    -0.000001     0.001024   120.062979
	   34 B(4,5,11)       =    120.214882    -0.000003    -0.015632   120.199250
	   35 B(5,4,10)       =    119.776094    -0.000002    -0.008493   119.767601
	   36 B(5,6,12)       =    119.977292    -0.000032    -0.060257   119.917035
	   37 B(6,1,7)        =    119.597307     0.000116     0.192946   119.790253
	   38 B(6,5,11)       =    119.721209     0.000005     0.013060   119.734270
	   39 B(7,13,17)      =    119.873432    -0.000006    -0.217930   119.655503
	   40 B(7,13,18)      =    122.334396     0.000033    -0.245004   122.089392
	   41 B(7,14,15)      =    122.691799     0.000014     0.022716   122.714514
	   42 B(7,14,16)      =    119.965508    -0.000003     0.045328   120.010837
	   43 B(13,7,14)      =    119.940156    -0.000016    -0.068235   119.871921
	   44 B(15,14,16)     =    117.117819    -0.000008    -0.011190   117.106629
	   45 B(17,13,18)     =    117.173860    -0.000043    -0.537849   116.636011
	   46 D(1,2,3,4)      =      0.185003     0.000001     0.081858     0.266862
	   47 D(1,2,3,9)      =   -179.093843     0.000000     0.036519  -179.057324
	   48 D(1,6,5,4)      =      0.609212    -0.000001    -0.129455     0.479757
	   49 D(1,6,5,11)     =   -178.883495     0.000000     0.042563  -178.840932
	   50 *D(1,7,13,17)   =     19.999953     0.000000    -0.000000    19.999953
	   51 D(1,7,13,18)    =   -169.272534    -0.000029    -5.724547  -174.997081
	   52 D(1,7,14,15)    =   -174.578628     0.000012     1.565517  -173.013111
	   53 D(1,7,14,16)    =     11.029551     0.000004     0.807102    11.836653
	   54 D(2,1,6,5)      =     -0.661401     0.000002     0.272141    -0.389260
	   55 D(2,1,6,12)     =   -177.816337     0.000005     0.507738  -177.308599
	   56 D(2,1,7,13)     =   -147.045292     0.000011     0.859226  -146.186066
	   57 D(2,1,7,14)     =     36.645440    -0.000010    -1.391592    35.253848
	   58 D(2,3,4,5)      =     -0.237939     0.000000     0.060412    -0.177526
	   59 D(2,3,4,10)     =    179.891595    -0.000001    -0.113112   179.778482
	   60 D(3,2,1,6)      =      0.263668    -0.000002    -0.248444     0.015224
	   61 D(3,2,1,7)      =   -179.750663     0.000000     0.202952  -179.547711
	   62 D(3,4,5,6)      =     -0.163765    -0.000000    -0.036351    -0.200116
	   63 D(3,4,5,11)     =    179.326415    -0.000002    -0.209028   179.117387
	   64 D(4,3,2,8)      =    177.336028     0.000000     0.063042   177.399070
	   65 D(4,5,6,12)     =    177.775309    -0.000003    -0.361012   177.414297
	   66 D(5,4,3,9)      =    179.037646     0.000001     0.106126   179.143772
	   67 D(5,6,1,7)      =    179.352845    -0.000000    -0.178104   179.174741
	   68 D(6,1,2,8)      =   -176.865556    -0.000002    -0.232381  -177.097936
	   69 D(6,1,7,13)     =     32.940466     0.000014     1.308844    34.249310
	   70 D(6,1,7,14)     =   -143.368802    -0.000008    -0.941974  -144.310776
	   71 D(6,5,4,10)     =    179.706677     0.000001     0.137202   179.843879
	   72 D(7,1,2,8)      =      3.120114     0.000001     0.219016     3.339129
	   73 D(7,1,6,12)     =      2.197909     0.000002     0.057493     2.255401
	   74 D(8,2,3,9)      =     -1.942818    -0.000000     0.017702    -1.925116
	   75 D(9,3,4,10)     =     -0.832821    -0.000000    -0.067399    -0.900220
	   76 D(10,4,5,11)    =     -0.803143    -0.000000    -0.035476    -0.838619
	   77 D(11,5,6,12)    =     -1.717398    -0.000002    -0.188994    -1.906392
	   78 D(13,7,14,15)   =      9.115779    -0.000011    -0.692337     8.423442
	   79 D(13,7,14,16)   =   -165.276043    -0.000019    -1.450751  -166.726794
	   80 D(14,7,13,17)   =   -163.684236     0.000021     2.246251  -161.437984
	   81 D(14,7,13,18)   =      7.043277    -0.000007    -3.478295     3.564982
	 ---------------------------------------------------------------------------
	Successfully symmetrized geometry.

  ==> Convergence Check <==

  Measures of convergence in internal coordinates in au.
  Criteria marked as inactive (o), active & met (*), and active & unmet ( ).
  ---------------------------------------------------------------------------------------------
   Step     Total Energy     Delta E     MAX Force     RMS Force      MAX Disp      RMS Disp   
  ---------------------------------------------------------------------------------------------
    Convergence Criteria    1.00e-06 *    3.00e-04 *             o    1.20e-03 *             o
  ---------------------------------------------------------------------------------------------
      2    -381.47005216   -4.44e-04      2.33e-03      5.59e-04 o    9.99e-02      1.53e-02 o  ~
  ---------------------------------------------------------------------------------------------

	Writing optimization data to binary file.
	Structure for next step:
	Cartesian Geometry (in Angstrom)
	    C    -0.0063824102  -0.0006535192  -0.1756315801
	    C     0.0369725127   1.2202179184   0.5248393767
	    C     0.0374577357   1.2166778035   1.9156881034
	    C     0.0006524994   0.0040693102   2.6119237385
	    C    -0.0405349904  -1.2102836827   1.9195495985
	    C    -0.0493702181  -1.2194048884   0.5283352798
	    C     0.0027957762  -0.0062201739  -1.6404403847
	    H     0.0228245718   2.1643385735  -0.0127296512
	    H     0.0553443363   2.1569327014   2.4571944956
	    H     0.0048106414   0.0056725273   3.6976505013
	    H    -0.0545509993  -2.1488803619   2.4640447429
	    H    -0.0389078523  -2.1641216646  -0.0071970131
	    N    -0.6720108251  -0.9413055465  -2.3099272331
	    N     0.7081604737   0.9051111173  -2.3047660701
	    H     0.6632285225   1.0049095278  -3.3124247131
	    H     1.3756572791   1.4856249095  -1.8131987044
	    H    -1.4172349683  -1.4479168089  -1.8487383790
	    H    -0.6266150851  -1.0192217427  -3.3232071078
			--------------------------
			 OPTKING Finished Execution 
			--------------------------

    Structure for next step:
    Molecular point group: c1
    Full point group: C1

    Geometry (in Angstrom), charge = 1, multiplicity = 1:

    C           -0.006382410224    -0.000653519225    -0.175631580104
    C            0.036972512741     1.220217918450     0.524839376700
    C            0.037457735665     1.216677803528     1.915688103405
    C            0.000652499411     0.004069310182     2.611923738477
    C           -0.040534990390    -1.210283682717     1.919549598476
    C           -0.049370218114    -1.219404888421     0.528335279801
    C            0.002795776236    -0.006220173865    -1.640440384661
    H            0.022824571835     2.164338573532    -0.012729651182
    H            0.055344336250     2.156932701436     2.457194495622
    H            0.004810641383     0.005672527283     3.697650501344
    H           -0.054550999339    -2.148880361934     2.464044742852
    H           -0.038907852276    -2.164121664627    -0.007197013078
    N           -0.672010825079    -0.941305546531    -2.309927233144
    N            0.708160473682     0.905111117250    -2.304766070142
    H            0.663228522466     1.004909527799    -3.312424713127
    H            1.375657279116     1.485624909454    -1.813198704366
    H           -1.417234968305    -1.447916808861    -1.848738379050
    H           -0.626615085059    -1.019221742734    -3.323207107824

gradient() will perform analytic gradient computation.

*** tstart() called on computer06
*** at Tue Dec 12 14:35:46 2017

   => Loading Basis Set <=

    Name: 6-31G*
    Role: ORBITAL
    Keyword: BASIS
    atoms 1-7         entry C          line   102 file /shared/raimis/opt/miniconda/share/psi4/basis/6-31gs.gbs 
    atoms 8-12, 15-18 entry H          line    35 file /shared/raimis/opt/miniconda/share/psi4/basis/6-31gs.gbs 
    atoms 13-14       entry N          line   119 file /shared/raimis/opt/miniconda/share/psi4/basis/6-31gs.gbs 


         ---------------------------------------------------------
                                   SCF
            by Justin Turney, Rob Parrish, and Andy Simmonett
                              RKS Reference
                        1 Threads,   3000 MiB Core
         ---------------------------------------------------------

  ==> Geometry <==

    Molecular point group: c1
    Full point group: C1

    Geometry (in Angstrom), charge = 1, multiplicity = 1:

       Center              X                  Y                   Z               Mass       
    ------------   -----------------  -----------------  -----------------  -----------------
           C         -0.006382410224    -0.000653519225    -0.175631580104    12.000000000000
           C          0.036972512741     1.220217918450     0.524839376700    12.000000000000
           C          0.037457735665     1.216677803528     1.915688103405    12.000000000000
           C          0.000652499411     0.004069310182     2.611923738477    12.000000000000
           C         -0.040534990390    -1.210283682717     1.919549598476    12.000000000000
           C         -0.049370218114    -1.219404888421     0.528335279801    12.000000000000
[...]
	             0.0000069181        0.0000096073        0.0000058064
	            -0.0000013428       -0.0000105563       -0.0000182057
	             0.0000080213        0.0000112128        0.0000254740
	            -0.0023864405        0.0018809833       -0.0002036423
	             0.0000022050       -0.0000002701       -0.0000008176
	            -0.0000006507       -0.0000000104        0.0000018899
	            -0.0000020453        0.0000034102       -0.0000006693
	            -0.0000051663        0.0000008032       -0.0000012816
	             0.0000040511       -0.0000054616       -0.0000027364
	             0.0025906528       -0.0024684184        0.0008640187
	             0.0000073481       -0.0000018649       -0.0000155857
	            -0.0000033461       -0.0000009909        0.0000036570
	            -0.0000041529        0.0000006335        0.0000005502
	            -0.0014043966        0.0014606651       -0.0006312231
	            -0.0000061812       -0.0000060588       -0.0000090726

	---Fragment 1 Intrafragment Coordinates---
	 - Coordinate -           - BOHR/RAD -       - ANG/DEG -
	 R(1,2)           =         2.660676	       1.407969
	 R(1,6)           =         2.660420	       1.407834
	 R(1,7)           =         2.769326	       1.465464
	 R(2,3)           =         2.628617	       1.391004
	 R(2,8)           =         2.053082	       1.086444
	 R(3,4)           =         2.642768	       1.398492
	 R(3,9)           =         2.050621	       1.085142
	 R(4,5)           =         2.642576	       1.398391
	 R(4,10)          =         2.051631	       1.085676
	 R(5,6)           =         2.628941	       1.391176
	 R(5,11)          =         2.050641	       1.085152
	 R(6,12)          =         2.052444	       1.086107
	 R(7,13)          =         2.517637	       1.332276
	 R(7,14)          =         2.513188	       1.329922
	 R(13,17)         =         1.912393	       1.011995
	 R(13,18)         =         1.915428	       1.013601
	 R(14,15)         =         1.914959	       1.013353
	 R(14,16)         =         1.911971	       1.011772
	 B(1,2,3)         =         2.088691	     119.673177
	 B(1,2,8)         =         2.103235	     120.506481
	 B(1,6,5)         =         2.087922	     119.629128
	 B(1,6,12)        =         2.101771	     120.422606
	 B(1,7,13)        =         2.092366	     119.883756
	 B(1,7,14)        =         2.094520	     120.007136
	 B(2,1,6)         =         2.097230	     120.162426
	 B(2,1,7)         =         2.094208	     119.989278
	 B(2,3,4)         =         2.094809	     120.023698
	 B(2,3,9)         =         2.090230	     119.761351
	 B(3,2,8)         =         2.090041	     119.750541
	 B(3,4,5)         =         2.102153	     120.444520
	 B(3,4,10)        =         2.090425	     119.772519
	 B(4,3,9)         =         2.098089	     120.211636
	 B(4,5,6)         =         2.095532	     120.065138
	 B(4,5,11)        =         2.097929	     120.202505
	 B(5,4,10)        =         2.090607	     119.782960
	 B(5,6,12)        =         2.092275	     119.878510
	 B(6,1,7)         =         2.091747	     119.848279
	 B(6,5,11)        =         2.089670	     119.729286
	 B(7,13,17)       =         2.086576	     119.552025
	 B(7,13,18)       =         2.135477	     122.353791
	 B(7,14,15)       =         2.143875	     122.834981
	 B(7,14,16)       =         2.093342	     119.939673
	 B(13,7,14)       =         2.095796	     120.080255
	 B(15,14,16)      =         2.042645	     117.034915
	 B(17,13,18)      =         2.034267	     116.554924
	 D(1,2,3,4)       =         0.005959	       0.341406
	 D(1,2,3,9)       =        -3.124098	    -178.997646
	 D(1,6,5,4)       =         0.007851	       0.449804
	 D(1,6,5,11)      =        -3.122639	    -178.914041
	*D(1,7,13,17)     =         0.349065	      19.999953
	 D(1,7,13,18)     =        -3.048087	    -174.642516
	 D(1,7,14,15)     =        -3.039066	    -174.125627
	 D(1,7,14,16)     =         0.192697	      11.040714
	 D(2,1,6,5)       =        -0.005690	      -0.326040
	 D(2,1,6,12)      =        -3.094213	    -177.285367
	 D(2,1,7,13)      =        -2.547153	    -145.941133
	 D(2,1,7,14)      =         0.628508	      36.010852
	 D(2,3,4,5)       =        -0.003828	      -0.219322
	 D(2,3,4,10)      =         3.138019	     179.795255
	 D(3,2,1,6)       =        -0.001227	      -0.070307
	 D(3,2,1,7)       =         3.141184	     179.976573
	 D(3,4,5,6)       =        -0.003155	      -0.180763
	 D(3,4,5,11)      =         3.127282	     179.180046
	 D(4,3,2,8)       =         3.094802	     177.319080
	 D(4,5,6,12)      =         3.096666	     177.425873
	 D(5,4,3,9)       =         3.126177	     179.116726
	 D(5,6,1,7)       =         3.135085	     179.627147
	 D(6,1,2,8)       =        -3.089664	    -177.024727
	 D(6,1,7,13)      =         0.595255	      34.105598
	 D(6,1,7,14)      =        -2.512269	    -143.942417
	 D(6,5,4,10)      =         3.138183	     179.804659
	 D(7,1,2,8)       =         0.052747	       3.022153
	 D(7,1,6,12)      =         0.046562	       2.667820
	 D(8,2,3,9)       =        -0.035255	      -2.019972
	 D(9,3,4,10)      =        -0.015162	      -0.868697
	 D(10,4,5,11)     =        -0.014565	      -0.834533
	 D(11,5,6,12)     =        -0.033824	      -1.937972
	 D(13,7,14,15)    =         0.136663	       7.830225
	 D(13,7,14,16)    =        -2.914760	    -167.003433
	 D(14,7,13,17)    =        -2.826621	    -161.953474
	 D(14,7,13,18)    =         0.059412	       3.404057

	Current energy   :      -381.4702299391

	Energy change for the previous step:
		Projected    :        -0.0000012765
		Actual       :        -0.0000001532
	Energy ratio indicates iffy step: Trust radius decreased to 2.500e-01.


	Performing BFGS update.
	Previous computed or guess Hessian on step 1.
	Steps to be used in Hessian update: 5 4
	Taking RFO optimization step.
	Going to follow RFO solution 1.
	Rejecting RFO root 1 because normalization gives large value.
	Rejecting RFO root 2 because normalization gives large value.
	Using RFO vector 3.
	Norm of target step-size    0.00074
	Projected energy change by RFO approximation:        -0.0000000465

	Back-transformation to cartesian coordinates...
	Successfully converged to displaced geometry.

	Back-transformation to cartesian coordinates to adjust frozen coordinates...
	Successfully converged to displaced geometry.

	--- Internal Coordinate Step in ANG or DEG, aJ/ANG or AJ/DEG ---
	 ---------------------------------------------------------------------------
	   Coordinate                Previous        Force       Change         New 
	   ----------                --------       ------       ------       ------
	    1 R(1,2)          =      1.407969    -0.000158    -0.000026     1.407943
	    2 R(1,6)          =      1.407834    -0.000026    -0.000002     1.407831
	    3 R(1,7)          =      1.465464     0.000149     0.000029     1.465493
	    4 R(2,3)          =      1.391004     0.000029     0.000003     1.391007
	    5 R(2,8)          =      1.086444     0.000002     0.000001     1.086445
	    6 R(3,4)          =      1.398492     0.000042     0.000008     1.398500
	    7 R(3,9)          =      1.085142    -0.000011    -0.000002     1.085140
	    8 R(4,5)          =      1.398391    -0.000100    -0.000016     1.398375
	    9 R(4,10)         =      1.085676    -0.000001    -0.000000     1.085676
	   10 R(5,6)          =      1.391176     0.000073     0.000010     1.391186
	   11 R(5,11)         =      1.085152     0.000008     0.000002     1.085154
	   12 R(6,12)         =      1.086107    -0.000047    -0.000010     1.086097
	   13 R(7,13)         =      1.332276     0.000028     0.000007     1.332283
	   14 R(7,14)         =      1.329922    -0.000043    -0.000006     1.329916
	   15 R(13,17)        =      1.011995    -0.000051    -0.000008     1.011987
	   16 R(13,18)        =      1.013601    -0.000073    -0.000002     1.013599
	   17 R(14,15)        =      1.013353     0.000039     0.000006     1.013359
	   18 R(14,16)        =      1.011772     0.000005     0.000002     1.011773
	   19 B(1,2,3)        =    119.673177    -0.000001    -0.002555   119.670622
	   20 B(1,2,8)        =    120.506481     0.000000     0.000958   120.507439
	   21 B(1,6,5)        =    119.629128    -0.000000    -0.001497   119.627631
	   22 B(1,6,12)       =    120.422606     0.000000     0.000685   120.423291
	   23 B(1,7,13)       =    119.883756    -0.000001    -0.003262   119.880494
	   24 B(1,7,14)       =    120.007136     0.000000    -0.000329   120.006807
	   25 B(2,1,6)        =    120.162426     0.000001     0.003411   120.165838
	   26 B(2,1,7)        =    119.989278     0.000000     0.001178   119.990456
	   27 B(2,3,4)        =    120.023698     0.000000     0.000632   120.024329
	   28 B(2,3,9)        =    119.761351    -0.000000    -0.001346   119.760005
	   29 B(3,2,8)        =    119.750541     0.000000     0.001681   119.752222
	   30 B(3,4,5)        =    120.444520     0.000000     0.000774   120.445293
	   31 B(3,4,10)       =    119.772519     0.000000     0.000958   119.773477
	   32 B(4,3,9)        =    120.211636     0.000000     0.000731   120.212367
	   33 B(4,5,6)        =    120.065138    -0.000000    -0.000807   120.064331
	   34 B(4,5,11)       =    120.202505     0.000000     0.000218   120.202723
	   35 B(5,4,10)       =    119.782960    -0.000000    -0.001731   119.781229
	   36 B(5,6,12)       =    119.878510     0.000000     0.000711   119.879221
	   37 B(6,1,7)        =    119.848279    -0.000002    -0.004587   119.843692
	   38 B(6,5,11)       =    119.729286     0.000000     0.000539   119.729825
	   39 B(7,13,17)      =    119.552025     0.000000     0.002089   119.554113
	   40 B(7,13,18)      =    122.353791    -0.000001    -0.003882   122.349909
	   41 B(7,14,15)      =    122.834981     0.000000    -0.000505   122.834476
	   42 B(7,14,16)      =    119.939673     0.000000     0.000615   119.940287
	   43 B(13,7,14)      =    120.080255     0.000001     0.003590   120.083845
	   44 B(15,14,16)     =    117.034915    -0.000000    -0.000835   117.034079
	   45 B(17,13,18)     =    116.554924     0.000000     0.001811   116.556735
	   46 D(1,2,3,4)      =      0.341406    -0.000000    -0.002880     0.338526
	   47 D(1,2,3,9)      =   -178.997646    -0.000000    -0.004569  -179.002215
	   48 D(1,6,5,4)      =      0.449804     0.000000     0.006064     0.455868
	   49 D(1,6,5,11)     =   -178.914041     0.000000     0.011214  -178.902827
	   50 *D(1,7,13,17)   =     19.999953    -0.000000     0.000000    19.999953
	   51 D(1,7,13,18)    =   -174.642516    -0.000000     0.000369  -174.642148
	   52 D(1,7,14,15)    =   -174.125627    -0.000000    -0.001552  -174.127180
	   53 D(1,7,14,16)    =     11.040714     0.000000     0.008303    11.049018
	   54 D(2,1,6,5)      =     -0.326040    -0.000000    -0.013878    -0.339917
	   55 D(2,1,6,12)     =   -177.285367    -0.000000    -0.011700  -177.297067
	   56 D(2,1,7,13)     =   -145.941133     0.000000     0.007810  -145.933323
	   57 D(2,1,7,14)     =     36.010852     0.000000     0.007789    36.018641
	   58 D(2,3,4,5)      =     -0.219322    -0.000000    -0.004935    -0.224257
	   59 D(2,3,4,10)     =    179.795255    -0.000000    -0.006930   179.788325
	   60 D(3,2,1,6)      =     -0.070307     0.000000     0.012286    -0.058021
	   61 D(3,2,1,7)      =    179.976573     0.000000     0.009170   179.985744
	   62 D(3,4,5,6)      =     -0.180763     0.000000     0.003315    -0.177448
	   63 D(3,4,5,11)     =    179.180046    -0.000000    -0.001857   179.178189
	   64 D(4,3,2,8)      =    177.319080     0.000000    -0.001046   177.318033
	   65 D(4,5,6,12)     =    177.425873     0.000000     0.003898   177.429771
	   66 D(5,4,3,9)      =    179.116726     0.000000    -0.003252   179.113474
	   67 D(5,6,1,7)      =    179.627147    -0.000000    -0.010764   179.616383
	   68 D(6,1,2,8)      =   -177.024727     0.000000     0.010417  -177.014310
	   69 D(6,1,7,13)     =     34.105598     0.000000     0.004701    34.110299
	   70 D(6,1,7,14)     =   -143.942417    -0.000000     0.004680  -143.937737
	   71 D(6,5,4,10)     =    179.804659     0.000000     0.005310   179.809969
	   72 D(7,1,2,8)      =      3.022153     0.000000     0.007301     3.029454
	   73 D(7,1,6,12)     =      2.667820    -0.000000    -0.008587     2.659233
	   74 D(8,2,3,9)      =     -2.019972    -0.000000    -0.002736    -2.022708
	   75 D(9,3,4,10)     =     -0.868697    -0.000000    -0.005246    -0.873944
	   76 D(10,4,5,11)    =     -0.834533    -0.000000     0.000138    -0.834395
	   77 D(11,5,6,12)    =     -1.937972     0.000000     0.009048    -1.928924
	   78 D(13,7,14,15)   =      7.830225    -0.000000    -0.001438     7.828787
	   79 D(13,7,14,16)   =   -167.003433     0.000000     0.008417  -166.995015
	   80 D(14,7,13,17)   =   -161.953474     0.000000    -0.000056  -161.953530
	   81 D(14,7,13,18)   =      3.404057     0.000000     0.000312     3.404369
	 ---------------------------------------------------------------------------
	Successfully symmetrized geometry.

  ==> Convergence Check <==

  Measures of convergence in internal coordinates in au.
  Criteria marked as inactive (o), active & met (*), and active & unmet ( ).
  ---------------------------------------------------------------------------------------------
   Step     Total Energy     Delta E     MAX Force     RMS Force      MAX Disp      RMS Disp   
  ---------------------------------------------------------------------------------------------
    Convergence Criteria    1.00e-06 *    3.00e-04 *             o    1.20e-03 *             o
  ---------------------------------------------------------------------------------------------
      6    -381.47022994   -1.53e-07 *    1.98e-05 *    6.10e-06 o    2.42e-04 *    8.24e-05 o  ~
  ---------------------------------------------------------------------------------------------


  **** Optimization is complete! (in 6 steps) ****

  ==> Optimization Summary <==

  Measures of convergence in internal coordinates in au.
  --------------------------------------------------------------------------------------------------------------- ~
   Step         Total Energy             Delta E       MAX Force       RMS Force        MAX Disp        RMS Disp  ~
  --------------------------------------------------------------------------------------------------------------- ~
      1    -381.469608372122   -381.469608372122      0.00316359      0.00063951      0.14772019      0.02458841  ~
      2    -381.470052160303     -0.000443788181      0.00233388      0.00055877      0.09991219      0.01531102  ~
      3    -381.470199709236     -0.000147548933      0.00323652      0.00042245      0.01332725      0.00340158  ~
      4    -381.470228549089     -0.000028839853      0.00023322      0.00005996      0.00447828      0.00112218  ~
      5    -381.470229785808     -0.000001236719      0.00015041      0.00002692      0.00161155      0.00042689  ~
      6    -381.470229939051     -0.000000153243      0.00001980      0.00000610      0.00024221      0.00008241  ~
  --------------------------------------------------------------------------------------------------------------- ~

	Writing optimization data to binary file.
	Final energy is   -381.4702299390511
	Final (previous) structure:
	Cartesian Geometry (in Angstrom)
	    C    -0.0021374652   0.0007259444  -0.1769355093
	    C     0.0381779483   1.2207432775   0.5247116098
	    C     0.0347458014   1.2155864431   1.9157021059
	    C    -0.0013753242   0.0026488967   2.6108702462
	    C    -0.0388489007  -1.2108758037   1.9170040950
	    C    -0.0442144986  -1.2184149206   0.5258593244
	    C     0.0006818763  -0.0019035749  -1.6423947427
	    H     0.0221710054   2.1658205892  -0.0109498934
	    H     0.0493111923   2.1554609172   2.4578796850
	    H    -0.0005527939   0.0032828816   3.6965460003
	    H    -0.0533875901  -2.1501214894   2.4602920639
	    H    -0.0310534817  -2.1629553203  -0.0101422145
	    N    -0.6772885808  -0.9374162859  -2.3058184639
	    N     0.7105042059   0.9048099117  -2.3077626490
	    H     0.6758780573   0.9977900629  -3.3162465664
	    H     1.3757205685   1.4863887637  -1.8148780390
	    H    -1.4185706505  -1.4429456872  -1.8377644940
	    H    -0.6374643697  -1.0230786061  -3.3150075581
	Saving final (previous) structure.
			--------------------------
			 OPTKING Finished Execution 
			--------------------------

    Final optimized geometry and variables:
    Molecular point group: c1
    Full point group: C1

    Geometry (in Angstrom), charge = 1, multiplicity = 1:

    C           -0.002137465249     0.000725944397    -0.176935509304
    C            0.038177948292     1.220743277503     0.524711609764
    C            0.034745801359     1.215586443112     1.915702105858
    C           -0.001375324173     0.002648896744     2.610870246177
    C           -0.038848900658    -1.210875803699     1.917004095039
    C           -0.044214498577    -1.218414920611     0.525859324420
    C            0.000681876270    -0.001903574936    -1.642394742743
    H            0.022171005416     2.165820589243    -0.010949893423
    H            0.049311192304     2.155460917222     2.457879685034
    H           -0.000552793928     0.003282881555     3.696546000259
    H           -0.053387590112    -2.150121489392     2.460292063868
    H           -0.031053481654    -2.162955320277    -0.010142214502
    N           -0.677288580769    -0.937416285866    -2.305818463892
    N            0.710504205945     0.904809911659    -2.307762648953
    H            0.675878057320     0.997790062918    -3.316246566416
    H            1.375720568464     1.486388763726    -1.814878039025
    H           -1.418570650512    -1.442945687188    -1.837764494018
    H           -0.637464369740    -1.023078606110    -3.315007558140

	Cleaning optimization helper files.


Properties will be evaluated at   0.000000,   0.000000,   0.000000 Bohr

Properties computed using the  density matrix

  Nuclear Dipole Moment: (a.u.)
     X:     0.2584      Y:    -0.2788      Z:     0.1201

  Electronic Dipole Moment: (a.u.)
     X:    -0.2900      Y:     0.3230      Z:    -2.3759

  Dipole Moment: (a.u.)
     X:    -0.0316      Y:     0.0442      Z:    -2.2558     Total:     2.2565

  Dipole Moment: (Debye)
     X:    -0.0803      Y:     0.1123      Z:    -5.7337     Total:     5.7353

  Quadrupole Moment: (Debye Ang)
    XX:   -49.0837     YY:   -38.3708     ZZ:   -13.1697
    XY:     6.4859     XZ:     0.1219     YZ:    -0.1651

  Traceless Quadrupole Moment: (Debye Ang)
    XX:   -15.5423     YY:    -4.8294     ZZ:    20.3717
    XY:     6.4859     XZ:     0.1219     YZ:    -0.1651

  Mulliken Charges: (a.u.)
   Center  Symbol    Alpha    Beta     Spin     Total
       1     C     2.95815  2.95815  0.00000  0.08369
       2     C     3.08261  3.08261  0.00000 -0.16522
       3     C     3.06253  3.06253  0.00000 -0.12507
       4     C     3.05133  3.05133  0.00000 -0.10266
       5     C     3.06255  3.06255  0.00000 -0.12510
       6     C     3.08067  3.08067  0.00000 -0.16134
       7     C     2.72372  2.72372  0.00000  0.55256
       8     H     0.41433  0.41433  0.00000  0.17133
       9     H     0.40546  0.40546  0.00000  0.18908
      10     H     0.40381  0.40381  0.00000  0.19237
      11     H     0.40538  0.40538  0.00000  0.18923
      12     H     0.41297  0.41297  0.00000  0.17406
      13     N     3.86297  3.86297  0.00000 -0.72595
      14     N     3.86173  3.86173  0.00000 -0.72346
      15     H     0.30570  0.30570  0.00000  0.38860
      16     H     0.29962  0.29962  0.00000  0.40077
      17     H     0.30008  0.30008  0.00000  0.39984
      18     H     0.30637  0.30637  0.00000  0.38726

   Total alpha = 32.00000, Total beta = 32.00000, Total charge =  1.00000


*** Psi4 exiting successfully. Buy a developer a beer!
