    -----------------------------------------------------------------------
          Psi4: An Open-Source Ab Initio Electronic Structure Package
                              Psi4 (no tag) Driver

                          Git: Rev {detached?}  

    J. M. Turney, A. C. Simmonett, R. M. Parrish, E. G. Hohenstein,
    F. A. Evangelista, J. T. Fermann, B. J. Mintz, L. A. Burns, J. J. Wilke,
    M. L. Abrams, N. J. Russ, M. L. Leininger, C. L. Janssen, E. T. Seidl,
    W. D. Allen, H. F. Schaefer, R. A. King, E. F. Valeev, C. D. Sherrill,
    and T. D. Crawford, WIREs Comput. Mol. Sci. 2, 556-565 (2012)
    (doi: 10.1002/wcms.93)

                         Additional Contributions by
    A. E. DePrince, M. Saitow, U. Bozkaya, A. Yu. Sokolov
    -----------------------------------------------------------------------


    Psi4 started on: Tue Jul  5 16:46:15 2016

    Process ID:  18876
    PSI4DATADIR: /export131/home/mjharvey/miniconda3/share
    Memory level set to 256.000 MB

  ==> Input File <==

--------------------------------------------------------------------------
set {
	reference rhf
	basis 6-31G*
}


set_num_threads( 1 )
memory 2 gb

molecule MOL {
0 1

O	 -1.609357	 1.206777	 0.206795
C	 -1.083277	 0.139568	 0.115197
C	 0.323299	 -0.082943	 0.642902
C	 -1.772979	 -1.031779	 -0.548194
C	 1.355627	 -0.005344	 -0.493127
H	 0.396251	 -1.044647	 1.143147
H	 0.528637	 0.693580	 1.371677
C	 1.155333	 1.223865	 -1.377534
H	 2.360126	 0.010252	 -0.075980
H	 1.280057	 -0.907677	 -1.090809
H	 1.891536	 1.252673	 -2.174319
H	 1.250670	 2.141594	 -0.804378
H	 0.170717	 1.219102	 -1.835306
H	 -1.133730	 -1.477005	 -1.305030
H	 -2.702349	 -0.708563	 -0.996010
H	 -1.977543	 -1.801373	 0.191457

	symmetry c1
}
set optking {
	frozen_dihedral = ("
		9 5 3 2
	")
}

ee = energy('scf')
oeprop('DIPOLE', 'QUADRUPOLE', 'MULLIKEN_CHARGES')
f=open( 'psi4out.xyz', 'w' )
f.write( "16  " )
f.write( str(ee) + "\n" )
f.write( MOL.save_string_xyz() )
f.close()
--------------------------------------------------------------------------

  Memory set to   2.000 GiB by Python script.

*** tstart() called on cx1-3-15-3.cx1.hpc.ic.ac.uk
*** at Tue Jul  5 16:46:15 2016


         ---------------------------------------------------------
                                   SCF
            by Justin Turney, Rob Parrish, and Andy Simmonett
                              RHF Reference
                        1 Threads,   2000 MiB Core
         ---------------------------------------------------------

  ==> Geometry <==

    Molecular point group: c1
    Full point group: C1

    Geometry (in Angstrom), charge = 0, multiplicity = 1:

       Center              X                  Y                   Z               Mass       
    ------------   -----------------  -----------------  -----------------  -----------------
           O         -1.331396197154     0.955876880037     0.465186608024    15.994914619560
           C         -0.805316197154    -0.111332119963     0.373588608024    12.000000000000
           C          0.601259802846    -0.333843119963     0.901293608024    12.000000000000
           C         -1.495018197154    -1.282679119963    -0.289802391976    12.000000000000
           C          1.633587802846    -0.256244119963    -0.234735391976    12.000000000000
           H          0.674211802846    -1.295547119963     1.401538608024     1.007825032070
           H          0.806597802846     0.442679880037     1.630068608024     1.007825032070
           C          1.433293802846     0.972964880037    -1.119142391976    12.000000000000
           H          2.638086802846    -0.240648119963     0.182411608024     1.007825032070
           H          1.558017802846    -1.158577119963    -0.832417391976     1.007825032070
           H          2.169496802846     1.001772880037    -1.915927391976     1.007825032070
           H          1.528630802846     1.890693880037    -0.545986391976     1.007825032070
           H          0.448677802846     0.968201880037    -1.576914391976     1.007825032070
           H         -0.855769197154    -1.727905119963    -1.046638391976     1.007825032070
           H         -2.424388197154    -0.959463119963    -0.737618391976     1.007825032070
           H         -1.699582197154    -2.052273119963     0.449848608024     1.007825032070

  Running in c1 symmetry.

  Rotational constants: A =      0.17286  B =      0.08328  C =      0.07539 [cm^-1]
  Rotational constants: A =   5182.12655  B =   2496.57328  C =   2260.01024 [MHz]
  Nuclear repulsion =  244.445392618896932

  Charge       = 0
  Multiplicity = 1
  Electrons    = 48
  Nalpha       = 24
  Nbeta        = 24

  ==> Algorithm <==

  SCF Algorithm Type is DF.
  DIIS enabled.
  MOM disabled.
  Fractional occupation disabled.
  Guess Type is CORE.
  Energy threshold   = 1.00e-06
  Density threshold  = 1.00e-06
  Integral threshold = 0.00e+00

  ==> Primary Basis <==

  Basis Set: 6-31G*
    Number of shells: 56
    Number of basis function: 110
    Number of Cartesian functions: 110
    Spherical Harmonics?: false
    Max angular momentum: 2

  ==> Pre-Iterations <==

   -------------------------------------------------------
    Irrep   Nso     Nmo     Nalpha   Nbeta   Ndocc  Nsocc
   -------------------------------------------------------
     A        110     110       0       0       0       0
   -------------------------------------------------------
    Total     110     110      24      24      24       0
   -------------------------------------------------------

 OEINTS: Overlap, kinetic, potential, dipole, and quadrupole integrals
         stored in file 35.

  ==> Integral Setup <==

  ==> DFJK: Density-Fitted J/K Matrices <==

    J tasked:                  Yes
    K tasked:                  Yes
    wK tasked:                  No
    OpenMP threads:              1
    Integrals threads:           1
    Memory (MB):              1430
    Algorithm:                Core
    Integral Cache:           NONE
    Schwarz Cutoff:          1E-12
    Fitting Condition:       1E-12

   => Auxiliary Basis Set <=

  Basis Set: 
    Number of shells: 234
    Number of basis function: 736
    Number of Cartesian functions: 736
    Spherical Harmonics?: false
    Max angular momentum: 3

  Minimum eigenvalue in the overlap matrix is 3.6353420226E-03.
  Using Symmetric Orthogonalization.
  SCF Guess: Core (One-Electron) Hamiltonian.

  ==> Iterations <==

                           Total Energy        Delta E     RMS |[F,P]|

   @DF-RHF iter   1:  -209.54607103027681   -2.09546e+02   7.46327e-02 
   @DF-RHF iter   2:  -200.75218791818233    8.79388e+00   5.88288e-02 DIIS
   @DF-RHF iter   3:  -237.09639202653281   -3.63442e+01   5.05516e-02 DIIS
   @DF-RHF iter   4:  -268.90390452865904   -3.18075e+01   1.28958e-02 DIIS
   @DF-RHF iter   5:  -269.75345483805404   -8.49550e-01   7.39716e-03 DIIS
   @DF-RHF iter   6:  -270.00313171961511   -2.49677e-01   1.86728e-03 DIIS
   @DF-RHF iter   7:  -270.02172226644359   -1.85905e-02   8.31899e-04 DIIS
   @DF-RHF iter   8:  -270.02655731370317   -4.83505e-03   2.95336e-04 DIIS
   @DF-RHF iter   9:  -270.02744544312930   -8.88129e-04   6.82317e-05 DIIS
   @DF-RHF iter  10:  -270.02751454834174   -6.91052e-05   2.64759e-05 DIIS
   @DF-RHF iter  11:  -270.02753146167834   -1.69133e-05   1.31299e-05 DIIS
   @DF-RHF iter  12:  -270.02753810124875   -6.63957e-06   5.34558e-06 DIIS
   @DF-RHF iter  13:  -270.02753922546140   -1.12421e-06   2.04075e-06 DIIS
   @DF-RHF iter  14:  -270.02753936697479   -1.41513e-07   6.03709e-07 DIIS

  ==> Post-Iterations <==

    Orbital Energies (a.u.)
    -----------------------

    Doubly Occupied:                                                      

       1A    -20.548379     2A    -11.324932     3A    -11.233878  
       4A    -11.229342     5A    -11.229215     6A    -11.213231  
       7A     -1.394392     8A     -1.084436     9A     -1.010081  
      10A     -0.947721    11A     -0.832684    12A     -0.730167  
      13A     -0.656273    14A     -0.647436    15A     -0.623668  
      16A     -0.601527    17A     -0.580000    18A     -0.559484  
      19A     -0.535664    20A     -0.506840    21A     -0.502334  
      22A     -0.485398    23A     -0.471259    24A     -0.398327  

    Virtual:                                                              

      25A      0.167017    26A      0.216100    27A      0.269471  
      28A      0.283170    29A      0.284786    30A      0.291973  
      31A      0.311012    32A      0.330432    33A      0.339612  
      34A      0.354351    35A      0.363767    36A      0.377525  
      37A      0.400131    38A      0.426386    39A      0.492209  
      40A      0.523843    41A      0.702878    42A      0.712235  
      43A      0.743812    44A      0.747006    45A      0.794767  
      46A      0.807922    47A      0.845002    48A      0.884840  
      49A      0.904387    50A      0.927929    51A      0.946881  
      52A      0.981550    53A      1.017129    54A      1.023796  
      55A      1.099997    56A      1.116804    57A      1.138563  
      58A      1.145851    59A      1.151943    60A      1.184506  
      61A      1.186815    62A      1.198797    63A      1.208423  
      64A      1.231718    65A      1.252545    66A      1.257078  
      67A      1.314221    68A      1.367274    69A      1.387124  
      70A      1.457875    71A      1.478893    72A      1.664403  
      73A      1.670542    74A      1.739857    75A      1.829719  
      76A      1.892814    77A      1.923884    78A      1.971320  
      79A      2.056194    80A      2.088374    81A      2.118365  
      82A      2.134849    83A      2.193167    84A      2.259536  
      85A      2.269334    86A      2.309938    87A      2.328139  
      88A      2.404672    89A      2.434699    90A      2.467975  
      91A      2.508307    92A      2.587580    93A      2.664742  
      94A      2.685298    95A      2.711729    96A      2.728289  
      97A      2.734479    98A      2.849493    99A      2.936895  
     100A      2.997092   101A      3.048929   102A      3.115114  
     103A      3.375766   104A      3.376753   105A      4.459114  
     106A      4.530722   107A      4.625068   108A      4.773201  
     109A      4.876917   110A      4.966665  

    Final Occupation by Irrep:
              A 
    DOCC [    24 ]

  Energy converged.

  @DF-RHF Final Energy:  -270.02753936697479

   => Energetics <=

    Nuclear Repulsion Energy =            244.4453926188969319
    One-Electron Energy =                -850.2525970334870635
    Two-Electron Energy =                 335.7796650476154809
    DFT Exchange-Correlation Energy =       0.0000000000000000
    Empirical Dispersion Energy =           0.0000000000000000
    PCM Polarization Energy =               0.0000000000000000
    EFP Energy =                            0.0000000000000000
    Total Energy =                       -270.0275393669746791

    Alert: EFP and PCM quantities not currently incorporated into SCF psivars.

Properties will be evaluated at   0.000000,   0.000000,   0.000000 Bohr
  ==> Properties <==


Properties computed using the SCF density matrix

  Nuclear Dipole Moment: (a.u.)
     X:     4.5347      Y:    -2.9307      Z:    -2.8023

  Electronic Dipole Moment: (a.u.)
     X:    -3.9307      Y:     1.8961      Z:     2.6727

  Dipole Moment: (a.u.)
     X:     0.6040      Y:    -1.0346      Z:    -0.1296     Total:     1.2050

  Dipole Moment: (Debye)
     X:     1.5352      Y:    -2.6297      Z:    -0.3294     Total:     3.0628


  Saving occupied orbitals to File 180.

*** tstop() called on cx1-3-15-3.cx1.hpc.ic.ac.uk at Tue Jul  5 16:46:22 2016
Module time:
	user time   =       6.54 seconds =       0.11 minutes
	system time =       0.03 seconds =       0.00 minutes
	total time  =          7 seconds =       0.12 minutes
Total time:
	user time   =       6.54 seconds =       0.11 minutes
	system time =       0.03 seconds =       0.00 minutes
	total time  =          7 seconds =       0.12 minutes


Properties will be evaluated at   0.000000,   0.000000,   0.000000 Bohr

Properties computed using the  density matrix

  Nuclear Dipole Moment: (a.u.)
     X:     4.5347      Y:    -2.9307      Z:    -2.8023

  Electronic Dipole Moment: (a.u.)
     X:    -3.9307      Y:     1.8961      Z:     2.6727

  Dipole Moment: (a.u.)
     X:     0.6040      Y:    -1.0346      Z:    -0.1296     Total:     1.2050

  Dipole Moment: (Debye)
     X:     1.5352      Y:    -2.6297      Z:    -0.3294     Total:     3.0628

  Quadrupole Moment: (Debye Ang)
    XX:   -39.6982     YY:   -39.8170     ZZ:   -37.8426
    XY:     4.0275     XZ:     1.1925     YZ:    -1.0606

  Traceless Quadrupole Moment: (Debye Ang)
    XX:    -0.5789     YY:    -0.6978     ZZ:     1.2767
    XY:     4.0275     XZ:     1.1925     YZ:    -1.0606

  Mulliken Charges: (a.u.)
   Center  Symbol    Alpha    Beta     Spin     Total
       1     O     4.26206  4.26206  0.00000 -0.52412
       2     C     2.73846  2.73846  0.00000  0.52308
       3     C     3.19872  3.19872  0.00000 -0.39743
       4     C     3.28948  3.28948  0.00000 -0.57896
       5     C     3.16425  3.16425  0.00000 -0.32850
       6     H     0.41401  0.41401  0.00000  0.17199
       7     H     0.40061  0.40061  0.00000  0.19877
       8     C     3.24357  3.24357  0.00000 -0.48714
       9     H     0.41204  0.41204  0.00000  0.17592
      10     H     0.42003  0.42003  0.00000  0.15993
      11     H     0.41835  0.41835  0.00000  0.16330
      12     H     0.41229  0.41229  0.00000  0.17543
      13     H     0.41408  0.41408  0.00000  0.17185
      14     H     0.40905  0.40905  0.00000  0.18190
      15     H     0.39642  0.39642  0.00000  0.20716
      16     H     0.40659  0.40659  0.00000  0.18682

   Total alpha = 24.00000, Total beta = 24.00000, Total charge = -0.00000


*** PSI4 exiting successfully. Buy a developer a beer!
