    -----------------------------------------------------------------------
          Psi4: An Open-Source Ab Initio Electronic Structure Package
                              Psi4 (no tag) Driver

                          Git: Rev {detached?}  

    J. M. Turney, A. C. Simmonett, R. M. Parrish, E. G. Hohenstein,
    F. A. Evangelista, J. T. Fermann, B. J. Mintz, L. A. Burns, J. J. Wilke,
    M. L. Abrams, N. J. Russ, M. L. Leininger, C. L. Janssen, E. T. Seidl,
    W. D. Allen, H. F. Schaefer, R. A. King, E. F. Valeev, C. D. Sherrill,
    and T. D. Crawford, WIREs Comput. Mol. Sci. 2, 556-565 (2012)
    (doi: 10.1002/wcms.93)

                         Additional Contributions by
    A. E. DePrince, M. Saitow, U. Bozkaya, A. Yu. Sokolov
    -----------------------------------------------------------------------


    Psi4 started on: Tue Jul  5 16:31:32 2016

    Process ID:  28867
    PSI4DATADIR: /export131/home/mjharvey/miniconda3/share
    Memory level set to 256.000 MB

  ==> Input File <==

--------------------------------------------------------------------------
set {
	reference rhf
	basis 6-31G*
}


set_num_threads( 1 )
memory 2 gb

molecule MOL {
0 1

H	 -0.465927	 -0.540989	 -0.972586
N	 -0.626943	 -0.667432	 -0.000092
C	 -1.865966	 -1.286326	 0.412834
C	 0.325755	 -0.252874	 0.869779
H	 -2.551604	 -1.378344	 -0.422893
H	 -2.317341	 -0.664912	 1.169030
H	 -1.688517	 -2.272970	 0.827657
C	 1.674978	 -0.919497	 0.690344
O	 0.127974	 0.574320	 1.716447
H	 2.068026	 -0.726742	 -0.302990
H	 2.359261	 -0.526889	 1.427442
H	 1.590945	 -1.994555	 0.814939

	symmetry c1
}
set optking {
	frozen_dihedral = ("
		4 2 3 5
	")
}

ee = energy('scf')
oeprop('DIPOLE', 'QUADRUPOLE', 'MULLIKEN_CHARGES')
f=open( 'psi4out.xyz', 'w' )
f.write( "12  " )
f.write( str(ee) + "\n" )
f.write( MOL.save_string_xyz() )
f.close()
--------------------------------------------------------------------------

  Memory set to   2.000 GiB by Python script.

*** tstart() called on cx1-3-2-3.cx1.hpc.ic.ac.uk
*** at Tue Jul  5 16:31:32 2016


         ---------------------------------------------------------
                                   SCF
            by Justin Turney, Rob Parrish, and Andy Simmonett
                              RHF Reference
                        1 Threads,   2000 MiB Core
         ---------------------------------------------------------

  ==> Geometry <==

    Molecular point group: c1
    Full point group: C1

    Geometry (in Angstrom), charge = 0, multiplicity = 1:

       Center              X                  Y                   Z               Mass       
    ------------   -----------------  -----------------  -----------------  -----------------
           H         -0.382042228430    -0.023101813337    -1.707521892514     1.007825032070
           N         -0.543058228430    -0.149544813337    -0.735027892514    14.003074004780
           C         -1.782081228430    -0.768438813337    -0.322101892514    12.000000000000
           C          0.409639771570     0.265013186663     0.134843107486    12.000000000000
           H         -2.467719228430    -0.860456813337    -1.157828892514     1.007825032070
           H         -2.233456228430    -0.147024813337     0.434094107486     1.007825032070
           H         -1.604632228430    -1.755082813337     0.092721107486     1.007825032070
           C          1.758862771570    -0.401609813337    -0.044591892514    12.000000000000
           O          0.211858771570     1.092207186663     0.981511107486    15.994914619560
           H          2.151910771570    -0.208854813337    -1.037925892514     1.007825032070
           H          2.443145771570    -0.009001813337     0.692506107486     1.007825032070
           H          1.674829771570    -1.476667813337     0.080003107486     1.007825032070

  Running in c1 symmetry.

  Rotational constants: A =      0.29744  B =      0.13139  C =      0.10165 [cm^-1]
  Rotational constants: A =   8917.08884  B =   3939.01961  C =   3047.38719 [MHz]
  Nuclear repulsion =  180.895163539794567

  Charge       = 0
  Multiplicity = 1
  Electrons    = 40
  Nalpha       = 20
  Nbeta        = 20

  ==> Algorithm <==

  SCF Algorithm Type is DF.
  DIIS enabled.
  MOM disabled.
  Fractional occupation disabled.
  Guess Type is CORE.
  Energy threshold   = 1.00e-06
  Density threshold  = 1.00e-06
  Integral threshold = 0.00e+00

  ==> Primary Basis <==

  Basis Set: 6-31G*
    Number of shells: 44
    Number of basis function: 89
    Number of Cartesian functions: 89
    Spherical Harmonics?: false
    Max angular momentum: 2

  ==> Pre-Iterations <==

   -------------------------------------------------------
    Irrep   Nso     Nmo     Nalpha   Nbeta   Ndocc  Nsocc
   -------------------------------------------------------
     A         89      89       0       0       0       0
   -------------------------------------------------------
    Total      89      89      20      20      20       0
   -------------------------------------------------------

 OEINTS: Overlap, kinetic, potential, dipole, and quadrupole integrals
         stored in file 35.

  ==> Integral Setup <==

  ==> DFJK: Density-Fitted J/K Matrices <==

    J tasked:                  Yes
    K tasked:                  Yes
    wK tasked:                  No
    OpenMP threads:              1
    Integrals threads:           1
    Memory (MB):              1430
    Algorithm:                Core
    Integral Cache:           NONE
    Schwarz Cutoff:          1E-12
    Fitting Condition:       1E-12

   => Auxiliary Basis Set <=

  Basis Set: 
    Number of shells: 183
    Number of basis function: 580
    Number of Cartesian functions: 580
    Spherical Harmonics?: false
    Max angular momentum: 3

  Minimum eigenvalue in the overlap matrix is 4.1224268594E-03.
  Using Symmetric Orthogonalization.
  SCF Guess: Core (One-Electron) Hamiltonian.

  ==> Iterations <==

                           Total Energy        Delta E     RMS |[F,P]|

   @DF-RHF iter   1:  -191.31730366056411   -1.91317e+02   8.75182e-02 
   @DF-RHF iter   2:  -191.63817032952539   -3.20867e-01   5.88483e-02 DIIS
   @DF-RHF iter   3:  -215.21725981677525   -2.35791e+01   6.67115e-02 DIIS
   @DF-RHF iter   4:  -240.87562681478641   -2.56584e+01   3.54757e-02 DIIS
   @DF-RHF iter   5:  -244.96836308290204   -4.09274e+00   1.96739e-02 DIIS
   @DF-RHF iter   6:  -246.53545977862552   -1.56710e+00   9.19307e-03 DIIS
   @DF-RHF iter   7:  -246.90970179765719   -3.74242e-01   3.32413e-03 DIIS
   @DF-RHF iter   8:  -246.96761495964910   -5.79132e-02   9.66837e-04 DIIS
   @DF-RHF iter   9:  -246.97314207945669   -5.52712e-03   3.66507e-04 DIIS
   @DF-RHF iter  10:  -246.97413612303728   -9.94044e-04   1.29183e-04 DIIS
   @DF-RHF iter  11:  -246.97433527836080   -1.99155e-04   4.52586e-05 DIIS
   @DF-RHF iter  12:  -246.97436837533752   -3.30970e-05   2.47039e-05 DIIS
   @DF-RHF iter  13:  -246.97437273310936   -4.35777e-06   6.44726e-06 DIIS
   @DF-RHF iter  14:  -246.97437322904665   -4.95937e-07   2.23493e-06 DIIS
   @DF-RHF iter  15:  -246.97437329404374   -6.49971e-08   5.96563e-07 DIIS

  ==> Post-Iterations <==

    Orbital Energies (a.u.)
    -----------------------

    Doubly Occupied:                                                      

       1A    -20.538397     2A    -15.554692     3A    -11.346266  
       4A    -11.258435     5A    -11.225588     6A     -1.393621  
       7A     -1.221212     8A     -1.008975     9A     -0.933807  
      10A     -0.781838    11A     -0.685661    12A     -0.646869  
      13A     -0.640387    14A     -0.586112    15A     -0.582387  
      16A     -0.561184    17A     -0.547557    18A     -0.492198  
      19A     -0.422046    20A     -0.371942  

    Virtual:                                                              

      21A      0.171201    22A      0.223849    23A      0.264852  
      24A      0.275389    25A      0.313404    26A      0.318928  
      27A      0.334968    28A      0.349709    29A      0.380026  
      30A      0.418243    31A      0.517321    32A      0.595836  
      33A      0.717324    34A      0.742980    35A      0.769743  
      36A      0.784025    37A      0.788804    38A      0.824163  
      39A      0.856374    40A      0.971611    41A      0.993364  
      42A      1.020147    43A      1.058405    44A      1.102184  
      45A      1.118606    46A      1.138347    47A      1.150102  
      48A      1.187212    49A      1.206822    50A      1.217582  
      51A      1.225016    52A      1.234683    53A      1.293468  
      54A      1.343273    55A      1.360076    56A      1.399789  
      57A      1.506151    58A      1.629272    59A      1.743580  
      60A      1.793748    61A      1.874195    62A      1.956144  
      63A      2.036706    64A      2.103693    65A      2.138475  
      66A      2.184050    67A      2.247330    68A      2.260222  
      69A      2.335649    70A      2.383785    71A      2.414226  
      72A      2.447718    73A      2.510138    74A      2.556404  
      75A      2.621922    76A      2.667984    77A      2.776670  
      78A      2.835852    79A      2.934763    80A      3.032252  
      81A      3.133328    82A      3.235301    83A      3.364387  
      84A      3.491556    85A      4.352694    86A      4.469343  
      87A      4.597091    88A      4.718493    89A      4.860304  

    Final Occupation by Irrep:
              A 
    DOCC [    20 ]

  Energy converged.

  @DF-RHF Final Energy:  -246.97437329404374

   => Energetics <=

    Nuclear Repulsion Energy =            180.8951635397945665
    One-Electron Energy =                -694.1406841578852891
    Two-Electron Energy =                 266.2711473240467512
    DFT Exchange-Correlation Energy =       0.0000000000000000
    Empirical Dispersion Energy =           0.0000000000000000
    PCM Polarization Energy =               0.0000000000000000
    EFP Energy =                            0.0000000000000000
    Total Energy =                       -246.9743732940439713

    Alert: EFP and PCM quantities not currently incorporated into SCF psivars.

Properties will be evaluated at   0.000000,   0.000000,   0.000000 Bohr
  ==> Properties <==


Properties computed using the SCF density matrix

  Nuclear Dipole Moment: (a.u.)
     X:    -0.3892      Y:    -4.1944      Z:    -2.4343

  Electronic Dipole Moment: (a.u.)
     X:     0.3785      Y:     3.2510      Z:     1.3521

  Dipole Moment: (a.u.)
     X:    -0.0107      Y:    -0.9434      Z:    -1.0822     Total:     1.4357

  Dipole Moment: (Debye)
     X:    -0.0272      Y:    -2.3979      Z:    -2.7507     Total:     3.6492


  Saving occupied orbitals to File 180.

*** tstop() called on cx1-3-2-3.cx1.hpc.ic.ac.uk at Tue Jul  5 16:31:36 2016
Module time:
	user time   =       3.80 seconds =       0.06 minutes
	system time =       0.03 seconds =       0.00 minutes
	total time  =          4 seconds =       0.07 minutes
Total time:
	user time   =       3.80 seconds =       0.06 minutes
	system time =       0.03 seconds =       0.00 minutes
	total time  =          4 seconds =       0.07 minutes


Properties will be evaluated at   0.000000,   0.000000,   0.000000 Bohr

Properties computed using the  density matrix

  Nuclear Dipole Moment: (a.u.)
     X:    -0.3892      Y:    -4.1944      Z:    -2.4343

  Electronic Dipole Moment: (a.u.)
     X:     0.3785      Y:     3.2510      Z:     1.3521

  Dipole Moment: (a.u.)
     X:    -0.0107      Y:    -0.9434      Z:    -1.0822     Total:     1.4357

  Dipole Moment: (Debye)
     X:    -0.0272      Y:    -2.3979      Z:    -2.7507     Total:     3.6492

  Quadrupole Moment: (Debye Ang)
    XX:   -27.7126     YY:   -33.6696     ZZ:   -30.2289
    XY:     0.7015     XZ:     0.0830     YZ:    -2.9354

  Traceless Quadrupole Moment: (Debye Ang)
    XX:     2.8244     YY:    -3.1326     ZZ:     0.3082
    XY:     0.7015     XZ:     0.0830     YZ:    -2.9354

  Mulliken Charges: (a.u.)
   Center  Symbol    Alpha    Beta     Spin     Total
       1     H     0.30912  0.30912  0.00000  0.38176
       2     N     3.90187  3.90187  0.00000 -0.80374
       3     C     3.13590  3.13590  0.00000 -0.27180
       4     C     2.65270  2.65270  0.00000  0.69461
       5     H     0.41336  0.41336  0.00000  0.17327
       6     H     0.40199  0.40199  0.00000  0.19603
       7     H     0.41941  0.41941  0.00000  0.16118
       8     C     3.28042  3.28042  0.00000 -0.56084
       9     O     4.26611  4.26611  0.00000 -0.53223
      10     H     0.41284  0.41284  0.00000  0.17431
      11     H     0.39979  0.39979  0.00000  0.20043
      12     H     0.40649  0.40649  0.00000  0.18702

   Total alpha = 20.00000, Total beta = 20.00000, Total charge =  0.00000


*** PSI4 exiting successfully. Buy a developer a beer!
