    -----------------------------------------------------------------------
          Psi4: An Open-Source Ab Initio Electronic Structure Package
                              Psi4 (no tag) Driver

                          Git: Rev {detached?}  

    J. M. Turney, A. C. Simmonett, R. M. Parrish, E. G. Hohenstein,
    F. A. Evangelista, J. T. Fermann, B. J. Mintz, L. A. Burns, J. J. Wilke,
    M. L. Abrams, N. J. Russ, M. L. Leininger, C. L. Janssen, E. T. Seidl,
    W. D. Allen, H. F. Schaefer, R. A. King, E. F. Valeev, C. D. Sherrill,
    and T. D. Crawford, WIREs Comput. Mol. Sci. 2, 556-565 (2012)
    (doi: 10.1002/wcms.93)

                         Additional Contributions by
    A. E. DePrince, M. Saitow, U. Bozkaya, A. Yu. Sokolov
    -----------------------------------------------------------------------


    Psi4 started on: Tue Jul  5 16:41:57 2016

    Process ID:  12809
    PSI4DATADIR: /export131/home/mjharvey/miniconda3/share
    Memory level set to 256.000 MB

  ==> Input File <==

--------------------------------------------------------------------------
set {
	reference rhf
	basis 6-31G*
}


set_num_threads( 1 )
memory 2 gb

molecule MOL {
0 1

H	 -2.153054	 -2.250733	 0.000000
O	 -2.462445	 -1.355403	 0.000000
C	 -1.434260	 -0.483044	 0.000000
C	 -0.547951	 -0.541517	 -1.070396
C	 -1.241888	 0.443070	 1.007580
H	 -0.717477	 -1.269224	 -1.841535
C	 0.523599	 0.325790	 -1.125662
H	 -1.919656	 0.498817	 1.840693
C	 -0.155534	 1.311589	 0.937327
H	 1.203730	 0.274208	 -1.955921
C	 0.733217	 1.262593	 -0.123289
C	 0.038839	 2.277623	 1.995389
H	 1.565763	 1.938482	 -0.163546
N	 0.189457	 3.035857	 2.828034

	symmetry c1
}
set optking {
	frozen_dihedral = ("
		14 12 9 5
	")
}

ee = energy('scf')
oeprop('DIPOLE', 'QUADRUPOLE', 'MULLIKEN_CHARGES')
f=open( 'psi4out.xyz', 'w' )
f.write( "14  " )
f.write( str(ee) + "\n" )
f.write( MOL.save_string_xyz() )
f.close()
--------------------------------------------------------------------------

  Memory set to   2.000 GiB by Python script.

*** tstart() called on cx1-3-4-4.cx1.hpc.ic.ac.uk
*** at Tue Jul  5 16:41:57 2016


         ---------------------------------------------------------
                                   SCF
            by Justin Turney, Rob Parrish, and Andy Simmonett
                              RHF Reference
                        1 Threads,   2000 MiB Core
         ---------------------------------------------------------

  ==> Geometry <==

    Molecular point group: c1
    Full point group: C1

    Geometry (in Angstrom), charge = 0, multiplicity = 1:

       Center              X                  Y                   Z               Mass       
    ------------   -----------------  -----------------  -----------------  -----------------
           H         -1.617272703678    -2.882218798350    -0.478133710525     1.007825032070
           O         -1.926663703678    -1.986888798350    -0.478133710525    15.994914619560
           C         -0.898478703678    -1.114529798350    -0.478133710525    12.000000000000
           C         -0.012169703678    -1.173002798350    -1.548529710525    12.000000000000
           C         -0.706106703678    -0.188415798350     0.529446289475    12.000000000000
           H         -0.181695703678    -1.900709798350    -2.319668710525     1.007825032070
           C          1.059380296322    -0.305695798350    -1.603795710525    12.000000000000
           H         -1.383874703678    -0.132668798350     1.362559289475     1.007825032070
           C          0.380247296322     0.680103201650     0.459193289475    12.000000000000
           H          1.739511296322    -0.357277798350    -2.434054710525     1.007825032070
           C          1.268998296322     0.631107201650    -0.601422710525    12.000000000000
           C          0.574620296322     1.646137201650     1.517255289475    12.000000000000
           H          2.101544296322     1.306996201650    -0.641679710525     1.007825032070
           N          0.725238296322     2.404371201650     2.349900289475    14.003074004780

  Running in c1 symmetry.

  Rotational constants: A =      0.11777  B =      0.04020  C =      0.03003 [cm^-1]
  Rotational constants: A =   3530.67536  B =   1205.14851  C =    900.27588 [MHz]
  Nuclear repulsion =  379.260555121584503

  Charge       = 0
  Multiplicity = 1
  Electrons    = 62
  Nalpha       = 31
  Nbeta        = 31

  ==> Algorithm <==

  SCF Algorithm Type is DF.
  DIIS enabled.
  MOM disabled.
  Fractional occupation disabled.
  Guess Type is CORE.
  Energy threshold   = 1.00e-06
  Density threshold  = 1.00e-06
  Integral threshold = 0.00e+00

  ==> Primary Basis <==

  Basis Set: 6-31G*
    Number of shells: 64
    Number of basis function: 145
    Number of Cartesian functions: 145
    Spherical Harmonics?: false
    Max angular momentum: 2

  ==> Pre-Iterations <==

   -------------------------------------------------------
    Irrep   Nso     Nmo     Nalpha   Nbeta   Ndocc  Nsocc
   -------------------------------------------------------
     A        145     145       0       0       0       0
   -------------------------------------------------------
    Total     145     145      31      31      31       0
   -------------------------------------------------------

 OEINTS: Overlap, kinetic, potential, dipole, and quadrupole integrals
         stored in file 35.

  ==> Integral Setup <==

  ==> DFJK: Density-Fitted J/K Matrices <==

    J tasked:                  Yes
    K tasked:                  Yes
    wK tasked:                  No
    OpenMP threads:              1
    Integrals threads:           1
    Memory (MB):              1430
    Algorithm:                Core
    Integral Cache:           NONE
    Schwarz Cutoff:          1E-12
    Fitting Condition:       1E-12

   => Auxiliary Basis Set <=

  Basis Set: 
    Number of shells: 261
    Number of basis function: 854
    Number of Cartesian functions: 854
    Spherical Harmonics?: false
    Max angular momentum: 3

  Minimum eigenvalue in the overlap matrix is 4.1631331968E-04.
  Using Symmetric Orthogonalization.
  SCF Guess: Core (One-Electron) Hamiltonian.

  ==> Iterations <==

                           Total Energy        Delta E     RMS |[F,P]|

   @DF-RHF iter   1:  -309.85890106940394   -3.09859e+02   6.48532e-02 
   @DF-RHF iter   2:  -147.82654322343296    1.62032e+02   7.73338e-02 DIIS
   @DF-RHF iter   3:  -317.83960052977989   -1.70013e+02   5.15087e-02 DIIS
   @DF-RHF iter   4:  -329.21842878234020   -1.13788e+01   5.89074e-02 DIIS
   @DF-RHF iter   5:  -395.52612386211717   -6.63077e+01   1.21826e-02 DIIS
   @DF-RHF iter   6:  -396.81007287711748   -1.28395e+00   6.90999e-03 DIIS
   @DF-RHF iter   7:  -397.26630123175448   -4.56228e-01   1.07024e-03 DIIS
   @DF-RHF iter   8:  -397.28160767632505   -1.53064e-02   4.83735e-04 DIIS
   @DF-RHF iter   9:  -397.28544660695582   -3.83893e-03   2.15515e-04 DIIS
   @DF-RHF iter  10:  -397.28651403167669   -1.06742e-03   1.07770e-04 DIIS
   @DF-RHF iter  11:  -397.28678887459762   -2.74843e-04   4.73049e-05 DIIS
   @DF-RHF iter  12:  -397.28691941836075   -1.30544e-04   2.17732e-05 DIIS
   @DF-RHF iter  13:  -397.28695175415726   -3.23358e-05   7.76849e-06 DIIS
   @DF-RHF iter  14:  -397.28695492548195   -3.17132e-06   3.07529e-06 DIIS
   @DF-RHF iter  15:  -397.28695526993863   -3.44457e-07   1.10770e-06 DIIS
   @DF-RHF iter  16:  -397.28695532023846   -5.02998e-08   4.99403e-07 DIIS

  ==> Post-Iterations <==

    Orbital Energies (a.u.)
    -----------------------

    Doubly Occupied:                                                      

       1A    -20.601589     2A    -15.574294     3A    -11.319400  
       4A    -11.293129     5A    -11.275648     6A    -11.263669  
       7A    -11.262774     8A    -11.261935     9A    -11.257018  
      10A     -1.425796    11A     -1.232193    12A     -1.181882  
      13A     -1.062316    14A     -1.038582    15A     -0.893274  
      16A     -0.860443    17A     -0.787926    18A     -0.713031  
      19A     -0.689455    20A     -0.685775    21A     -0.633128  
      22A     -0.620703    23A     -0.568589    24A     -0.563137  
      25A     -0.546447    26A     -0.542831    27A     -0.501894  
      28A     -0.476149    29A     -0.471466    30A     -0.362128  
      31A     -0.346630  

    Virtual:                                                              

      32A      0.085805    33A      0.126903    34A      0.209273  
      35A      0.220630    36A      0.222478    37A      0.274604  
      38A      0.279278    39A      0.291264    40A      0.325350  
      41A      0.367036    42A      0.377771    43A      0.439680  
      44A      0.450592    45A      0.469438    46A      0.484938  
      47A      0.577639    48A      0.604097    49A      0.636693  
      50A      0.705303    51A      0.713228    52A      0.717650  
      53A      0.760708    54A      0.784752    55A      0.795068  
      56A      0.803438    57A      0.804461    58A      0.825794  
      59A      0.853656    60A      0.862367    61A      0.871532  
      62A      0.890560    63A      0.899119    64A      0.937417  
      65A      0.954832    66A      0.992407    67A      1.032059  
      68A      1.063386    69A      1.068248    70A      1.093806  
      71A      1.103944    72A      1.111539    73A      1.126145  
      74A      1.135609    75A      1.161337    76A      1.182191  
      77A      1.210486    78A      1.255361    79A      1.269170  
      80A      1.338865    81A      1.379443    82A      1.382737  
      83A      1.414928    84A      1.444635    85A      1.465940  
      86A      1.470933    87A      1.523158    88A      1.591396  
      89A      1.600092    90A      1.677179    91A      1.686806  
      92A      1.716889    93A      1.734450    94A      1.746779  
      95A      1.800120    96A      1.808317    97A      1.841690  
      98A      1.945713    99A      2.040683   100A      2.063079  
     101A      2.083987   102A      2.107757   103A      2.120833  
     104A      2.168841   105A      2.235217   106A      2.243256  
     107A      2.256350   108A      2.283595   109A      2.293116  
     110A      2.298271   111A      2.331163   112A      2.389964  
     113A      2.435634   114A      2.441762   115A      2.465276  
     116A      2.525989   117A      2.563745   118A      2.612117  
     119A      2.623609   120A      2.742473   121A      2.834530  
     122A      2.854714   123A      2.882606   124A      2.908955  
     125A      2.998079   126A      3.008135   127A      3.036410  
     128A      3.096796   129A      3.144281   130A      3.169113  
     131A      3.207504   132A      3.295259   133A      3.381336  
     134A      3.565837   135A      3.674164   136A      3.868811  
     137A      4.315059   138A      4.465391   139A      4.507571  
     140A      4.560130   141A      4.613282   142A      4.720404  
     143A      4.829136   144A      4.971246   145A      5.257779  

    Final Occupation by Irrep:
              A 
    DOCC [    31 ]

  Energy converged.

  @DF-RHF Final Energy:  -397.28695532023846

   => Energetics <=

    Nuclear Repulsion Energy =            379.2605551215845026
    One-Electron Energy =               -1290.4686221329645832
    Two-Electron Energy =                 513.9211116911405952
    DFT Exchange-Correlation Energy =       0.0000000000000000
    Empirical Dispersion Energy =           0.0000000000000000
    PCM Polarization Energy =               0.0000000000000000
    EFP Energy =                            0.0000000000000000
    Total Energy =                       -397.2869553202394854

    Alert: EFP and PCM quantities not currently incorporated into SCF psivars.

Properties will be evaluated at   0.000000,   0.000000,   0.000000 Bohr
  ==> Properties <==


Properties computed using the SCF density matrix

  Nuclear Dipole Moment: (a.u.)
     X:     0.6057      Y:    -3.7344      Z:    -4.2380

  Electronic Dipole Moment: (a.u.)
     X:    -0.3259      Y:     2.1019      Z:     2.8865

  Dipole Moment: (a.u.)
     X:     0.2797      Y:    -1.6325      Z:    -1.3515     Total:     2.1377

  Dipole Moment: (Debye)
     X:     0.7110      Y:    -4.1494      Z:    -3.4352     Total:     5.4336


  Saving occupied orbitals to File 180.

*** tstop() called on cx1-3-4-4.cx1.hpc.ic.ac.uk at Tue Jul  5 16:42:12 2016
Module time:
	user time   =      14.84 seconds =       0.25 minutes
	system time =       0.07 seconds =       0.00 minutes
	total time  =         15 seconds =       0.25 minutes
Total time:
	user time   =      14.84 seconds =       0.25 minutes
	system time =       0.07 seconds =       0.00 minutes
	total time  =         15 seconds =       0.25 minutes


Properties will be evaluated at   0.000000,   0.000000,   0.000000 Bohr

Properties computed using the  density matrix

  Nuclear Dipole Moment: (a.u.)
     X:     0.6057      Y:    -3.7344      Z:    -4.2380

  Electronic Dipole Moment: (a.u.)
     X:    -0.3259      Y:     2.1019      Z:     2.8865

  Dipole Moment: (a.u.)
     X:     0.2797      Y:    -1.6325      Z:    -1.3515     Total:     2.1377

  Dipole Moment: (Debye)
     X:     0.7110      Y:    -4.1494      Z:    -3.4352     Total:     5.4336

  Quadrupole Moment: (Debye Ang)
    XX:   -53.2074     YY:   -51.5467     ZZ:   -56.1263
    XY:    -0.3945     XZ:    -6.1579     YZ:    -5.8311

  Traceless Quadrupole Moment: (Debye Ang)
    XX:     0.4194     YY:     2.0801     ZZ:    -2.4995
    XY:    -0.3945     XZ:    -6.1579     YZ:    -5.8311

  Mulliken Charges: (a.u.)
   Center  Symbol    Alpha    Beta     Spin     Total
       1     H     0.26732  0.26732  0.00000  0.46536
       2     O     4.38308  4.38308  0.00000 -0.76616
       3     C     2.80601  2.80601  0.00000  0.38799
       4     C     3.11955  3.11955  0.00000 -0.23909
       5     C     3.11022  3.11022  0.00000 -0.22045
       6     H     0.38983  0.38983  0.00000  0.22034
       7     C     3.09929  3.09929  0.00000 -0.19857
       8     H     0.37463  0.37463  0.00000  0.25074
       9     C     2.99588  2.99588  0.00000  0.00824
      10     H     0.38975  0.38975  0.00000  0.22051
      11     C     3.09367  3.09367  0.00000 -0.18735
      12     C     2.86564  2.86564  0.00000  0.26872
      13     H     0.38023  0.38023  0.00000  0.23953
      14     N     3.72491  3.72491  0.00000 -0.44983

   Total alpha = 31.00000, Total beta = 31.00000, Total charge = -0.00000


*** PSI4 exiting successfully. Buy a developer a beer!
