    -----------------------------------------------------------------------
          Psi4: An Open-Source Ab Initio Electronic Structure Package
                              Psi4 (no tag) Driver

                          Git: Rev {detached?}  

    J. M. Turney, A. C. Simmonett, R. M. Parrish, E. G. Hohenstein,
    F. A. Evangelista, J. T. Fermann, B. J. Mintz, L. A. Burns, J. J. Wilke,
    M. L. Abrams, N. J. Russ, M. L. Leininger, C. L. Janssen, E. T. Seidl,
    W. D. Allen, H. F. Schaefer, R. A. King, E. F. Valeev, C. D. Sherrill,
    and T. D. Crawford, WIREs Comput. Mol. Sci. 2, 556-565 (2012)
    (doi: 10.1002/wcms.93)

                         Additional Contributions by
    A. E. DePrince, M. Saitow, U. Bozkaya, A. Yu. Sokolov
    -----------------------------------------------------------------------


    Psi4 started on: Tue Jul  5 17:01:01 2016

    Process ID:   2472
    PSI4DATADIR: /export131/home/mjharvey/miniconda3/share
    Memory level set to 256.000 MB

  ==> Input File <==

--------------------------------------------------------------------------
set {
	reference rhf
	basis 6-31G*
}


set_num_threads( 1 )
memory 2 gb

molecule MOL {
0 1

H	 2.817334	 -0.814023	 2.890092
O	 2.014182	 -0.893155	 2.395533
C	 1.231231	 0.258349	 2.578886
C	 -0.045548	 0.097161	 1.772908
H	 0.992260	 0.395335	 3.632658
H	 1.770860	 1.145098	 2.249013
C	 0.198102	 0.111031	 0.262842
H	 -0.727637	 0.896526	 2.049492
H	 -0.520612	 -0.834452	 2.067678
C	 1.331804	 -0.827780	 -0.158768
H	 -0.720372	 -0.164095	 -0.249880
H	 0.436822	 1.124355	 -0.057635
C	 2.723619	 -0.410569	 0.329459
H	 1.342964	 -0.912588	 -1.244120
H	 1.116806	 -1.824343	 0.220779
C	 2.758656	 0.913210	 1.095433
H	 3.380680	 -0.331205	 -0.533131
H	 3.137469	 -1.200223	 0.953429
H	 2.338918	 1.719654	 0.500027
H	 2.198823	 0.861163	 2.023363
H	 3.779050	 1.185981	 1.346722

	symmetry c1
}
set optking {
	frozen_dihedral = ("
		2 3 4 8,
		8 4 7 10,
		4 7 10 14,
		1 2 3 5
	")
}

ee = energy('scf')
oeprop('DIPOLE', 'QUADRUPOLE', 'MULLIKEN_CHARGES')
f=open( 'psi4out.xyz', 'w' )
f.write( "21  " )
f.write( str(ee) + "\n" )
f.write( MOL.save_string_xyz() )
f.close()
--------------------------------------------------------------------------

  Memory set to   2.000 GiB by Python script.

*** tstart() called on cx1-3-2-3.cx1.hpc.ic.ac.uk
*** at Tue Jul  5 17:01:01 2016


         ---------------------------------------------------------
                                   SCF
            by Justin Turney, Rob Parrish, and Andy Simmonett
                              RHF Reference
                        1 Threads,   2000 MiB Core
         ---------------------------------------------------------

  ==> Geometry <==

    Molecular point group: c1
    Full point group: C1

    Geometry (in Angstrom), charge = 0, multiplicity = 1:

       Center              X                  Y                   Z               Mass       
    ------------   -----------------  -----------------  -----------------  -----------------
           H          1.327669326357    -0.703036945546     1.667246675473     1.007825032070
           O          0.524517326357    -0.782168945546     1.172687675473    15.994914619560
           C         -0.258433673643     0.369335054454     1.356040675473    12.000000000000
           C         -1.535212673643     0.208147054454     0.550062675473    12.000000000000
           H         -0.497404673643     0.506321054454     2.409812675473     1.007825032070
           H          0.281195326357     1.256084054454     1.026167675473     1.007825032070
           C         -1.291562673643     0.222017054454    -0.960003324527    12.000000000000
           H         -2.217301673643     1.007512054454     0.826646675473     1.007825032070
           H         -2.010276673643    -0.723465945546     0.844832675473     1.007825032070
           C         -0.157860673643    -0.716793945546    -1.381613324527    12.000000000000
           H         -2.210036673643    -0.053108945546    -1.472725324527     1.007825032070
           H         -1.052842673643     1.235341054454    -1.280480324527     1.007825032070
           C          1.233954326357    -0.299582945546    -0.893386324527    12.000000000000
           H         -0.146700673643    -0.801601945546    -2.466965324527     1.007825032070
           H         -0.372858673643    -1.713356945546    -1.002066324527     1.007825032070
           C          1.268991326357     1.024196054454    -0.127412324527    12.000000000000
           H          1.891015326357    -0.220218945546    -1.755976324527     1.007825032070
           H          1.647804326357    -1.089236945546    -0.269416324527     1.007825032070
           H          0.849253326357     1.830640054454    -0.722818324527     1.007825032070
           H          0.709158326357     0.972149054454     0.800517675473     1.007825032070
           H          2.289385326357     1.296967054454     0.123876675473     1.007825032070

  Running in c1 symmetry.

  Rotational constants: A =      0.10223  B =      0.09854  C =      0.07013 [cm^-1]
  Rotational constants: A =   3064.79033  B =   2954.16127  C =   2102.46815 [MHz]
  Nuclear repulsion =  366.461001247784566

  Charge       = 0
  Multiplicity = 1
  Electrons    = 58
  Nalpha       = 29
  Nbeta        = 29

  ==> Algorithm <==

  SCF Algorithm Type is DF.
  DIIS enabled.
  MOM disabled.
  Fractional occupation disabled.
  Guess Type is CORE.
  Energy threshold   = 1.00e-06
  Density threshold  = 1.00e-06
  Integral threshold = 0.00e+00

  ==> Primary Basis <==

  Basis Set: 6-31G*
    Number of shells: 70
    Number of basis function: 133
    Number of Cartesian functions: 133
    Spherical Harmonics?: false
    Max angular momentum: 2

  ==> Pre-Iterations <==

   -------------------------------------------------------
    Irrep   Nso     Nmo     Nalpha   Nbeta   Ndocc  Nsocc
   -------------------------------------------------------
     A        133     133       0       0       0       0
   -------------------------------------------------------
    Total     133     133      29      29      29       0
   -------------------------------------------------------

 OEINTS: Overlap, kinetic, potential, dipole, and quadrupole integrals
         stored in file 35.

  ==> Integral Setup <==

  ==> DFJK: Density-Fitted J/K Matrices <==

    J tasked:                  Yes
    K tasked:                  Yes
    wK tasked:                  No
    OpenMP threads:              1
    Integrals threads:           1
    Memory (MB):              1430
    Algorithm:                Core
    Integral Cache:           NONE
    Schwarz Cutoff:          1E-12
    Fitting Condition:       1E-12

   => Auxiliary Basis Set <=

  Basis Set: 
    Number of shells: 294
    Number of basis function: 917
    Number of Cartesian functions: 917
    Spherical Harmonics?: false
    Max angular momentum: 3

  Minimum eigenvalue in the overlap matrix is 2.4529465846E-03.
  Using Symmetric Orthogonalization.
  SCF Guess: Core (One-Electron) Hamiltonian.

  ==> Iterations <==

                           Total Energy        Delta E     RMS |[F,P]|

   @DF-RHF iter   1:  -247.46331517675856   -2.47463e+02   6.65782e-02 
   @DF-RHF iter   2:  -242.23480306875240    5.22851e+00   5.16553e-02 DIIS
   @DF-RHF iter   3:  -282.23993960743508   -4.00051e+01   4.75855e-02 DIIS
   @DF-RHF iter   4:  -307.15060702091080   -2.49107e+01   1.71297e-02 DIIS
   @DF-RHF iter   5:  -309.41851759698943   -2.26791e+00   6.33377e-03 DIIS
   @DF-RHF iter   6:  -309.74819183712600   -3.29674e-01   2.21842e-03 DIIS
   @DF-RHF iter   7:  -309.79554154233176   -4.73497e-02   7.62984e-04 DIIS
   @DF-RHF iter   8:  -309.80139286317865   -5.85132e-03   1.94428e-04 DIIS
   @DF-RHF iter   9:  -309.80199180049499   -5.98937e-04   6.02754e-05 DIIS
   @DF-RHF iter  10:  -309.80205652398411   -6.47235e-05   1.84668e-05 DIIS
   @DF-RHF iter  11:  -309.80206368942390   -7.16544e-06   6.01998e-06 DIIS
   @DF-RHF iter  12:  -309.80206450183516   -8.12411e-07   1.74881e-06 DIIS
   @DF-RHF iter  13:  -309.80206458814985   -8.63147e-08   5.23505e-07 DIIS

  ==> Post-Iterations <==

    Orbital Energies (a.u.)
    -----------------------

    Doubly Occupied:                                                      

       1A    -20.568781     2A    -11.264911     3A    -11.221947  
       4A    -11.210343     5A    -11.195867     6A    -11.185991  
       7A    -11.143866     8A     -1.403580     9A     -1.134397  
      10A     -1.049841    11A     -1.015315    12A     -0.877609  
      13A     -0.862538    14A     -0.748268    15A     -0.728518  
      16A     -0.717539    17A     -0.633200    18A     -0.604578  
      19A     -0.585371    20A     -0.562371    21A     -0.542188  
      22A     -0.540819    23A     -0.499860    24A     -0.490685  
      25A     -0.452016    26A     -0.441826    27A     -0.434944  
      28A     -0.422935    29A     -0.300140  

    Virtual:                                                              

      30A      0.215359    31A      0.242402    32A      0.263006  
      33A      0.280143    34A      0.294400    35A      0.309102  
      36A      0.314081    37A      0.327710    38A      0.332632  
      39A      0.338181    40A      0.364663    41A      0.372967  
      42A      0.384000    43A      0.399629    44A      0.412098  
      45A      0.449689    46A      0.464153    47A      0.469249  
      48A      0.513317    49A      0.542777    50A      0.679012  
      51A      0.760484    52A      0.766406    53A      0.774855  
      54A      0.792904    55A      0.827451    56A      0.844502  
      57A      0.893301    58A      0.898914    59A      0.924653  
      60A      0.945238    61A      0.949141    62A      0.992967  
      63A      1.010559    64A      1.038982    65A      1.049790  
      66A      1.123645    67A      1.142575    68A      1.162233  
      69A      1.163376    70A      1.176477    71A      1.177519  
      72A      1.200372    73A      1.206554    74A      1.214064  
      75A      1.239032    76A      1.251026    77A      1.258304  
      78A      1.278834    79A      1.279197    80A      1.299366  
      81A      1.310949    82A      1.393319    83A      1.430462  
      84A      1.500919    85A      1.536311    86A      1.604435  
      87A      1.681962    88A      1.728953    89A      1.774709  
      90A      1.811182    91A      1.865364    92A      1.919422  
      93A      1.962535    94A      1.995415    95A      2.062522  
      96A      2.097578    97A      2.147375    98A      2.189726  
      99A      2.200039   100A      2.256115   101A      2.268520  
     102A      2.318485   103A      2.327579   104A      2.361139  
     105A      2.402105   106A      2.432261   107A      2.472926  
     108A      2.511201   109A      2.551020   110A      2.604991  
     111A      2.627910   112A      2.647006   113A      2.702351  
     114A      2.732944   115A      2.768790   116A      2.774546  
     117A      2.816702   118A      2.862652   119A      2.917648  
     120A      2.942770   121A      2.951428   122A      3.031555  
     123A      3.074167   124A      3.125472   125A      3.151623  
     126A      3.263739   127A      4.372187   128A      4.615180  
     129A      4.698863   130A      4.843016   131A      4.888983  
     132A      5.018822   133A      5.104592  

    Final Occupation by Irrep:
              A 
    DOCC [    29 ]

  Energy converged.

  @DF-RHF Final Energy:  -309.80206458814985

   => Energetics <=

    Nuclear Repulsion Energy =            366.4610012477845657
    One-Electron Energy =               -1146.8454777555805322
    Two-Electron Energy =                 470.5824119196446418
    DFT Exchange-Correlation Energy =       0.0000000000000000
    Empirical Dispersion Energy =           0.0000000000000000
    PCM Polarization Energy =               0.0000000000000000
    EFP Energy =                            0.0000000000000000
    Total Energy =                       -309.8020645881513246

    Alert: EFP and PCM quantities not currently incorporated into SCF psivars.

Properties will be evaluated at   0.000000,   0.000000,   0.000000 Bohr
  ==> Properties <==


Properties computed using the SCF density matrix

  Nuclear Dipole Moment: (a.u.)
     X:     0.4601      Y:     2.6221      Z:    -1.1862

  Electronic Dipole Moment: (a.u.)
     X:    -0.5606      Y:    -2.2475      Z:     1.9075

  Dipole Moment: (a.u.)
     X:    -0.1005      Y:     0.3746      Z:     0.7213     Total:     0.8189

  Dipole Moment: (Debye)
     X:    -0.2555      Y:     0.9521      Z:     1.8333     Total:     2.0815


  Saving occupied orbitals to File 180.

*** tstop() called on cx1-3-2-3.cx1.hpc.ic.ac.uk at Tue Jul  5 17:01:15 2016
Module time:
	user time   =      12.91 seconds =       0.22 minutes
	system time =       0.07 seconds =       0.00 minutes
	total time  =         14 seconds =       0.23 minutes
Total time:
	user time   =      12.91 seconds =       0.22 minutes
	system time =       0.07 seconds =       0.00 minutes
	total time  =         14 seconds =       0.23 minutes


Properties will be evaluated at   0.000000,   0.000000,   0.000000 Bohr

Properties computed using the  density matrix

  Nuclear Dipole Moment: (a.u.)
     X:     0.4601      Y:     2.6221      Z:    -1.1862

  Electronic Dipole Moment: (a.u.)
     X:    -0.5606      Y:    -2.2475      Z:     1.9075

  Dipole Moment: (a.u.)
     X:    -0.1005      Y:     0.3746      Z:     0.7213     Total:     0.8189

  Dipole Moment: (Debye)
     X:    -0.2555      Y:     0.9521      Z:     1.8333     Total:     2.0815

  Quadrupole Moment: (Debye Ang)
    XX:   -46.5941     YY:   -48.0078     ZZ:   -45.2419
    XY:    -1.4553     XZ:     3.7434     YZ:     1.5022

  Traceless Quadrupole Moment: (Debye Ang)
    XX:     0.0205     YY:    -1.3932     ZZ:     1.3727
    XY:    -1.4553     XZ:     3.7434     YZ:     1.5022

  Mulliken Charges: (a.u.)
   Center  Symbol    Alpha    Beta     Spin     Total
       1     H     0.27629  0.27629  0.00000  0.44741
       2     O     4.36436  4.36436  0.00000 -0.72873
       3     C     3.03910  3.03910  0.00000 -0.07820
       4     C     3.15149  3.15149  0.00000 -0.30298
       5     H     0.42248  0.42248  0.00000  0.15503
       6     H     0.37428  0.37428  0.00000  0.25144
       7     C     3.16920  3.16920  0.00000 -0.33840
       8     H     0.41846  0.41846  0.00000  0.16308
       9     H     0.40747  0.40747  0.00000  0.18506
      10     C     3.14975  3.14975  0.00000 -0.29951
      11     H     0.41771  0.41771  0.00000  0.16457
      12     H     0.42117  0.42117  0.00000  0.15766
      13     C     3.12744  3.12744  0.00000 -0.25487
      14     H     0.42254  0.42254  0.00000  0.15492
      15     H     0.41816  0.41816  0.00000  0.16368
      16     C     3.31220  3.31220  0.00000 -0.62441
      17     H     0.43278  0.43278  0.00000  0.13444
      18     H     0.41723  0.41723  0.00000  0.16554
      19     H     0.42927  0.42927  0.00000  0.14147
      20     H     0.39605  0.39605  0.00000  0.20789
      21     H     0.43255  0.43255  0.00000  0.13491

   Total alpha = 29.00000, Total beta = 29.00000, Total charge =  0.00000


*** PSI4 exiting successfully. Buy a developer a beer!
