    -----------------------------------------------------------------------
          Psi4: An Open-Source Ab Initio Electronic Structure Package
                              Psi4 (no tag) Driver

                          Git: Rev {detached?}  

    J. M. Turney, A. C. Simmonett, R. M. Parrish, E. G. Hohenstein,
    F. A. Evangelista, J. T. Fermann, B. J. Mintz, L. A. Burns, J. J. Wilke,
    M. L. Abrams, N. J. Russ, M. L. Leininger, C. L. Janssen, E. T. Seidl,
    W. D. Allen, H. F. Schaefer, R. A. King, E. F. Valeev, C. D. Sherrill,
    and T. D. Crawford, WIREs Comput. Mol. Sci. 2, 556-565 (2012)
    (doi: 10.1002/wcms.93)

                         Additional Contributions by
    A. E. DePrince, M. Saitow, U. Bozkaya, A. Yu. Sokolov
    -----------------------------------------------------------------------


    Psi4 started on: Tue Jul  5 16:26:27 2016

    Process ID:  27806
    PSI4DATADIR: /export131/home/mjharvey/miniconda3/share
    Memory level set to 256.000 MB

  ==> Input File <==

--------------------------------------------------------------------------
set {
	reference rhf
	basis 6-31G*
}


set_num_threads( 1 )
memory 2 gb

molecule MOL {
0 1

H	 0.011768	 -0.304121	 -0.669204
N	 -0.626943	 -0.667432	 -0.000092
C	 -1.979713	 -0.158776	 0.000050
C	 -0.186146	 -1.614273	 0.863247
H	 -2.520245	 -0.492427	 -0.879443
H	 -1.934741	 0.918111	 -0.004428
H	 -2.517790	 -0.485056	 0.883818
C	 1.268585	 -2.000298	 0.685125
O	 -0.882313	 -2.112532	 1.704262
H	 1.913316	 -1.138508	 0.826523
H	 1.520445	 -2.757715	 1.412161
H	 1.442516	 -2.388987	 -0.313376

	symmetry c1
}
set optking {
	frozen_dihedral = ("
		3 2 4 9
	")
}

ee = energy('scf')
oeprop('DIPOLE', 'QUADRUPOLE', 'MULLIKEN_CHARGES')
f=open( 'psi4out.xyz', 'w' )
f.write( "12  " )
f.write( str(ee) + "\n" )
f.write( MOL.save_string_xyz() )
f.close()
--------------------------------------------------------------------------

  Memory set to   2.000 GiB by Python script.

*** tstart() called on cx1-3-2-3.cx1.hpc.ic.ac.uk
*** at Tue Jul  5 16:26:28 2016


         ---------------------------------------------------------
                                   SCF
            by Justin Turney, Rob Parrish, and Andy Simmonett
                              RHF Reference
                        1 Threads,   2000 MiB Core
         ---------------------------------------------------------

  ==> Geometry <==

    Molecular point group: c1
    Full point group: C1

    Geometry (in Angstrom), charge = 0, multiplicity = 1:

       Center              X                  Y                   Z               Mass       
    ------------   -----------------  -----------------  -----------------  -----------------
           H          0.501276959434     0.997907245930    -1.314014381622     1.007825032070
           N         -0.137434040566     0.634596245930    -0.644902381622    14.003074004780
           C         -1.490204040566     1.143252245930    -0.644760381622    12.000000000000
           C          0.303362959434    -0.312244754070     0.218436618378    12.000000000000
           H         -2.030736040566     0.809601245930    -1.524253381622     1.007825032070
           H         -1.445232040566     2.220139245930    -0.649238381622     1.007825032070
           H         -2.028281040566     0.816972245930     0.239007618378     1.007825032070
           C          1.758093959434    -0.698269754070     0.040314618378    12.000000000000
           O         -0.392804040566    -0.810503754070     1.059451618378    15.994914619560
           H          2.402824959434     0.163520245930     0.181712618378     1.007825032070
           H          2.009953959434    -1.455686754070     0.767350618378     1.007825032070
           H          1.932024959434    -1.086958754070    -0.958186381622     1.007825032070

  Running in c1 symmetry.

  Rotational constants: A =      0.33847  B =      0.12949  C =      0.09702 [cm^-1]
  Rotational constants: A =  10147.19086  B =   3882.05572  C =   2908.55293 [MHz]
  Nuclear repulsion =  181.200743624150590

  Charge       = 0
  Multiplicity = 1
  Electrons    = 40
  Nalpha       = 20
  Nbeta        = 20

  ==> Algorithm <==

  SCF Algorithm Type is DF.
  DIIS enabled.
  MOM disabled.
  Fractional occupation disabled.
  Guess Type is CORE.
  Energy threshold   = 1.00e-06
  Density threshold  = 1.00e-06
  Integral threshold = 0.00e+00

  ==> Primary Basis <==

  Basis Set: 6-31G*
    Number of shells: 44
    Number of basis function: 89
    Number of Cartesian functions: 89
    Spherical Harmonics?: false
    Max angular momentum: 2

  ==> Pre-Iterations <==

   -------------------------------------------------------
    Irrep   Nso     Nmo     Nalpha   Nbeta   Ndocc  Nsocc
   -------------------------------------------------------
     A         89      89       0       0       0       0
   -------------------------------------------------------
    Total      89      89      20      20      20       0
   -------------------------------------------------------

 OEINTS: Overlap, kinetic, potential, dipole, and quadrupole integrals
         stored in file 35.

  ==> Integral Setup <==

  ==> DFJK: Density-Fitted J/K Matrices <==

    J tasked:                  Yes
    K tasked:                  Yes
    wK tasked:                  No
    OpenMP threads:              1
    Integrals threads:           1
    Memory (MB):              1430
    Algorithm:                Core
    Integral Cache:           NONE
    Schwarz Cutoff:          1E-12
    Fitting Condition:       1E-12

   => Auxiliary Basis Set <=

  Basis Set: 
    Number of shells: 183
    Number of basis function: 580
    Number of Cartesian functions: 580
    Spherical Harmonics?: false
    Max angular momentum: 3

  Minimum eigenvalue in the overlap matrix is 3.6881408563E-03.
  Using Symmetric Orthogonalization.
  SCF Guess: Core (One-Electron) Hamiltonian.

  ==> Iterations <==

                           Total Energy        Delta E     RMS |[F,P]|

   @DF-RHF iter   1:  -191.12655923589151   -1.91127e+02   8.58748e-02 
   @DF-RHF iter   2:  -192.81804720687771   -1.69149e+00   6.00808e-02 DIIS
   @DF-RHF iter   3:  -220.51531172673319   -2.76973e+01   6.65767e-02 DIIS
   @DF-RHF iter   4:  -241.89144533595024   -2.13761e+01   3.13839e-02 DIIS
   @DF-RHF iter   5:  -245.72071895598444   -3.82927e+00   1.63105e-02 DIIS
   @DF-RHF iter   6:  -246.79326528659820   -1.07255e+00   6.35781e-03 DIIS
   @DF-RHF iter   7:  -246.98008534912773   -1.86820e-01   2.06618e-03 DIIS
   @DF-RHF iter   8:  -247.00241556829954   -2.23302e-02   6.01272e-04 DIIS
   @DF-RHF iter   9:  -247.00435042247906   -1.93485e-03   2.66019e-04 DIIS
   @DF-RHF iter  10:  -247.00488518062983   -5.34758e-04   1.02639e-04 DIIS
   @DF-RHF iter  11:  -247.00497409986568   -8.89192e-05   3.81459e-05 DIIS
   @DF-RHF iter  12:  -247.00499177415546   -1.76743e-05   1.44016e-05 DIIS
   @DF-RHF iter  13:  -247.00499382357535   -2.04942e-06   2.88432e-06 DIIS
   @DF-RHF iter  14:  -247.00499390569891   -8.21236e-08   7.01593e-07 DIIS

  ==> Post-Iterations <==

    Orbital Energies (a.u.)
    -----------------------

    Doubly Occupied:                                                      

       1A    -20.515166     2A    -15.580985     3A    -11.342356  
       4A    -11.254436     5A    -11.229218     6A     -1.383282  
       7A     -1.227963     8A     -1.015453     9A     -0.931959  
      10A     -0.785815    11A     -0.688320    12A     -0.647866  
      13A     -0.632810    14A     -0.586503    15A     -0.578609  
      16A     -0.556004    17A     -0.543217    18A     -0.506954  
      19A     -0.412139    20A     -0.383585  

    Virtual:                                                              

      21A      0.212060    22A      0.219198    23A      0.267341  
      24A      0.282253    25A      0.313749    26A      0.319815  
      27A      0.325769    28A      0.344940    29A      0.373059  
      30A      0.427809    31A      0.499532    32A      0.579511  
      33A      0.722945    34A      0.729900    35A      0.753590  
      36A      0.764505    37A      0.818494    38A      0.829777  
      39A      0.905198    40A      0.949091    41A      0.984866  
      42A      1.004489    43A      1.031341    44A      1.082366  
      45A      1.117064    46A      1.142733    47A      1.157877  
      48A      1.185639    49A      1.199086    50A      1.211263  
      51A      1.228187    52A      1.242214    53A      1.318491  
      54A      1.351131    55A      1.410393    56A      1.590356  
      57A      1.618912    58A      1.662634    59A      1.680931  
      60A      1.692645    61A      1.824691    62A      1.923194  
      63A      2.048696    64A      2.114426    65A      2.138110  
      66A      2.173061    67A      2.214145    68A      2.238669  
      69A      2.318783    70A      2.396432    71A      2.418484  
      72A      2.534670    73A      2.554433    74A      2.601063  
      75A      2.653297    76A      2.695906    77A      2.753814  
      78A      2.791652    79A      2.894808    80A      3.022771  
      81A      3.042339    82A      3.283090    83A      3.376312  
      84A      3.554847    85A      4.369799    86A      4.477370  
      87A      4.629162    88A      4.688881    89A      4.907604  

    Final Occupation by Irrep:
              A 
    DOCC [    20 ]

  Energy converged.

  @DF-RHF Final Energy:  -247.00499390569891

   => Energetics <=

    Nuclear Repulsion Energy =            181.2007436241505900
    One-Electron Energy =                -694.8060155268709650
    Two-Electron Energy =                 266.6002779970217489
    DFT Exchange-Correlation Energy =       0.0000000000000000
    Empirical Dispersion Energy =           0.0000000000000000
    PCM Polarization Energy =               0.0000000000000000
    EFP Energy =                            0.0000000000000000
    Total Energy =                       -247.0049939056985977

    Alert: EFP and PCM quantities not currently incorporated into SCF psivars.

Properties will be evaluated at   0.000000,   0.000000,   0.000000 Bohr
  ==> Properties <==


Properties computed using the SCF density matrix

  Nuclear Dipole Moment: (a.u.)
     X:     1.2564      Y:     2.3056      Z:    -3.0470

  Electronic Dipole Moment: (a.u.)
     X:    -0.6207      Y:    -1.4780      Z:     1.8894

  Dipole Moment: (a.u.)
     X:     0.6358      Y:     0.8276      Z:    -1.1575     Total:     1.5585

  Dipole Moment: (Debye)
     X:     1.6159      Y:     2.1035      Z:    -2.9421     Total:     3.9613


  Saving occupied orbitals to File 180.

*** tstop() called on cx1-3-2-3.cx1.hpc.ic.ac.uk at Tue Jul  5 16:26:32 2016
Module time:
	user time   =       3.80 seconds =       0.06 minutes
	system time =       0.03 seconds =       0.00 minutes
	total time  =          4 seconds =       0.07 minutes
Total time:
	user time   =       3.80 seconds =       0.06 minutes
	system time =       0.03 seconds =       0.00 minutes
	total time  =          4 seconds =       0.07 minutes


Properties will be evaluated at   0.000000,   0.000000,   0.000000 Bohr

Properties computed using the  density matrix

  Nuclear Dipole Moment: (a.u.)
     X:     1.2564      Y:     2.3056      Z:    -3.0470

  Electronic Dipole Moment: (a.u.)
     X:    -0.6207      Y:    -1.4780      Z:     1.8894

  Dipole Moment: (a.u.)
     X:     0.6358      Y:     0.8276      Z:    -1.1575     Total:     1.5585

  Dipole Moment: (Debye)
     X:     1.6159      Y:     2.1035      Z:    -2.9421     Total:     3.9613

  Quadrupole Moment: (Debye Ang)
    XX:   -27.7579     YY:   -30.8269     ZZ:   -32.2057
    XY:    -2.1632     XZ:     0.8915     YZ:     0.7098

  Traceless Quadrupole Moment: (Debye Ang)
    XX:     2.5056     YY:    -0.5634     ZZ:    -1.9422
    XY:    -2.1632     XZ:     0.8915     YZ:     0.7098

  Mulliken Charges: (a.u.)
   Center  Symbol    Alpha    Beta     Spin     Total
       1     H     0.31052  0.31052  0.00000  0.37896
       2     N     3.89175  3.89175  0.00000 -0.78349
       3     C     3.14098  3.14098  0.00000 -0.28197
       4     C     2.63069  2.63069  0.00000  0.73863
       5     H     0.41605  0.41605  0.00000  0.16789
       6     H     0.41695  0.41695  0.00000  0.16611
       7     H     0.38704  0.38704  0.00000  0.22591
       8     C     3.29561  3.29561  0.00000 -0.59121
       9     O     4.30231  4.30231  0.00000 -0.60462
      10     H     0.40807  0.40807  0.00000  0.18385
      11     H     0.39190  0.39190  0.00000  0.21620
      12     H     0.40814  0.40814  0.00000  0.18372

   Total alpha = 20.00000, Total beta = 20.00000, Total charge = -0.00000


*** PSI4 exiting successfully. Buy a developer a beer!
