    -----------------------------------------------------------------------
          Psi4: An Open-Source Ab Initio Electronic Structure Package
                              Psi4 (no tag) Driver

                          Git: Rev {detached?}  

    J. M. Turney, A. C. Simmonett, R. M. Parrish, E. G. Hohenstein,
    F. A. Evangelista, J. T. Fermann, B. J. Mintz, L. A. Burns, J. J. Wilke,
    M. L. Abrams, N. J. Russ, M. L. Leininger, C. L. Janssen, E. T. Seidl,
    W. D. Allen, H. F. Schaefer, R. A. King, E. F. Valeev, C. D. Sherrill,
    and T. D. Crawford, WIREs Comput. Mol. Sci. 2, 556-565 (2012)
    (doi: 10.1002/wcms.93)

                         Additional Contributions by
    A. E. DePrince, M. Saitow, U. Bozkaya, A. Yu. Sokolov
    -----------------------------------------------------------------------


    Psi4 started on: Tue Jul  5 16:38:00 2016

    Process ID:  18295
    PSI4DATADIR: /export131/home/mjharvey/miniconda3/share
    Memory level set to 256.000 MB

  ==> Input File <==

--------------------------------------------------------------------------
set {
	reference rhf
	basis 6-31G*
}


set_num_threads( 1 )
memory 2 gb

molecule MOL {
0 1

O	 -0.682937	 1.318834	 -0.186099
C	 -0.860635	 0.152188	 -0.042321
C	 -2.173363	 -0.477127	 0.338347
O	 0.083258	 -0.765189	 -0.202595
H	 -2.477673	 -1.180929	 -0.427595
H	 -2.923125	 0.290956	 0.455536
H	 -2.058825	 -1.029004	 1.264191
C	 -0.105693	 -2.044651	 0.397464
C	 -0.085398	 -1.957291	 1.912259
H	 0.651234	 -2.722623	 0.033380
H	 -1.072224	 -2.370913	 0.041274
H	 -0.306914	 -2.930636	 2.339178
H	 0.888129	 -1.643767	 2.267667
H	 -0.831811	 -1.253213	 2.263765

	symmetry c1
}
set optking {
	frozen_dihedral = ("
		10 8 4 2
	")
}

ee = energy('scf')
oeprop('DIPOLE', 'QUADRUPOLE', 'MULLIKEN_CHARGES')
f=open( 'psi4out.xyz', 'w' )
f.write( "14  " )
f.write( str(ee) + "\n" )
f.write( MOL.save_string_xyz() )
f.close()
--------------------------------------------------------------------------

  Memory set to   2.000 GiB by Python script.

*** tstart() called on cx1-1-2-4.cx1.hpc.ic.ac.uk
*** at Tue Jul  5 16:38:01 2016


         ---------------------------------------------------------
                                   SCF
            by Justin Turney, Rob Parrish, and Andy Simmonett
                              RHF Reference
                        1 Threads,   2000 MiB Core
         ---------------------------------------------------------

  ==> Geometry <==

    Molecular point group: c1
    Full point group: C1

    Geometry (in Angstrom), charge = 0, multiplicity = 1:

       Center              X                  Y                   Z               Mass       
    ------------   -----------------  -----------------  -----------------  -----------------
           O         -0.041413322586     1.954905840805    -0.564892802008    15.994914619560
           C         -0.219111322586     0.788259840805    -0.421114802008    12.000000000000
           C         -1.531839322586     0.158944840805    -0.040446802008    12.000000000000
           O          0.724781677414    -0.129117159195    -0.581388802008    15.994914619560
           H         -1.836149322586    -0.544857159195    -0.806388802008     1.007825032070
           H         -2.281601322586     0.927027840805     0.076742197992     1.007825032070
           H         -1.417301322586    -0.392932159195     0.885397197992     1.007825032070
           C          0.535830677414    -1.408579159195     0.018670197992    12.000000000000
           C          0.556125677414    -1.321219159195     1.533465197992    12.000000000000
           H          1.292757677414    -2.086551159195    -0.345413802008     1.007825032070
           H         -0.430700322586    -1.734841159195    -0.337519802008     1.007825032070
           H          0.334609677414    -2.294564159195     1.960384197992     1.007825032070
           H          1.529652677414    -1.007695159195     1.888873197992     1.007825032070
           H         -0.190287322586    -0.617141159195     1.884971197992     1.007825032070

  Running in c1 symmetry.

  Rotational constants: A =      0.21648  B =      0.08832  C =      0.07806 [cm^-1]
  Rotational constants: A =   6489.80472  B =   2647.81331  C =   2340.13811 [MHz]
  Nuclear repulsion =  253.580094193237926

  Charge       = 0
  Multiplicity = 1
  Electrons    = 48
  Nalpha       = 24
  Nbeta        = 24

  ==> Algorithm <==

  SCF Algorithm Type is DF.
  DIIS enabled.
  MOM disabled.
  Fractional occupation disabled.
  Guess Type is CORE.
  Energy threshold   = 1.00e-06
  Density threshold  = 1.00e-06
  Integral threshold = 0.00e+00

  ==> Primary Basis <==

  Basis Set: 6-31G*
    Number of shells: 52
    Number of basis function: 106
    Number of Cartesian functions: 106
    Spherical Harmonics?: false
    Max angular momentum: 2

  ==> Pre-Iterations <==

   -------------------------------------------------------
    Irrep   Nso     Nmo     Nalpha   Nbeta   Ndocc  Nsocc
   -------------------------------------------------------
     A        106     106       0       0       0       0
   -------------------------------------------------------
    Total     106     106      24      24      24       0
   -------------------------------------------------------

 OEINTS: Overlap, kinetic, potential, dipole, and quadrupole integrals
         stored in file 35.

  ==> Integral Setup <==

  ==> DFJK: Density-Fitted J/K Matrices <==

    J tasked:                  Yes
    K tasked:                  Yes
    wK tasked:                  No
    OpenMP threads:              1
    Integrals threads:           1
    Memory (MB):              1430
    Algorithm:                Core
    Integral Cache:           NONE
    Schwarz Cutoff:          1E-12
    Fitting Condition:       1E-12

   => Auxiliary Basis Set <=

  Basis Set: 
    Number of shells: 216
    Number of basis function: 686
    Number of Cartesian functions: 686
    Spherical Harmonics?: false
    Max angular momentum: 3

  Minimum eigenvalue in the overlap matrix is 3.5574207700E-03.
  Using Symmetric Orthogonalization.
  SCF Guess: Core (One-Electron) Hamiltonian.

  ==> Iterations <==

                           Total Energy        Delta E     RMS |[F,P]|

   @DF-RHF iter   1:  -238.93037855310797   -2.38930e+02   8.17040e-02 
   @DF-RHF iter   2:  -203.58678727961205    3.53436e+01   6.91143e-02 DIIS
   @DF-RHF iter   3:  -274.48444627160080   -7.08977e+01   4.90478e-02 DIIS
   @DF-RHF iter   4:  -287.07954927844929   -1.25951e+01   4.36440e-02 DIIS
   @DF-RHF iter   5:  -300.90868464229226   -1.38291e+01   2.76168e-02 DIIS
   @DF-RHF iter   6:  -304.64891890699658   -3.74023e+00   1.26536e-02 DIIS
   @DF-RHF iter   7:  -305.64482373283187   -9.95905e-01   4.73016e-03 DIIS
   @DF-RHF iter   8:  -305.81113356816508   -1.66310e-01   1.97238e-03 DIIS
   @DF-RHF iter   9:  -305.83248273786052   -2.13492e-02   6.53274e-04 DIIS
   @DF-RHF iter  10:  -305.83706511382212   -4.58238e-03   2.44544e-04 DIIS
   @DF-RHF iter  11:  -305.83774596964514   -6.80856e-04   1.02388e-04 DIIS
   @DF-RHF iter  12:  -305.83784189348745   -9.59238e-05   3.27515e-05 DIIS
   @DF-RHF iter  13:  -305.83785603206849   -1.41386e-05   1.73043e-05 DIIS
   @DF-RHF iter  14:  -305.83785848236204   -2.45029e-06   3.29257e-06 DIIS
   @DF-RHF iter  15:  -305.83785865658655   -1.74225e-07   7.64242e-07 DIIS

  ==> Post-Iterations <==

    Orbital Energies (a.u.)
    -----------------------

    Doubly Occupied:                                                      

       1A    -20.602296     2A    -20.544492     3A    -11.377680  
       4A    -11.303314     5A    -11.237358     6A    -11.236022  
       7A     -1.466019     8A     -1.368643     9A     -1.056691  
      10A     -1.024792    11A     -0.903399    12A     -0.769889  
      13A     -0.705448    14A     -0.700475    15A     -0.670005  
      16A     -0.633972    17A     -0.598684    18A     -0.578366  
      19A     -0.557686    20A     -0.547196    21A     -0.521725  
      22A     -0.504536    23A     -0.447225    24A     -0.434152  

    Virtual:                                                              

      25A      0.189869    26A      0.221937    27A      0.256538  
      28A      0.264568    29A      0.290608    30A      0.305537  
      31A      0.320631    32A      0.338144    33A      0.355995  
      34A      0.370578    35A      0.406251    36A      0.426585  
      37A      0.491062    38A      0.571957    39A      0.692686  
      40A      0.709165    41A      0.733892    42A      0.780525  
      43A      0.789784    44A      0.805356    45A      0.834116  
      46A      0.890593    47A      0.905267    48A      0.922982  
      49A      0.976316    50A      1.010929    51A      1.090430  
      52A      1.112916    53A      1.116963    54A      1.145074  
      55A      1.155269    56A      1.174543    57A      1.181652  
      58A      1.231812    59A      1.238374    60A      1.263533  
      61A      1.295597    62A      1.322481    63A      1.357727  
      64A      1.389012    65A      1.412572    66A      1.479559  
      67A      1.593177    68A      1.669636    69A      1.685136  
      70A      1.723432    71A      1.828757    72A      1.868695  
      73A      1.926823    74A      2.029805    75A      2.049389  
      76A      2.097684    77A      2.106530    78A      2.136220  
      79A      2.182852    80A      2.245077    81A      2.273864  
      82A      2.331587    83A      2.345010    84A      2.398838  
      85A      2.462403    86A      2.523877    87A      2.559748  
      88A      2.600722    89A      2.648472    90A      2.680075  
      91A      2.728829    92A      2.761754    93A      2.836759  
      94A      2.964808    95A      3.050293    96A      3.082882  
      97A      3.159638    98A      3.282513    99A      3.407065  
     100A      3.563660   101A      4.391515   102A      4.555722  
     103A      4.643920   104A      4.679320   105A      4.858809  
     106A      4.913065  

    Final Occupation by Irrep:
              A 
    DOCC [    24 ]

  Energy converged.

  @DF-RHF Final Energy:  -305.83785865658655

   => Energetics <=

    Nuclear Repulsion Energy =            253.5800941932379260
    One-Electron Energy =                -919.2557015772808882
    Two-Electron Energy =                 359.8377487274568125
    DFT Exchange-Correlation Energy =       0.0000000000000000
    Empirical Dispersion Energy =           0.0000000000000000
    PCM Polarization Energy =               0.0000000000000000
    EFP Energy =                            0.0000000000000000
    Total Energy =                       -305.8378586565860928

    Alert: EFP and PCM quantities not currently incorporated into SCF psivars.

Properties will be evaluated at   0.000000,   0.000000,   0.000000 Bohr
  ==> Properties <==


Properties computed using the SCF density matrix

  Nuclear Dipole Moment: (a.u.)
     X:    -2.8082      Y:    -7.2581      Z:     4.8759

  Electronic Dipole Moment: (a.u.)
     X:     2.2248      Y:     5.5135      Z:    -4.2451

  Dipole Moment: (a.u.)
     X:    -0.5834      Y:    -1.7446      Z:     0.6308     Total:     1.9447

  Dipole Moment: (Debye)
     X:    -1.4828      Y:    -4.4343      Z:     1.6033     Total:     4.9429


  Saving occupied orbitals to File 180.

*** tstop() called on cx1-1-2-4.cx1.hpc.ic.ac.uk at Tue Jul  5 16:38:07 2016
Module time:
	user time   =       6.25 seconds =       0.10 minutes
	system time =       0.03 seconds =       0.00 minutes
	total time  =          6 seconds =       0.10 minutes
Total time:
	user time   =       6.25 seconds =       0.10 minutes
	system time =       0.03 seconds =       0.00 minutes
	total time  =          6 seconds =       0.10 minutes


Properties will be evaluated at   0.000000,   0.000000,   0.000000 Bohr

Properties computed using the  density matrix

  Nuclear Dipole Moment: (a.u.)
     X:    -2.8082      Y:    -7.2581      Z:     4.8759

  Electronic Dipole Moment: (a.u.)
     X:     2.2248      Y:     5.5135      Z:    -4.2451

  Dipole Moment: (a.u.)
     X:    -0.5834      Y:    -1.7446      Z:     0.6308     Total:     1.9447

  Dipole Moment: (Debye)
     X:    -1.4828      Y:    -4.4343      Z:     1.6033     Total:     4.9429

  Quadrupole Moment: (Debye Ang)
    XX:   -35.9675     YY:   -41.2515     ZZ:   -36.7118
    XY:    -1.6918     XZ:     1.4776     YZ:     1.7147

  Traceless Quadrupole Moment: (Debye Ang)
    XX:     2.0094     YY:    -3.2746     ZZ:     1.2651
    XY:    -1.6918     XZ:     1.4776     YZ:     1.7147

  Mulliken Charges: (a.u.)
   Center  Symbol    Alpha    Beta     Spin     Total
       1     O     4.26901  4.26901  0.00000 -0.53801
       2     C     2.60742  2.60742  0.00000  0.78515
       3     C     3.32159  3.32159  0.00000 -0.64317
       4     O     4.30167  4.30167  0.00000 -0.60334
       5     H     0.39827  0.39827  0.00000  0.20346
       6     H     0.38930  0.38930  0.00000  0.22139
       7     H     0.40331  0.40331  0.00000  0.19338
       8     C     3.01496  3.01496  0.00000 -0.02993
       9     C     3.25956  3.25956  0.00000 -0.51913
      10     H     0.39548  0.39548  0.00000  0.20905
      11     H     0.41376  0.41376  0.00000  0.17247
      12     H     0.41254  0.41254  0.00000  0.17491
      13     H     0.40145  0.40145  0.00000  0.19709
      14     H     0.41166  0.41166  0.00000  0.17668

   Total alpha = 24.00000, Total beta = 24.00000, Total charge =  0.00000


*** PSI4 exiting successfully. Buy a developer a beer!
