    -----------------------------------------------------------------------
          Psi4: An Open-Source Ab Initio Electronic Structure Package
                              Psi4 (no tag) Driver

                          Git: Rev {detached?}  

    J. M. Turney, A. C. Simmonett, R. M. Parrish, E. G. Hohenstein,
    F. A. Evangelista, J. T. Fermann, B. J. Mintz, L. A. Burns, J. J. Wilke,
    M. L. Abrams, N. J. Russ, M. L. Leininger, C. L. Janssen, E. T. Seidl,
    W. D. Allen, H. F. Schaefer, R. A. King, E. F. Valeev, C. D. Sherrill,
    and T. D. Crawford, WIREs Comput. Mol. Sci. 2, 556-565 (2012)
    (doi: 10.1002/wcms.93)

                         Additional Contributions by
    A. E. DePrince, M. Saitow, U. Bozkaya, A. Yu. Sokolov
    -----------------------------------------------------------------------


    Psi4 started on: Tue Jul  5 16:36:28 2016

    Process ID:  28489
    PSI4DATADIR: /export131/home/mjharvey/miniconda3/share
    Memory level set to 256.000 MB

  ==> Input File <==

--------------------------------------------------------------------------
set {
	reference rhf
	basis 6-31G*
}


set_num_threads( 1 )
memory 2 gb

molecule MOL {
0 1

H	 -3.161837	 0.500524	 -0.000234
C	 -2.367097	 -0.232926	 -0.000000
O	 -1.158440	 0.455814	 -0.000122
H	 -2.468853	 -0.861886	 -0.882833
H	 -2.468942	 -0.861421	 0.883154
C	 -1.201254	 1.690764	 0.648678
C	 0.173873	 2.331254	 0.574778
H	 -1.501766	 1.558110	 1.688868
H	 -1.945125	 2.335861	 0.179195
C	 0.221408	 3.694448	 1.263490
H	 0.892785	 1.656411	 1.029106
H	 0.452561	 2.428798	 -0.469979
H	 -0.030970	 3.615233	 2.317270
H	 1.213313	 4.128388	 1.195188
H	 -0.474921	 4.393029	 0.807953

	symmetry c1
}
set optking {
	frozen_dihedral = ("
		11 7 6 8,
		8 6 3 2
	")
}

ee = energy('scf')
oeprop('DIPOLE', 'QUADRUPOLE', 'MULLIKEN_CHARGES')
f=open( 'psi4out.xyz', 'w' )
f.write( "15  " )
f.write( str(ee) + "\n" )
f.write( MOL.save_string_xyz() )
f.close()
--------------------------------------------------------------------------

  Memory set to   2.000 GiB by Python script.

*** tstart() called on cx1-3-16-3.cx1.hpc.ic.ac.uk
*** at Tue Jul  5 16:36:28 2016


         ---------------------------------------------------------
                                   SCF
            by Justin Turney, Rob Parrish, and Andy Simmonett
                              RHF Reference
                        1 Threads,   2000 MiB Core
         ---------------------------------------------------------

  ==> Geometry <==

    Molecular point group: c1
    Full point group: C1

    Geometry (in Angstrom), charge = 0, multiplicity = 1:

       Center              X                  Y                   Z               Mass       
    ------------   -----------------  -----------------  -----------------  -----------------
           H         -2.268476592319    -1.067305210548    -0.494905579444     1.007825032070
           C         -1.473736592319    -1.800755210548    -0.494671579444    12.000000000000
           O         -0.265079592319    -1.112015210548    -0.494793579444    15.994914619560
           H         -1.575492592319    -2.429715210548    -1.377504579444     1.007825032070
           H         -1.575581592319    -2.429250210548     0.388482420556     1.007825032070
           C         -0.307893592319     0.122934789452     0.154006420556    12.000000000000
           C          1.067233407681     0.763424789452     0.080106420556    12.000000000000
           H         -0.608405592319    -0.009719210548     1.194196420556     1.007825032070
           H         -1.051764592319     0.768031789452    -0.315476579444     1.007825032070
           C          1.114768407681     2.126618789452     0.768818420556    12.000000000000
           H          1.786145407681     0.088581789452     0.534434420556     1.007825032070
           H          1.345921407681     0.860968789452    -0.964650579444     1.007825032070
           H          0.862390407681     2.047403789452     1.822598420556     1.007825032070
           H          2.106673407681     2.560558789452     0.700516420556     1.007825032070
           H          0.418439407681     2.825199789452     0.313281420556     1.007825032070

  Running in c1 symmetry.

  Rotational constants: A =      0.69122  B =      0.07096  C =      0.06755 [cm^-1]
  Rotational constants: A =  20722.33374  B =   2127.28219  C =   2025.17931 [MHz]
  Nuclear repulsion =  189.809583764746378

  Charge       = 0
  Multiplicity = 1
  Electrons    = 42
  Nalpha       = 21
  Nbeta        = 21

  ==> Algorithm <==

  SCF Algorithm Type is DF.
  DIIS enabled.
  MOM disabled.
  Fractional occupation disabled.
  Guess Type is CORE.
  Energy threshold   = 1.00e-06
  Density threshold  = 1.00e-06
  Integral threshold = 0.00e+00

  ==> Primary Basis <==

  Basis Set: 6-31G*
    Number of shells: 50
    Number of basis function: 95
    Number of Cartesian functions: 95
    Spherical Harmonics?: false
    Max angular momentum: 2

  ==> Pre-Iterations <==

   -------------------------------------------------------
    Irrep   Nso     Nmo     Nalpha   Nbeta   Ndocc  Nsocc
   -------------------------------------------------------
     A         95      95       0       0       0       0
   -------------------------------------------------------
    Total      95      95      21      21      21       0
   -------------------------------------------------------

 OEINTS: Overlap, kinetic, potential, dipole, and quadrupole integrals
         stored in file 35.

  ==> Integral Setup <==

  ==> DFJK: Density-Fitted J/K Matrices <==

    J tasked:                  Yes
    K tasked:                  Yes
    wK tasked:                  No
    OpenMP threads:              1
    Integrals threads:           1
    Memory (MB):              1430
    Algorithm:                Core
    Integral Cache:           NONE
    Schwarz Cutoff:          1E-12
    Fitting Condition:       1E-12

   => Auxiliary Basis Set <=

  Basis Set: 
    Number of shells: 210
    Number of basis function: 655
    Number of Cartesian functions: 655
    Spherical Harmonics?: false
    Max angular momentum: 3

  Minimum eigenvalue in the overlap matrix is 4.1007145428E-03.
  Using Symmetric Orthogonalization.
  SCF Guess: Core (One-Electron) Hamiltonian.

  ==> Iterations <==

                           Total Energy        Delta E     RMS |[F,P]|

   @DF-RHF iter   1:  -182.07647537095465   -1.82076e+02   8.10336e-02 
   @DF-RHF iter   2:  -139.99852167558930    4.20780e+01   6.54102e-02 DIIS
   @DF-RHF iter   3:  -192.00384092108243   -5.20053e+01   5.97634e-02 DIIS
   @DF-RHF iter   4:  -216.74326585481487   -2.47394e+01   4.50558e-02 DIIS
   @DF-RHF iter   5:  -231.78882249266860   -1.50456e+01   8.73793e-03 DIIS
   @DF-RHF iter   6:  -232.08850328627807   -2.99681e-01   3.47116e-03 DIIS
   @DF-RHF iter   7:  -232.12884871931624   -4.03454e-02   1.13553e-03 DIIS
   @DF-RHF iter   8:  -232.13472783846066   -5.87912e-03   5.37686e-04 DIIS
   @DF-RHF iter   9:  -232.13617141927648   -1.44358e-03   1.49128e-04 DIIS
   @DF-RHF iter  10:  -232.13633684068628   -1.65421e-04   3.15111e-05 DIIS
   @DF-RHF iter  11:  -232.13634739118254   -1.05505e-05   8.40650e-06 DIIS
   @DF-RHF iter  12:  -232.13634814621366   -7.55031e-07   1.93230e-06 DIIS
   @DF-RHF iter  13:  -232.13634817616690   -2.99532e-08   4.81626e-07 DIIS

  ==> Post-Iterations <==

    Orbital Energies (a.u.)
    -----------------------

    Doubly Occupied:                                                      

       1A    -20.551212     2A    -11.267133     3A    -11.263833  
       4A    -11.214336     5A    -11.213050     6A     -1.377675  
       7A     -1.057206     8A     -0.954401     9A     -0.878254  
      10A     -0.809883    11A     -0.674102    12A     -0.651028  
      13A     -0.633767    14A     -0.607740    15A     -0.564868  
      16A     -0.543163    17A     -0.502517    18A     -0.488416  
      19A     -0.478445    20A     -0.461375    21A     -0.411142  

    Virtual:                                                              

      22A      0.234421    23A      0.247907    24A      0.289883  
      25A      0.295895    26A      0.306276    27A      0.325021  
      28A      0.328982    29A      0.335847    30A      0.349612  
      31A      0.354237    32A      0.370261    33A      0.416063  
      34A      0.441326    35A      0.471305    36A      0.725374  
      37A      0.729719    38A      0.747961    39A      0.767888  
      40A      0.781236    41A      0.815039    42A      0.832669  
      43A      0.854268    44A      0.932917    45A      0.977651  
      46A      1.017230    47A      1.056165    48A      1.116123  
      49A      1.135082    50A      1.136269    51A      1.153801  
      52A      1.176711    53A      1.182920    54A      1.190843  
      55A      1.219915    56A      1.235536    57A      1.241781  
      58A      1.259967    59A      1.307578    60A      1.399225  
      61A      1.430060    62A      1.615562    63A      1.657754  
      64A      1.680576    65A      1.713135    66A      1.779992  
      67A      1.817312    68A      1.884735    69A      2.030273  
      70A      2.140282    71A      2.157095    72A      2.275605  
      73A      2.290486    74A      2.300086    75A      2.345473  
      76A      2.431608    77A      2.475076    78A      2.497826  
      79A      2.515738    80A      2.574241    81A      2.627217  
      82A      2.677173    83A      2.693179    84A      2.770850  
      85A      2.872064    86A      2.881399    87A      2.924895  
      88A      3.040280    89A      3.227408    90A      3.362357  
      91A      4.409085    92A      4.594622    93A      4.664911  
      94A      4.747583    95A      4.927012  

    Final Occupation by Irrep:
              A 
    DOCC [    21 ]

  Energy converged.

  @DF-RHF Final Energy:  -232.13634817616690

   => Energetics <=

    Nuclear Repulsion Energy =            189.8095837647463782
    One-Electron Energy =                -690.6847875997417532
    Two-Electron Energy =                 268.7388556588281290
    DFT Exchange-Correlation Energy =       0.0000000000000000
    Empirical Dispersion Energy =           0.0000000000000000
    PCM Polarization Energy =               0.0000000000000000
    EFP Energy =                            0.0000000000000000
    Total Energy =                       -232.1363481761672460

    Alert: EFP and PCM quantities not currently incorporated into SCF psivars.

Properties will be evaluated at   0.000000,   0.000000,   0.000000 Bohr
  ==> Properties <==


Properties computed using the SCF density matrix

  Nuclear Dipole Moment: (a.u.)
     X:    -0.5264      Y:     3.0084      Z:     1.6860

  Electronic Dipole Moment: (a.u.)
     X:     0.1007      Y:    -2.7972      Z:    -1.4737

  Dipole Moment: (a.u.)
     X:    -0.4257      Y:     0.2112      Z:     0.2123     Total:     0.5205

  Dipole Moment: (Debye)
     X:    -1.0821      Y:     0.5367      Z:     0.5397     Total:     1.3230


  Saving occupied orbitals to File 180.

*** tstop() called on cx1-3-16-3.cx1.hpc.ic.ac.uk at Tue Jul  5 16:36:34 2016
Module time:
	user time   =       4.90 seconds =       0.08 minutes
	system time =       0.04 seconds =       0.00 minutes
	total time  =          6 seconds =       0.10 minutes
Total time:
	user time   =       4.90 seconds =       0.08 minutes
	system time =       0.04 seconds =       0.00 minutes
	total time  =          6 seconds =       0.10 minutes


Properties will be evaluated at   0.000000,   0.000000,   0.000000 Bohr

Properties computed using the  density matrix

  Nuclear Dipole Moment: (a.u.)
     X:    -0.5264      Y:     3.0084      Z:     1.6860

  Electronic Dipole Moment: (a.u.)
     X:     0.1007      Y:    -2.7972      Z:    -1.4737

  Dipole Moment: (a.u.)
     X:    -0.4257      Y:     0.2112      Z:     0.2123     Total:     0.5205

  Dipole Moment: (Debye)
     X:    -1.0821      Y:     0.5367      Z:     0.5397     Total:     1.3230

  Quadrupole Moment: (Debye Ang)
    XX:   -31.3676     YY:   -32.9251     ZZ:   -33.4981
    XY:     2.3438     XZ:     0.7747     YZ:    -0.4551

  Traceless Quadrupole Moment: (Debye Ang)
    XX:     1.2294     YY:    -0.3282     ZZ:    -0.9012
    XY:     2.3438     XZ:     0.7747     YZ:    -0.4551

  Mulliken Charges: (a.u.)
   Center  Symbol    Alpha    Beta     Spin     Total
       1     H     0.43179  0.43179  0.00000  0.13641
       2     C     3.07628  3.07628  0.00000 -0.15256
       3     O     4.30748  4.30748  0.00000 -0.61496
       4     H     0.41534  0.41534  0.00000  0.16931
       5     H     0.42716  0.42716  0.00000  0.14568
       6     C     2.98291  2.98291  0.00000  0.03417
       7     C     3.15981  3.15981  0.00000 -0.31962
       8     H     0.43330  0.43330  0.00000  0.13340
       9     H     0.43250  0.43250  0.00000  0.13500
      10     C     3.24799  3.24799  0.00000 -0.49597
      11     H     0.41411  0.41411  0.00000  0.17177
      12     H     0.41426  0.41426  0.00000  0.17147
      13     H     0.42078  0.42078  0.00000  0.15845
      14     H     0.41532  0.41532  0.00000  0.16937
      15     H     0.42095  0.42095  0.00000  0.15809

   Total alpha = 21.00000, Total beta = 21.00000, Total charge =  0.00000


*** PSI4 exiting successfully. Buy a developer a beer!
