    -----------------------------------------------------------------------
          Psi4: An Open-Source Ab Initio Electronic Structure Package
                              Psi4 (no tag) Driver

                          Git: Rev {detached?}  

    J. M. Turney, A. C. Simmonett, R. M. Parrish, E. G. Hohenstein,
    F. A. Evangelista, J. T. Fermann, B. J. Mintz, L. A. Burns, J. J. Wilke,
    M. L. Abrams, N. J. Russ, M. L. Leininger, C. L. Janssen, E. T. Seidl,
    W. D. Allen, H. F. Schaefer, R. A. King, E. F. Valeev, C. D. Sherrill,
    and T. D. Crawford, WIREs Comput. Mol. Sci. 2, 556-565 (2012)
    (doi: 10.1002/wcms.93)

                         Additional Contributions by
    A. E. DePrince, M. Saitow, U. Bozkaya, A. Yu. Sokolov
    -----------------------------------------------------------------------


    Psi4 started on: Tue Jul  5 17:24:57 2016

    Process ID:  18779
    PSI4DATADIR: /export131/home/mjharvey/miniconda3/share
    Memory level set to 256.000 MB

  ==> Input File <==

--------------------------------------------------------------------------
set {
	reference rhf
	basis 6-31G*
}


set_num_threads( 1 )
memory 2 gb

molecule MOL {
0 1

H	 -1.503588	 -2.381554	 -0.932539
O	 -1.230036	 -1.594498	 -0.471596
C	 0.102382	 -1.563045	 -0.462125
C	 0.624473	 -0.343591	 0.253101
O	 0.757650	 -2.414645	 -0.968501
C	 -0.265902	 0.883932	 0.072916
H	 0.740303	 -0.614115	 1.297502
H	 1.628992	 -0.158063	 -0.118751
C	 -1.728698	 0.646073	 0.462102
H	 -0.209144	 1.219470	 -0.958188
H	 0.135059	 1.692851	 0.673903
C	 -1.933463	 -0.055758	 1.807637
H	 -2.191054	 0.043809	 -0.316529
H	 -2.262759	 1.595242	 0.465784
C	 -1.105121	 0.571202	 2.928908
H	 -2.987870	 -0.018849	 2.073919
H	 -1.675047	 -1.108293	 1.725337
H	 -1.265435	 0.056496	 3.871082
H	 -1.367390	 1.615363	 3.073030
H	 -0.043259	 0.525961	 2.703877

	symmetry c1
}
set optking {
	frozen_dihedral = ("
		16 12 9 6,
		7 4 6 10,
		12 9 6 10,
		1 2 3 5
	")
}

ee = energy('scf')
oeprop('DIPOLE', 'QUADRUPOLE', 'MULLIKEN_CHARGES')
f=open( 'psi4out.xyz', 'w' )
f.write( "20  " )
f.write( str(ee) + "\n" )
f.write( MOL.save_string_xyz() )
f.close()
--------------------------------------------------------------------------

  Memory set to   2.000 GiB by Python script.

*** tstart() called on cx1-1-1-2.cx1.hpc.ic.ac.uk
*** at Tue Jul  5 17:24:57 2016


         ---------------------------------------------------------
                                   SCF
            by Justin Turney, Rob Parrish, and Andy Simmonett
                              RHF Reference
                        1 Threads,   2000 MiB Core
         ---------------------------------------------------------

  ==> Geometry <==

    Molecular point group: c1
    Full point group: C1

    Geometry (in Angstrom), charge = 0, multiplicity = 1:

       Center              X                  Y                   Z               Mass       
    ------------   -----------------  -----------------  -----------------  -----------------
           H         -0.897826980385    -1.864922500397    -1.375157114818     1.007825032070
           O         -0.624274980385    -1.077866500397    -0.914214114818    15.994914619560
           C          0.708143019615    -1.046413500397    -0.904743114818    12.000000000000
           C          1.230234019615     0.173040499603    -0.189517114818    12.000000000000
           O          1.363411019615    -1.898013500397    -1.411119114818    15.994914619560
           C          0.339859019615     1.400563499603    -0.369702114818    12.000000000000
           H          1.346064019615    -0.097483500397     0.854883885182     1.007825032070
           H          2.234753019615     0.358568499603    -0.561369114818     1.007825032070
           C         -1.122936980385     1.162704499603     0.019483885182    12.000000000000
           H          0.396617019615     1.736101499603    -1.400806114818     1.007825032070
           H          0.740820019615     2.209482499603     0.231284885182     1.007825032070
           C         -1.327701980385     0.460873499603     1.365018885182    12.000000000000
           H         -1.585292980385     0.560440499603    -0.759147114818     1.007825032070
           H         -1.656997980385     2.111873499603     0.023165885182     1.007825032070
           C         -0.499359980385     1.087833499603     2.486289885182    12.000000000000
           H         -2.382108980385     0.497782499603     1.631300885182     1.007825032070
           H         -1.069285980385    -0.591661500397     1.282718885182     1.007825032070
           H         -0.659673980385     0.573127499603     3.428463885182     1.007825032070
           H         -0.761628980385     2.131994499603     2.630411885182     1.007825032070
           H          0.562502019615     1.042592499603     2.261258885182     1.007825032070

  Running in c1 symmetry.

  Rotational constants: A =      0.11908  B =      0.04213  C =      0.04040 [cm^-1]
  Rotational constants: A =   3570.07428  B =   1263.12246  C =   1211.04870 [MHz]
  Nuclear repulsion =  407.475898447429302

  Charge       = 0
  Multiplicity = 1
  Electrons    = 64
  Nalpha       = 32
  Nbeta        = 32

  ==> Algorithm <==

  SCF Algorithm Type is DF.
  DIIS enabled.
  MOM disabled.
  Fractional occupation disabled.
  Guess Type is CORE.
  Energy threshold   = 1.00e-06
  Density threshold  = 1.00e-06
  Integral threshold = 0.00e+00

  ==> Primary Basis <==

  Basis Set: 6-31G*
    Number of shells: 72
    Number of basis function: 144
    Number of Cartesian functions: 144
    Spherical Harmonics?: false
    Max angular momentum: 2

  ==> Pre-Iterations <==

   -------------------------------------------------------
    Irrep   Nso     Nmo     Nalpha   Nbeta   Ndocc  Nsocc
   -------------------------------------------------------
     A        144     144       0       0       0       0
   -------------------------------------------------------
    Total     144     144      32      32      32       0
   -------------------------------------------------------

 OEINTS: Overlap, kinetic, potential, dipole, and quadrupole integrals
         stored in file 35.

  ==> Integral Setup <==

  ==> DFJK: Density-Fitted J/K Matrices <==

    J tasked:                  Yes
    K tasked:                  Yes
    wK tasked:                  No
    OpenMP threads:              1
    Integrals threads:           1
    Memory (MB):              1430
    Algorithm:                Core
    Integral Cache:           NONE
    Schwarz Cutoff:          1E-12
    Fitting Condition:       1E-12

   => Auxiliary Basis Set <=

  Basis Set: 
    Number of shells: 300
    Number of basis function: 948
    Number of Cartesian functions: 948
    Spherical Harmonics?: false
    Max angular momentum: 3

  Minimum eigenvalue in the overlap matrix is 3.1751446037E-03.
  Using Symmetric Orthogonalization.
  SCF Guess: Core (One-Electron) Hamiltonian.

  ==> Iterations <==

                           Total Energy        Delta E     RMS |[F,P]|

   @DF-RHF iter   1:  -298.98727034207553   -2.98987e+02   6.57087e-02 
   @DF-RHF iter   2:  -149.52409919983296    1.49463e+02   8.19416e-02 DIIS
   @DF-RHF iter   3:  -345.93339389584963   -1.96409e+02   3.23034e-02 DIIS
   @DF-RHF iter   4:  -227.89483098136628    1.18039e+02   8.04644e-02 DIIS
   @DF-RHF iter   5:  -293.05751546116966   -6.51627e+01   6.72324e-02 DIIS
   @DF-RHF iter   6:  -316.39649657084095   -2.33390e+01   5.89183e-02 DIIS
   @DF-RHF iter   7:  -332.54277951778744   -1.61463e+01   5.29060e-02 DIIS
   @DF-RHF iter   8:  -347.07478057946884   -1.45320e+01   4.49052e-02 DIIS
   @DF-RHF iter   9:  -355.16086990629543   -8.08609e+00   3.98567e-02 DIIS
   @DF-RHF iter  10:  -366.61600882507236   -1.14551e+01   3.31531e-02 DIIS
   @DF-RHF iter  11:  -375.07682541555818   -8.46082e+00   2.10013e-02 DIIS
   @DF-RHF iter  12:  -383.28940673046799   -8.21258e+00   7.23564e-03 DIIS
   @DF-RHF iter  13:  -383.78405201176878   -4.94645e-01   3.75382e-03 DIIS
   @DF-RHF iter  14:  -383.89561709598951   -1.11565e-01   1.26656e-03 DIIS
   @DF-RHF iter  15:  -383.91538546218379   -1.97684e-02   5.35269e-04 DIIS
   @DF-RHF iter  16:  -383.91945629443052   -4.07083e-03   1.28070e-04 DIIS
   @DF-RHF iter  17:  -383.91968628517333   -2.29991e-04   5.71113e-05 DIIS
   @DF-RHF iter  18:  -383.91973581604014   -4.95309e-05   1.59833e-05 DIIS
   @DF-RHF iter  19:  -383.91973917826311   -3.36222e-06   4.22190e-06 DIIS
   @DF-RHF iter  20:  -383.91973950477842   -3.26515e-07   1.15558e-06 DIIS
   @DF-RHF iter  21:  -383.91973953411690   -2.93385e-08   3.43533e-07 DIIS

  ==> Post-Iterations <==

    Orbital Energies (a.u.)
    -----------------------

    Doubly Occupied:                                                      

       1A    -20.614366     2A    -20.551922     3A    -11.383145  
       4A    -11.240409     5A    -11.227225     6A    -11.211313  
       7A    -11.208554     8A    -11.204642     9A     -1.480108  
      10A     -1.369183    11A     -1.100216    12A     -1.032966  
      13A     -0.953886    14A     -0.879101    15A     -0.826318  
      16A     -0.769637    17A     -0.717032    18A     -0.687631  
      19A     -0.655046    20A     -0.628396    21A     -0.610497  
      22A     -0.594428    23A     -0.572094    24A     -0.563350  
      25A     -0.529705    26A     -0.521407    27A     -0.500299  
      28A     -0.484681    29A     -0.457534    30A     -0.453911  
      31A     -0.445221    32A     -0.438081  

    Virtual:                                                              

      33A      0.188154    34A      0.217041    35A      0.245641  
      36A      0.265210    37A      0.281858    38A      0.290770  
      39A      0.294741    40A      0.329744    41A      0.334965  
      42A      0.339188    43A      0.358882    44A      0.373267  
      45A      0.374967    46A      0.393187    47A      0.407527  
      48A      0.424640    49A      0.434835    50A      0.498309  
      51A      0.505415    52A      0.580734    53A      0.709606  
      54A      0.716890    55A      0.739598    56A      0.751209  
      57A      0.765077    58A      0.782649    59A      0.830289  
      60A      0.850240    61A      0.888369    62A      0.905033  
      63A      0.927415    64A      0.939205    65A      0.965174  
      66A      0.984627    67A      1.009948    68A      1.033046  
      69A      1.069665    70A      1.091965    71A      1.122670  
      72A      1.135183    73A      1.146028    74A      1.164363  
      75A      1.170098    76A      1.185024    77A      1.193587  
      78A      1.221702    79A      1.229371    80A      1.237784  
      81A      1.246179    82A      1.248178    83A      1.271276  
      84A      1.297185    85A      1.305532    86A      1.322272  
      87A      1.355578    88A      1.376263    89A      1.432528  
      90A      1.576864    91A      1.625475    92A      1.652003  
      93A      1.681396    94A      1.703369    95A      1.780256  
      96A      1.800009    97A      1.813643    98A      1.893884  
      99A      1.921201   100A      1.964488   101A      2.022903  
     102A      2.062833   103A      2.078725   104A      2.109567  
     105A      2.114997   106A      2.124908   107A      2.166003  
     108A      2.211861   109A      2.239356   110A      2.289355  
     111A      2.311099   112A      2.335204   113A      2.358120  
     114A      2.380421   115A      2.426324   116A      2.448002  
     117A      2.493911   118A      2.584256   119A      2.624300  
     120A      2.673159   121A      2.688550   122A      2.711608  
     123A      2.727267   124A      2.757810   125A      2.775250  
     126A      2.849320   127A      2.865938   128A      2.922206  
     129A      2.978049   130A      3.022681   131A      3.039807  
     132A      3.098512   133A      3.149892   134A      3.256909  
     135A      3.393995   136A      3.492482   137A      4.343505  
     138A      4.510830   139A      4.618196   140A      4.692216  
     141A      4.794726   142A      4.869371   143A      4.944811  
     144A      5.060873  

    Final Occupation by Irrep:
              A 
    DOCC [    32 ]

  Energy converged.

  @DF-RHF Final Energy:  -383.91973953411690

   => Energetics <=

    Nuclear Repulsion Energy =            407.4758984474293015
    One-Electron Energy =               -1330.9666007516188984
    Two-Electron Energy =                 539.5709627700729243
    DFT Exchange-Correlation Energy =       0.0000000000000000
    Empirical Dispersion Energy =           0.0000000000000000
    PCM Polarization Energy =               0.0000000000000000
    EFP Energy =                            0.0000000000000000
    Total Energy =                       -383.9197395341167294

    Alert: EFP and PCM quantities not currently incorporated into SCF psivars.

Properties will be evaluated at   0.000000,   0.000000,   0.000000 Bohr
  ==> Properties <==


Properties computed using the SCF density matrix

  Nuclear Dipole Moment: (a.u.)
     X:    -3.4951      Y:     8.1116      Z:     7.7201

  Electronic Dipole Moment: (a.u.)
     X:     2.9787      Y:    -7.7096      Z:    -7.5142

  Dipole Moment: (a.u.)
     X:    -0.5164      Y:     0.4020      Z:     0.2059     Total:     0.6860

  Dipole Moment: (Debye)
     X:    -1.3126      Y:     1.0217      Z:     0.5234     Total:     1.7438


  Saving occupied orbitals to File 180.

*** tstop() called on cx1-1-1-2.cx1.hpc.ic.ac.uk at Tue Jul  5 17:25:16 2016
Module time:
	user time   =      18.34 seconds =       0.31 minutes
	system time =       0.16 seconds =       0.00 minutes
	total time  =         19 seconds =       0.32 minutes
Total time:
	user time   =      18.34 seconds =       0.31 minutes
	system time =       0.16 seconds =       0.00 minutes
	total time  =         19 seconds =       0.32 minutes


Properties will be evaluated at   0.000000,   0.000000,   0.000000 Bohr

Properties computed using the  density matrix

  Nuclear Dipole Moment: (a.u.)
     X:    -3.4951      Y:     8.1116      Z:     7.7201

  Electronic Dipole Moment: (a.u.)
     X:     2.9787      Y:    -7.7096      Z:    -7.5142

  Dipole Moment: (a.u.)
     X:    -0.5164      Y:     0.4020      Z:     0.2059     Total:     0.6860

  Dipole Moment: (Debye)
     X:    -1.3126      Y:     1.0217      Z:     0.5234     Total:     1.7438

  Quadrupole Moment: (Debye Ang)
    XX:   -52.2665     YY:   -52.5026     ZZ:   -51.4324
    XY:     6.7330     XZ:     4.2506     YZ:    -2.2020

  Traceless Quadrupole Moment: (Debye Ang)
    XX:    -0.1993     YY:    -0.4354     ZZ:     0.6347
    XY:     6.7330     XZ:     4.2506     YZ:    -2.2020

  Mulliken Charges: (a.u.)
   Center  Symbol    Alpha    Beta     Spin     Total
       1     H     0.26716  0.26716  0.00000  0.46568
       2     O     4.35301  4.35301  0.00000 -0.70602
       3     C     2.61443  2.61443  0.00000  0.77113
       4     C     3.22054  3.22054  0.00000 -0.44108
       5     O     4.28139  4.28139  0.00000 -0.56277
       6     C     3.16862  3.16862  0.00000 -0.33724
       7     H     0.39517  0.39517  0.00000  0.20966
       8     H     0.39319  0.39319  0.00000  0.21361
       9     C     3.15651  3.15651  0.00000 -0.31303
      10     H     0.41291  0.41291  0.00000  0.17419
      11     H     0.41165  0.41165  0.00000  0.17671
      12     C     3.15849  3.15849  0.00000 -0.31697
      13     H     0.39734  0.39734  0.00000  0.20532
      14     H     0.42444  0.42444  0.00000  0.15112
      15     C     3.24230  3.24230  0.00000 -0.48460
      16     H     0.42005  0.42005  0.00000  0.15990
      17     H     0.41701  0.41701  0.00000  0.16597
      18     H     0.41904  0.41904  0.00000  0.16192
      19     H     0.42136  0.42136  0.00000  0.15729
      20     H     0.42539  0.42539  0.00000  0.14922

   Total alpha = 32.00000, Total beta = 32.00000, Total charge =  0.00000


*** PSI4 exiting successfully. Buy a developer a beer!
