    -----------------------------------------------------------------------
          Psi4: An Open-Source Ab Initio Electronic Structure Package
                              Psi4 (no tag) Driver

                          Git: Rev {detached?}  

    J. M. Turney, A. C. Simmonett, R. M. Parrish, E. G. Hohenstein,
    F. A. Evangelista, J. T. Fermann, B. J. Mintz, L. A. Burns, J. J. Wilke,
    M. L. Abrams, N. J. Russ, M. L. Leininger, C. L. Janssen, E. T. Seidl,
    W. D. Allen, H. F. Schaefer, R. A. King, E. F. Valeev, C. D. Sherrill,
    and T. D. Crawford, WIREs Comput. Mol. Sci. 2, 556-565 (2012)
    (doi: 10.1002/wcms.93)

                         Additional Contributions by
    A. E. DePrince, M. Saitow, U. Bozkaya, A. Yu. Sokolov
    -----------------------------------------------------------------------


    Psi4 started on: Tue Jul  5 17:26:01 2016

    Process ID:  30829
    PSI4DATADIR: /export131/home/mjharvey/miniconda3/share
    Memory level set to 256.000 MB

  ==> Input File <==

--------------------------------------------------------------------------
set {
	reference rhf
	basis 6-31G*
}


set_num_threads( 1 )
memory 2 gb

molecule MOL {
0 1

H	 -3.457960	 0.166880	 1.449720
O	 -3.367910	 -0.300316	 2.267454
C	 -3.043259	 -1.643282	 2.012310
C	 -1.609705	 -1.833855	 1.529264
H	 -3.184960	 -2.163733	 2.950780
H	 -3.740919	 -2.074362	 1.295219
C	 -1.314720	 -1.174099	 0.179978
H	 -0.935821	 -1.437562	 2.284379
H	 -1.414703	 -2.902721	 1.459510
C	 -0.105589	 -1.791439	 -0.528339
H	 -1.143090	 -0.112081	 0.331721
H	 -2.189366	 -1.261562	 -0.464759
C	 -0.091801	 -3.324110	 -0.561054
H	 -0.053409	 -1.409308	 -1.546229
H	 0.799134	 -1.449629	 -0.029997
C	 0.081036	 -3.996319	 0.803768
H	 -1.027515	 -3.664967	 -0.999314
H	 0.696383	 -3.662191	 -1.232101
C	 -0.017270	 -5.521724	 0.733681
H	 -0.677692	 -3.619498	 1.488202
H	 1.041810	 -3.725932	 1.235169
C	 0.161300	 -6.195586	 2.093713
H	 -0.982364	 -5.801392	 0.316710
H	 0.733743	 -5.899297	 0.042809
H	 -0.595671	 -5.863027	 2.798428
H	 0.084438	 -7.275368	 2.011268
H	 1.133147	 -5.965237	 2.521285

	symmetry c1
}
set optking {
	frozen_dihedral = ("
		14 10 7 4,
		14 10 13 16,
		8 4 3 2,
		10 13 16 20,
		20 16 19 22,
		4 3 2 1
	")
}

ee = energy('scf')
oeprop('DIPOLE', 'QUADRUPOLE', 'MULLIKEN_CHARGES')
f=open( 'psi4out.xyz', 'w' )
f.write( "27  " )
f.write( str(ee) + "\n" )
f.write( MOL.save_string_xyz() )
f.close()
--------------------------------------------------------------------------

  Memory set to   2.000 GiB by Python script.

*** tstart() called on cx1-3-4-2.cx1.hpc.ic.ac.uk
*** at Tue Jul  5 17:26:02 2016


         ---------------------------------------------------------
                                   SCF
            by Justin Turney, Rob Parrish, and Andy Simmonett
                              RHF Reference
                        1 Threads,   2000 MiB Core
         ---------------------------------------------------------

  ==> Geometry <==

    Molecular point group: c1
    Full point group: C1

    Geometry (in Angstrom), charge = 0, multiplicity = 1:

       Center              X                  Y                   Z               Mass       
    ------------   -----------------  -----------------  -----------------  -----------------
           H         -2.380769170945     3.003488996826     0.470243657648     1.007825032070
           O         -2.290719170945     2.536292996826     1.287977657648    15.994914619560
           C         -1.966068170945     1.193326996826     1.032833657648    12.000000000000
           C         -0.532514170945     1.002753996826     0.549787657648    12.000000000000
           H         -2.107769170945     0.672875996826     1.971303657648     1.007825032070
           H         -2.663728170945     0.762246996826     0.315742657648     1.007825032070
           C         -0.237529170945     1.662509996826    -0.799498342352    12.000000000000
           H          0.141369829055     1.399046996826     1.304902657648     1.007825032070
           H         -0.337512170945    -0.066112003174     0.480033657648     1.007825032070
           C          0.971601829055     1.045169996826    -1.507815342352    12.000000000000
           H         -0.065899170945     2.724527996826    -0.647755342352     1.007825032070
           H         -1.112175170945     1.575046996826    -1.444235342352     1.007825032070
           C          0.985389829055    -0.487501003174    -1.540530342352    12.000000000000
           H          1.023781829055     1.427300996826    -2.525705342352     1.007825032070
           H          1.876324829055     1.386979996826    -1.009473342352     1.007825032070
           C          1.158226829055    -1.159710003174    -0.175708342352    12.000000000000
           H          0.049675829055    -0.828358003174    -1.978790342352     1.007825032070
           H          1.773573829055    -0.825582003174    -2.211577342352     1.007825032070
           C          1.059920829055    -2.685115003174    -0.245795342352    12.000000000000
           H          0.399498829055    -0.782889003174     0.508725657648     1.007825032070
           H          2.119000829055    -0.889323003174     0.255692657648     1.007825032070
           C          1.238490829055    -3.358977003174     1.114236657648    12.000000000000
           H          0.094826829055    -2.964783003174    -0.662766342352     1.007825032070
           H          1.810933829055    -3.062688003174    -0.936667342352     1.007825032070
           H          0.481519829055    -3.026418003174     1.818951657648     1.007825032070
           H          1.161628829055    -4.438759003174     1.031791657648     1.007825032070
           H          2.210337829055    -3.128628003174     1.541808657648     1.007825032070

  Running in c1 symmetry.

  Rotational constants: A =      0.07113  B =      0.02426  C =      0.01908 [cm^-1]
  Rotational constants: A =   2132.57185  B =    727.20390  C =    572.12741 [MHz]
  Nuclear repulsion =  481.495668564292259

  Charge       = 0
  Multiplicity = 1
  Electrons    = 74
  Nalpha       = 37
  Nbeta        = 37

  ==> Algorithm <==

  SCF Algorithm Type is DF.
  DIIS enabled.
  MOM disabled.
  Fractional occupation disabled.
  Guess Type is CORE.
  Energy threshold   = 1.00e-06
  Density threshold  = 1.00e-06
  Integral threshold = 0.00e+00

  ==> Primary Basis <==

  Basis Set: 6-31G*
    Number of shells: 90
    Number of basis function: 171
    Number of Cartesian functions: 171
    Spherical Harmonics?: false
    Max angular momentum: 2

  ==> Pre-Iterations <==

   -------------------------------------------------------
    Irrep   Nso     Nmo     Nalpha   Nbeta   Ndocc  Nsocc
   -------------------------------------------------------
     A        171     171       0       0       0       0
   -------------------------------------------------------
    Total     171     171      37      37      37       0
   -------------------------------------------------------

 OEINTS: Overlap, kinetic, potential, dipole, and quadrupole integrals
         stored in file 35.

  ==> Integral Setup <==

  ==> DFJK: Density-Fitted J/K Matrices <==

    J tasked:                  Yes
    K tasked:                  Yes
    wK tasked:                  No
    OpenMP threads:              1
    Integrals threads:           1
    Memory (MB):              1430
    Algorithm:                Core
    Integral Cache:           NONE
    Schwarz Cutoff:          1E-12
    Fitting Condition:       1E-12

   => Auxiliary Basis Set <=

  Basis Set: 
    Number of shells: 378
    Number of basis function: 1179
    Number of Cartesian functions: 1179
    Spherical Harmonics?: false
    Max angular momentum: 3

  Minimum eigenvalue in the overlap matrix is 2.8649551718E-03.
  Using Symmetric Orthogonalization.
  SCF Guess: Core (One-Electron) Hamiltonian.

  ==> Iterations <==

                           Total Energy        Delta E     RMS |[F,P]|

   @DF-RHF iter   1:  -286.18091759674724   -2.86181e+02   6.01509e-02 
   @DF-RHF iter   2:    -0.04572452056220    2.86135e+02   6.57336e-02 DIIS
   @DF-RHF iter   3:  -269.39810454905216   -2.69352e+02   5.17387e-02 DIIS
   @DF-RHF iter   4:  -261.36040769716101    8.03770e+00   6.51395e-02 DIIS
   @DF-RHF iter   5:  -376.00117470303155   -1.14641e+02   1.57636e-02 DIIS
   @DF-RHF iter   6:  -323.11017271975720    5.28910e+01   4.06421e-02 DIIS
   @DF-RHF iter   7:  -387.61972183855323   -6.45095e+01   6.05027e-03 DIIS
   @DF-RHF iter   8:  -388.17580109298979   -5.56079e-01   1.44193e-03 DIIS
   @DF-RHF iter   9:  -388.20297460647248   -2.71735e-02   8.29802e-04 DIIS
   @DF-RHF iter  10:  -388.21534891835165   -1.23743e-02   3.41648e-04 DIIS
   @DF-RHF iter  11:  -388.21767715489955   -2.32824e-03   1.09789e-04 DIIS
   @DF-RHF iter  12:  -388.21799735650745   -3.20202e-04   2.30196e-05 DIIS
   @DF-RHF iter  13:  -388.21801303498091   -1.56785e-05   5.73329e-06 DIIS
   @DF-RHF iter  14:  -388.21801399551805   -9.60537e-07   1.36859e-06 DIIS
   @DF-RHF iter  15:  -388.21801404180371   -4.62857e-08   3.68434e-07 DIIS

  ==> Post-Iterations <==

    Orbital Energies (a.u.)
    -----------------------

    Doubly Occupied:                                                      

       1A    -20.548684     2A    -11.263956     3A    -11.219758  
       4A    -11.218324     5A    -11.217569     6A    -11.215363  
       7A    -11.209815     8A    -11.206465     9A    -11.202586  
      10A     -1.355810    11A     -1.106111    12A     -1.056245  
      13A     -1.008418    14A     -0.958534    15A     -0.891899  
      16A     -0.837308    17A     -0.793295    18A     -0.779951  
      19A     -0.694518    20A     -0.682854    21A     -0.621109  
      22A     -0.616198    23A     -0.606079    24A     -0.579636  
      25A     -0.571621    26A     -0.568656    27A     -0.545354  
      28A     -0.539224    29A     -0.508000    30A     -0.499513  
      31A     -0.485398    32A     -0.473926    33A     -0.464253  
      34A     -0.459477    35A     -0.444282    36A     -0.429892  
      37A     -0.395838  

    Virtual:                                                              

      38A      0.217959    39A      0.228129    40A      0.238605  
      41A      0.262157    42A      0.269853    43A      0.282831  
      44A      0.293908    45A      0.303484    46A      0.307563  
      47A      0.326147    48A      0.328705    49A      0.336226  
      50A      0.338681    51A      0.349203    52A      0.357573  
      53A      0.358632    54A      0.364474    55A      0.373016  
      56A      0.407287    57A      0.415004    58A      0.424419  
      59A      0.438357    60A      0.458633    61A      0.481939  
      62A      0.499696    63A      0.527121    64A      0.699266  
      65A      0.712800    66A      0.719963    67A      0.742196  
      68A      0.746816    69A      0.762531    70A      0.783163  
      71A      0.816941    72A      0.821646    73A      0.855070  
      74A      0.888631    75A      0.892837    76A      0.932248  
      77A      0.942399    78A      0.966178    79A      0.969695  
      80A      0.986024    81A      1.015872    82A      1.026856  
      83A      1.067610    84A      1.082792    85A      1.107721  
      86A      1.125426    87A      1.128623    88A      1.146384  
      89A      1.160393    90A      1.168644    91A      1.172036  
      92A      1.176333    93A      1.190247    94A      1.199659  
      95A      1.203676    96A      1.209506    97A      1.217572  
      98A      1.223355    99A      1.237669   100A      1.246811  
     101A      1.257332   102A      1.264182   103A      1.278607  
     104A      1.311216   105A      1.323711   106A      1.362458  
     107A      1.394656   108A      1.412677   109A      1.469027  
     110A      1.493477   111A      1.579960   112A      1.649258  
     113A      1.672889   114A      1.694997   115A      1.759287  
     116A      1.794548   117A      1.801415   118A      1.843393  
     119A      1.886060   120A      1.921611   121A      1.941959  
     122A      1.987736   123A      2.044344   124A      2.070256  
     125A      2.110419   126A      2.117892   127A      2.134095  
     128A      2.169887   129A      2.221920   130A      2.235700  
     131A      2.261276   132A      2.277855   133A      2.296151  
     134A      2.316684   135A      2.337066   136A      2.366653  
     137A      2.377067   138A      2.409922   139A      2.427485  
     140A      2.470206   141A      2.507598   142A      2.536039  
     143A      2.610838   144A      2.635993   145A      2.653581  
     146A      2.688735   147A      2.700982   148A      2.727252  
     149A      2.749433   150A      2.770673   151A      2.781262  
     152A      2.789858   153A      2.806538   154A      2.906092  
     155A      2.938413   156A      2.965581   157A      2.988843  
     158A      3.080970   159A      3.093907   160A      3.139681  
     161A      3.178376   162A      3.234515   163A      4.212044  
     164A      4.558939   165A      4.628177   166A      4.701763  
     167A      4.762550   168A      4.843482   169A      4.867014  
     170A      5.005251   171A      5.021840  

    Final Occupation by Irrep:
              A 
    DOCC [    37 ]

  Energy converged.

  @DF-RHF Final Energy:  -388.21801404180371

   => Energetics <=

    Nuclear Repulsion Energy =            481.4956685642922594
    One-Electron Energy =               -1480.8754014478720364
    Two-Electron Energy =                 611.1617188417761781
    DFT Exchange-Correlation Energy =       0.0000000000000000
    Empirical Dispersion Energy =           0.0000000000000000
    PCM Polarization Energy =               0.0000000000000000
    EFP Energy =                            0.0000000000000000
    Total Energy =                       -388.2180140418035990

    Alert: EFP and PCM quantities not currently incorporated into SCF psivars.

Properties will be evaluated at   0.000000,   0.000000,   0.000000 Bohr
  ==> Properties <==


Properties computed using the SCF density matrix

  Nuclear Dipole Moment: (a.u.)
     X:     4.1838      Y:    -6.6082      Z:    -1.6042

  Electronic Dipole Moment: (a.u.)
     X:    -3.9763      Y:     6.2938      Z:     0.9281

  Dipole Moment: (a.u.)
     X:     0.2075      Y:    -0.3144      Z:    -0.6761     Total:     0.7740

  Dipole Moment: (Debye)
     X:     0.5273      Y:    -0.7992      Z:    -1.7185     Total:     1.9673


  Saving occupied orbitals to File 180.

*** tstop() called on cx1-3-4-2.cx1.hpc.ic.ac.uk at Tue Jul  5 17:26:31 2016
Module time:
	user time   =      28.87 seconds =       0.48 minutes
	system time =       0.25 seconds =       0.00 minutes
	total time  =         29 seconds =       0.48 minutes
Total time:
	user time   =      28.87 seconds =       0.48 minutes
	system time =       0.25 seconds =       0.00 minutes
	total time  =         29 seconds =       0.48 minutes


Properties will be evaluated at   0.000000,   0.000000,   0.000000 Bohr

Properties computed using the  density matrix

  Nuclear Dipole Moment: (a.u.)
     X:     4.1838      Y:    -6.6082      Z:    -1.6042

  Electronic Dipole Moment: (a.u.)
     X:    -3.9763      Y:     6.2938      Z:     0.9281

  Dipole Moment: (a.u.)
     X:     0.2075      Y:    -0.3144      Z:    -0.6761     Total:     0.7740

  Dipole Moment: (Debye)
     X:     0.5273      Y:    -0.7992      Z:    -1.7185     Total:     1.9673

  Quadrupole Moment: (Debye Ang)
    XX:   -61.8343     YY:   -62.7409     ZZ:   -63.5750
    XY:     2.4369     XZ:     4.4599     YZ:    -5.8726

  Traceless Quadrupole Moment: (Debye Ang)
    XX:     0.8824     YY:    -0.0242     ZZ:    -0.8583
    XY:     2.4369     XZ:     4.4599     YZ:    -5.8726

  Mulliken Charges: (a.u.)
   Center  Symbol    Alpha    Beta     Spin     Total
       1     H     0.28074  0.28074  0.00000  0.43852
       2     O     4.37333  4.37333  0.00000 -0.74665
       3     C     2.98961  2.98961  0.00000  0.02079
       4     C     3.16232  3.16232  0.00000 -0.32464
       5     H     0.41734  0.41734  0.00000  0.16531
       6     H     0.43379  0.43379  0.00000  0.13242
       7     C     3.16170  3.16170  0.00000 -0.32341
       8     H     0.41538  0.41538  0.00000  0.16925
       9     H     0.43185  0.43185  0.00000  0.13629
      10     C     3.15456  3.15456  0.00000 -0.30911
      11     H     0.41727  0.41727  0.00000  0.16547
      12     H     0.42785  0.42785  0.00000  0.14430
      13     C     3.16044  3.16044  0.00000 -0.32088
      14     H     0.41872  0.41872  0.00000  0.16256
      15     H     0.42230  0.42230  0.00000  0.15540
      16     C     3.15764  3.15764  0.00000 -0.31529
      17     H     0.42493  0.42493  0.00000  0.15015
      18     H     0.41687  0.41687  0.00000  0.16625
      19     C     3.14987  3.14987  0.00000 -0.29973
      20     H     0.41130  0.41130  0.00000  0.17740
      21     H     0.42229  0.42229  0.00000  0.15541
      22     C     3.23904  3.23904  0.00000 -0.47808
      23     H     0.42492  0.42492  0.00000  0.15016
      24     H     0.42282  0.42282  0.00000  0.15436
      25     H     0.42301  0.42301  0.00000  0.15398
      26     H     0.41890  0.41890  0.00000  0.16221
      27     H     0.42122  0.42122  0.00000  0.15756

   Total alpha = 37.00000, Total beta = 37.00000, Total charge = -0.00000


*** PSI4 exiting successfully. Buy a developer a beer!
