    -----------------------------------------------------------------------
          Psi4: An Open-Source Ab Initio Electronic Structure Package
                              Psi4 (no tag) Driver

                          Git: Rev {detached?}  

    J. M. Turney, A. C. Simmonett, R. M. Parrish, E. G. Hohenstein,
    F. A. Evangelista, J. T. Fermann, B. J. Mintz, L. A. Burns, J. J. Wilke,
    M. L. Abrams, N. J. Russ, M. L. Leininger, C. L. Janssen, E. T. Seidl,
    W. D. Allen, H. F. Schaefer, R. A. King, E. F. Valeev, C. D. Sherrill,
    and T. D. Crawford, WIREs Comput. Mol. Sci. 2, 556-565 (2012)
    (doi: 10.1002/wcms.93)

                         Additional Contributions by
    A. E. DePrince, M. Saitow, U. Bozkaya, A. Yu. Sokolov
    -----------------------------------------------------------------------


    Psi4 started on: Tue Jul  5 16:29:43 2016

    Process ID:  25328
    PSI4DATADIR: /export131/home/mjharvey/miniconda3/share
    Memory level set to 256.000 MB

  ==> Input File <==

--------------------------------------------------------------------------
set {
	reference rhf
	basis 6-31G*
}


set_num_threads( 1 )
memory 2 gb

molecule MOL {
0 1

H	 2.706151	 -0.884637	 -0.437004
N	 2.332695	 -0.069570	 0.000000
C	 0.936681	 -0.007078	 0.000000
H	 2.748948	 0.071400	 0.895342
C	 0.227108	 -0.002120	 -1.198267
C	 0.227108	 -0.002120	 1.198267
H	 0.761569	 -0.014657	 -2.132680
C	 -1.156334	 0.010459	 -1.192360
H	 0.761569	 -0.014657	 2.132680
C	 -1.156334	 0.010459	 1.192360
H	 -1.684791	 0.014915	 -2.129421
C	 -1.862085	 0.017996	 0.000000
H	 -1.684791	 0.014915	 2.129421
H	 -2.936703	 0.028387	 0.000000

	symmetry c1
}
ee = energy('scf')
oeprop('DIPOLE', 'QUADRUPOLE', 'MULLIKEN_CHARGES')
f=open( 'psi4out.xyz', 'w' )
f.write( "14  " )
f.write( str(ee) + "\n" )
f.write( MOL.save_string_xyz() )
f.close()
--------------------------------------------------------------------------

  Memory set to   2.000 GiB by Python script.

*** tstart() called on cx1-1-2-1.cx1.hpc.ic.ac.uk
*** at Tue Jul  5 16:29:43 2016


         ---------------------------------------------------------
                                   SCF
            by Justin Turney, Rob Parrish, and Andy Simmonett
                              RHF Reference
                        1 Threads,   2000 MiB Core
         ---------------------------------------------------------

  ==> Geometry <==

    Molecular point group: c1
    Full point group: C1

    Geometry (in Angstrom), charge = 0, multiplicity = 1:

       Center              X                  Y                   Z               Mass       
    ------------   -----------------  -----------------  -----------------  -----------------
           H          2.706840476911    -0.869232460683    -0.441967842528     1.007825032070
           N          2.333384476911    -0.054165460683    -0.004963842528    14.003074004780
           C          0.937370476911     0.008326539317    -0.004963842528    12.000000000000
           H          2.749637476911     0.086804539317     0.890378157472     1.007825032070
           C          0.227797476911     0.013284539317    -1.203230842528    12.000000000000
           C          0.227797476911     0.013284539317     1.193303157472    12.000000000000
           H          0.762258476911     0.000747539317    -2.137643842528     1.007825032070
           C         -1.155644523089     0.025863539317    -1.197323842528    12.000000000000
           H          0.762258476911     0.000747539317     2.127716157472     1.007825032070
           C         -1.155644523089     0.025863539317     1.187396157472    12.000000000000
           H         -1.684101523089     0.030319539317    -2.134384842528     1.007825032070
           C         -1.861395523089     0.033400539317    -0.004963842528    12.000000000000
           H         -1.684101523089     0.030319539317     2.124457157472     1.007825032070
           H         -2.936013523089     0.043791539317    -0.004963842528     1.007825032070

  Running in c1 symmetry.

  Rotational constants: A =      0.19034  B =      0.08730  C =      0.06014 [cm^-1]
  Rotational constants: A =   5706.21944  B =   2617.15731  C =   1803.08884 [MHz]
  Nuclear repulsion =  273.054298310497927

  Charge       = 0
  Multiplicity = 1
  Electrons    = 50
  Nalpha       = 25
  Nbeta        = 25

  ==> Algorithm <==

  SCF Algorithm Type is DF.
  DIIS enabled.
  MOM disabled.
  Fractional occupation disabled.
  Guess Type is CORE.
  Energy threshold   = 1.00e-06
  Density threshold  = 1.00e-06
  Integral threshold = 0.00e+00

  ==> Primary Basis <==

  Basis Set: 6-31G*
    Number of shells: 56
    Number of basis function: 119
    Number of Cartesian functions: 119
    Spherical Harmonics?: false
    Max angular momentum: 2

  ==> Pre-Iterations <==

   -------------------------------------------------------
    Irrep   Nso     Nmo     Nalpha   Nbeta   Ndocc  Nsocc
   -------------------------------------------------------
     A        119     119       0       0       0       0
   -------------------------------------------------------
    Total     119     119      25      25      25       0
   -------------------------------------------------------

 OEINTS: Overlap, kinetic, potential, dipole, and quadrupole integrals
         stored in file 35.

  ==> Integral Setup <==

  ==> DFJK: Density-Fitted J/K Matrices <==

    J tasked:                  Yes
    K tasked:                  Yes
    wK tasked:                  No
    OpenMP threads:              1
    Integrals threads:           1
    Memory (MB):              1430
    Algorithm:                Core
    Integral Cache:           NONE
    Schwarz Cutoff:          1E-12
    Fitting Condition:       1E-12

   => Auxiliary Basis Set <=

  Basis Set: 
    Number of shells: 231
    Number of basis function: 742
    Number of Cartesian functions: 742
    Spherical Harmonics?: false
    Max angular momentum: 3

  Minimum eigenvalue in the overlap matrix is 4.2911801516E-04.
  Using Symmetric Orthogonalization.
  SCF Guess: Core (One-Electron) Hamiltonian.

  ==> Iterations <==

                           Total Energy        Delta E     RMS |[F,P]|

   @DF-RHF iter   1:  -224.85081453138804   -2.24851e+02   7.09827e-02 
   @DF-RHF iter   2:  -234.79972990812365   -9.94892e+00   5.27056e-02 DIIS
   @DF-RHF iter   3:  -268.02637183974008   -3.32266e+01   3.63162e-02 DIIS
   @DF-RHF iter   4:  -268.86676223309195   -8.40390e-01   3.74454e-02 DIIS
   @DF-RHF iter   5:  -284.99331463207335   -1.61266e+01   9.34315e-03 DIIS
   @DF-RHF iter   6:  -285.67391495123292   -6.80600e-01   2.55628e-03 DIIS
   @DF-RHF iter   7:  -285.71801805982665   -4.41031e-02   1.00997e-03 DIIS
   @DF-RHF iter   8:  -285.72580027622399   -7.78222e-03   4.28112e-04 DIIS
   @DF-RHF iter   9:  -285.72727935577512   -1.47908e-03   1.59364e-04 DIIS
   @DF-RHF iter  10:  -285.72749052423518   -2.11168e-04   2.51617e-05 DIIS
   @DF-RHF iter  11:  -285.72749913988417   -8.61565e-06   9.41826e-06 DIIS
   @DF-RHF iter  12:  -285.72750018298433   -1.04310e-06   2.92006e-06 DIIS
   @DF-RHF iter  13:  -285.72750030828826   -1.25304e-07   9.36741e-07 DIIS

  ==> Post-Iterations <==

    Orbital Energies (a.u.)
    -----------------------

    Doubly Occupied:                                                      

       1A    -15.553677     2A    -11.266689     3A    -11.228197  
       4A    -11.227771     5A    -11.219526     6A    -11.217687  
       7A    -11.217069     8A     -1.218044     9A     -1.125186  
      10A     -1.009472    11A     -0.983361    12A     -0.826814  
      13A     -0.808676    14A     -0.702806    15A     -0.679234  
      16A     -0.651030    17A     -0.605120    18A     -0.592384  
      19A     -0.579344    20A     -0.514705    21A     -0.503205  
      22A     -0.485269    23A     -0.431175    24A     -0.330511  
      25A     -0.297148  

    Virtual:                                                              

      26A      0.150567    27A      0.162258    28A      0.233627  
      29A      0.248030    30A      0.281578    31A      0.310436  
      32A      0.320551    33A      0.341974    34A      0.351192  
      35A      0.388098    36A      0.451326    37A      0.486707  
      38A      0.504975    39A      0.538901    40A      0.556822  
      41A      0.670063    42A      0.744435    43A      0.757292  
      44A      0.761874    45A      0.792069    46A      0.822302  
      47A      0.832413    48A      0.840307    49A      0.845619  
      50A      0.848819    51A      0.853632    52A      0.881117  
      53A      0.914687    54A      0.929801    55A      0.991557  
      56A      1.019768    57A      1.058425    58A      1.089707  
      59A      1.119734    60A      1.126211    61A      1.129777  
      62A      1.148141    63A      1.191407    64A      1.206818  
      65A      1.223678    66A      1.228061    67A      1.246443  
      68A      1.276323    69A      1.325171    70A      1.355078  
      71A      1.378059    72A      1.457974    73A      1.461440  
      74A      1.516628    75A      1.606645    76A      1.658983  
      77A      1.718882    78A      1.727660    79A      1.762868  
      80A      1.780969    81A      1.795847    82A      1.804907  
      83A      2.068232    84A      2.101274    85A      2.147806  
      86A      2.185168    87A      2.217686    88A      2.246341  
      89A      2.300627    90A      2.330836    91A      2.409590  
      92A      2.425522    93A      2.445135    94A      2.477189  
      95A      2.490650    96A      2.546459    97A      2.584957  
      98A      2.658890    99A      2.673171   100A      2.732744  
     101A      2.827588   102A      2.874422   103A      2.923862  
     104A      2.958913   105A      3.033546   106A      3.101735  
     107A      3.109689   108A      3.121458   109A      3.211421  
     110A      3.249962   111A      3.482572   112A      3.842170  
     113A      4.274720   114A      4.532612   115A      4.553170  
     116A      4.566559   117A      4.766794   118A      4.795997  
     119A      5.140743  

    Final Occupation by Irrep:
              A 
    DOCC [    25 ]

  Energy converged.

  @DF-RHF Final Energy:  -285.72750030828826

   => Energetics <=

    Nuclear Repulsion Energy =            273.0542983104979271
    One-Electron Energy =                -927.0154634029162253
    Two-Electron Energy =                 368.2336647841298145
    DFT Exchange-Correlation Energy =       0.0000000000000000
    Empirical Dispersion Energy =           0.0000000000000000
    PCM Polarization Energy =               0.0000000000000000
    EFP Energy =                            0.0000000000000000
    Total Energy =                       -285.7275003082884268

    Alert: EFP and PCM quantities not currently incorporated into SCF psivars.

Properties will be evaluated at   0.000000,   0.000000,   0.000000 Bohr
  ==> Properties <==


Properties computed using the SCF density matrix

  Nuclear Dipole Moment: (a.u.)
     X:     0.6277      Y:    -0.6340      Z:     0.3971

  Electronic Dipole Moment: (a.u.)
     X:    -0.4210      Y:     0.1852      Z:    -0.1335

  Dipole Moment: (a.u.)
     X:     0.2066      Y:    -0.4488      Z:     0.2636     Total:     0.5600

  Dipole Moment: (Debye)
     X:     0.5252      Y:    -1.1407      Z:     0.6700     Total:     1.4234


  Saving occupied orbitals to File 180.

*** tstop() called on cx1-1-2-1.cx1.hpc.ic.ac.uk at Tue Jul  5 16:29:51 2016
Module time:
	user time   =       7.74 seconds =       0.13 minutes
	system time =       0.04 seconds =       0.00 minutes
	total time  =          8 seconds =       0.13 minutes
Total time:
	user time   =       7.74 seconds =       0.13 minutes
	system time =       0.04 seconds =       0.00 minutes
	total time  =          8 seconds =       0.13 minutes


Properties will be evaluated at   0.000000,   0.000000,   0.000000 Bohr

Properties computed using the  density matrix

  Nuclear Dipole Moment: (a.u.)
     X:     0.6277      Y:    -0.6340      Z:     0.3971

  Electronic Dipole Moment: (a.u.)
     X:    -0.4210      Y:     0.1852      Z:    -0.1335

  Dipole Moment: (a.u.)
     X:     0.2066      Y:    -0.4488      Z:     0.2636     Total:     0.5600

  Dipole Moment: (Debye)
     X:     0.5252      Y:    -1.1407      Z:     0.6700     Total:     1.4234

  Quadrupole Moment: (Debye Ang)
    XX:   -36.3911     YY:   -45.0463     ZZ:   -36.6991
    XY:    -3.5374     XZ:     2.3479     YZ:     1.1240

  Traceless Quadrupole Moment: (Debye Ang)
    XX:     2.9877     YY:    -5.6675     ZZ:     2.6797
    XY:    -3.5374     XZ:     2.3479     YZ:     1.1240

  Mulliken Charges: (a.u.)
   Center  Symbol    Alpha    Beta     Spin     Total
       1     H     0.31877  0.31877  0.00000  0.36247
       2     N     3.95151  3.95151  0.00000 -0.90302
       3     C     2.86111  2.86111  0.00000  0.27778
       4     H     0.32105  0.32105  0.00000  0.35790
       5     C     3.11720  3.11720  0.00000 -0.23441
       6     C     3.12483  3.12483  0.00000 -0.24966
       7     H     0.39899  0.39899  0.00000  0.20201
       8     C     3.09327  3.09327  0.00000 -0.18654
       9     H     0.40515  0.40515  0.00000  0.18970
      10     C     3.09289  3.09289  0.00000 -0.18577
      11     H     0.40069  0.40069  0.00000  0.19861
      12     C     3.11142  3.11142  0.00000 -0.22285
      13     H     0.40130  0.40130  0.00000  0.19740
      14     H     0.40181  0.40181  0.00000  0.19637

   Total alpha = 25.00000, Total beta = 25.00000, Total charge = -0.00000


*** PSI4 exiting successfully. Buy a developer a beer!
