    -----------------------------------------------------------------------
          Psi4: An Open-Source Ab Initio Electronic Structure Package
                              Psi4 (no tag) Driver

                          Git: Rev {detached?}  

    J. M. Turney, A. C. Simmonett, R. M. Parrish, E. G. Hohenstein,
    F. A. Evangelista, J. T. Fermann, B. J. Mintz, L. A. Burns, J. J. Wilke,
    M. L. Abrams, N. J. Russ, M. L. Leininger, C. L. Janssen, E. T. Seidl,
    W. D. Allen, H. F. Schaefer, R. A. King, E. F. Valeev, C. D. Sherrill,
    and T. D. Crawford, WIREs Comput. Mol. Sci. 2, 556-565 (2012)
    (doi: 10.1002/wcms.93)

                         Additional Contributions by
    A. E. DePrince, M. Saitow, U. Bozkaya, A. Yu. Sokolov
    -----------------------------------------------------------------------


    Psi4 started on: Tue Jul  5 16:51:06 2016

    Process ID:   3794
    PSI4DATADIR: /export131/home/mjharvey/miniconda3/share
    Memory level set to 256.000 MB

  ==> Input File <==

--------------------------------------------------------------------------
set {
	reference rhf
	basis 6-31G*
}


set_num_threads( 1 )
memory 2 gb

molecule MOL {
0 1

H	 1.723202	 1.632482	 -1.968286
C	 0.995937	 1.433708	 -1.189505
C	 1.322923	 0.120767	 -0.479465
H	 1.011660	 2.271686	 -0.499636
H	 0.015082	 1.398287	 -1.653469
C	 0.306652	 -0.176050	 0.621399
H	 2.313063	 0.171746	 -0.038497
H	 1.322156	 -0.700098	 -1.186883
N	 -1.068537	 -0.011044	 0.085269
H	 0.372515	 -1.192590	 0.973735
H	 0.391664	 0.520566	 1.441230
O	 -1.957537	 -0.542097	 0.676059
O	 -1.184559	 0.617890	 -0.922206

	symmetry c1
}
set optking {
	frozen_dihedral = ("
		7 3 6 9
	")
}

ee = energy('scf')
oeprop('DIPOLE', 'QUADRUPOLE', 'MULLIKEN_CHARGES')
f=open( 'psi4out.xyz', 'w' )
f.write( "13  " )
f.write( str(ee) + "\n" )
f.write( MOL.save_string_xyz() )
f.close()
--------------------------------------------------------------------------

  Memory set to   2.000 GiB by Python script.

*** tstart() called on cx1-3-15-4.cx1.hpc.ic.ac.uk
*** at Tue Jul  5 16:51:07 2016


         ---------------------------------------------------------
                                   SCF
            by Justin Turney, Rob Parrish, and Andy Simmonett
                              RHF Reference
                        1 Threads,   2000 MiB Core
         ---------------------------------------------------------

  ==> Geometry <==

    Molecular point group: c1
    Full point group: C1

    Geometry (in Angstrom), charge = 0, multiplicity = 1:

       Center              X                  Y                   Z               Mass       
    ------------   -----------------  -----------------  -----------------  -----------------
           H          2.020895668828     1.388422515374    -1.763129931681     1.007825032070
           C          1.293630668828     1.189648515374    -0.984348931681    12.000000000000
           C          1.620616668828    -0.123292484626    -0.274308931681    12.000000000000
           H          1.309353668828     2.027626515374    -0.294479931681     1.007825032070
           H          0.312775668828     1.154227515374    -1.448312931681     1.007825032070
           C          0.604345668828    -0.420109484626     0.826555068319    12.000000000000
           H          2.610756668828    -0.072313484626     0.166659068319     1.007825032070
           H          1.619849668828    -0.944157484626    -0.981726931681     1.007825032070
           N         -0.770843331172    -0.255103484626     0.290425068319    14.003074004780
           H          0.670208668828    -1.436649484626     1.178891068319     1.007825032070
           H          0.689357668828     0.276506515374     1.646386068319     1.007825032070
           O         -1.659843331172    -0.786156484626     0.881215068319    15.994914619560
           O         -0.886865331172     0.373830515374    -0.717049931681    15.994914619560

  Running in c1 symmetry.

  Rotational constants: A =      0.25628  B =      0.09602  C =      0.07493 [cm^-1]
  Rotational constants: A =   7683.07184  B =   2878.59668  C =   2246.28708 [MHz]
  Nuclear repulsion =  258.759580300531752

  Charge       = 0
  Multiplicity = 1
  Electrons    = 48
  Nalpha       = 24
  Nbeta        = 24

  ==> Algorithm <==

  SCF Algorithm Type is DF.
  DIIS enabled.
  MOM disabled.
  Fractional occupation disabled.
  Guess Type is CORE.
  Energy threshold   = 1.00e-06
  Density threshold  = 1.00e-06
  Integral threshold = 0.00e+00

  ==> Primary Basis <==

  Basis Set: 6-31G*
    Number of shells: 50
    Number of basis function: 104
    Number of Cartesian functions: 104
    Spherical Harmonics?: false
    Max angular momentum: 2

  ==> Pre-Iterations <==

   -------------------------------------------------------
    Irrep   Nso     Nmo     Nalpha   Nbeta   Ndocc  Nsocc
   -------------------------------------------------------
     A        104     104       0       0       0       0
   -------------------------------------------------------
    Total     104     104      24      24      24       0
   -------------------------------------------------------

 OEINTS: Overlap, kinetic, potential, dipole, and quadrupole integrals
         stored in file 35.

  ==> Integral Setup <==

  ==> DFJK: Density-Fitted J/K Matrices <==

    J tasked:                  Yes
    K tasked:                  Yes
    wK tasked:                  No
    OpenMP threads:              1
    Integrals threads:           1
    Memory (MB):              1430
    Algorithm:                Core
    Integral Cache:           NONE
    Schwarz Cutoff:          1E-12
    Fitting Condition:       1E-12

   => Auxiliary Basis Set <=

  Basis Set: 
    Number of shells: 207
    Number of basis function: 661
    Number of Cartesian functions: 661
    Spherical Harmonics?: false
    Max angular momentum: 3

  Minimum eigenvalue in the overlap matrix is 2.9140768119E-03.
  Using Symmetric Orthogonalization.
  SCF Guess: Core (One-Electron) Hamiltonian.

  ==> Iterations <==

                           Total Energy        Delta E     RMS |[F,P]|

   @DF-RHF iter   1:  -247.59965583649807   -2.47600e+02   9.14474e-02 
   @DF-RHF iter   2:  -184.20799185338092    6.33917e+01   8.60057e-02 DIIS
   @DF-RHF iter   3:  -281.67418536204661   -9.74662e+01   5.11225e-02 DIIS
   @DF-RHF iter   4:  -287.63024800935068   -5.95606e+00   6.11028e-02 DIIS
   @DF-RHF iter   5:  -320.95285136786583   -3.33226e+01   1.19052e-02 DIIS
   @DF-RHF iter   6:  -321.04238891286570   -8.95375e-02   1.18127e-02 DIIS
   @DF-RHF iter   7:  -321.61898389751707   -5.76595e-01   3.27186e-03 DIIS
   @DF-RHF iter   8:  -321.68060805874825   -6.16242e-02   1.24913e-03 DIIS
   @DF-RHF iter   9:  -321.68970345408957   -9.09540e-03   4.55257e-04 DIIS
   @DF-RHF iter  10:  -321.69134059175940   -1.63714e-03   1.44574e-04 DIIS
   @DF-RHF iter  11:  -321.69148209920127   -1.41507e-04   6.11291e-05 DIIS
   @DF-RHF iter  12:  -321.69152667857475   -4.45794e-05   3.22416e-05 DIIS
   @DF-RHF iter  13:  -321.69153870063280   -1.20221e-05   1.13716e-05 DIIS
   @DF-RHF iter  14:  -321.69154048952214   -1.78889e-06   2.82399e-06 DIIS
   @DF-RHF iter  15:  -321.69154059731522   -1.07793e-07   7.10437e-07 DIIS

  ==> Post-Iterations <==

    Orbital Energies (a.u.)
    -----------------------

    Doubly Occupied:                                                      

       1A    -20.609106     2A    -20.600354     3A    -15.855769  
       4A    -11.302033     5A    -11.246190     6A    -11.196252  
       7A     -1.639656     8A     -1.427728     9A     -1.134495  
      10A     -1.016766    11A     -0.878435    12A     -0.845402  
      13A     -0.766442    14A     -0.747806    15A     -0.730239  
      16A     -0.640901    17A     -0.622603    18A     -0.580055  
      19A     -0.540757    20A     -0.507479    21A     -0.502011  
      22A     -0.482449    23A     -0.458455    24A     -0.432157  

    Virtual:                                                              

      25A      0.111649    26A      0.219168    27A      0.268736  
      28A      0.284108    29A      0.291916    30A      0.300264  
      31A      0.325187    32A      0.344847    33A      0.368657  
      34A      0.383353    35A      0.431691    36A      0.542229  
      37A      0.614072    38A      0.697593    39A      0.705530  
      40A      0.737784    41A      0.747172    42A      0.789136  
      43A      0.844199    44A      0.875000    45A      0.920302  
      46A      0.940953    47A      0.972289    48A      1.052256  
      49A      1.073162    50A      1.081056    51A      1.107782  
      52A      1.127184    53A      1.136342    54A      1.166212  
      55A      1.183935    56A      1.186431    57A      1.215151  
      58A      1.248125    59A      1.260455    60A      1.264205  
      61A      1.311399    62A      1.345246    63A      1.378505  
      64A      1.528191    65A      1.597133    66A      1.644216  
      67A      1.692476    68A      1.707167    69A      1.777659  
      70A      1.862120    71A      1.913377    72A      1.991180  
      73A      2.038005    74A      2.100653    75A      2.107012  
      76A      2.152928    77A      2.177867    78A      2.225955  
      79A      2.267877    80A      2.295860    81A      2.335057  
      82A      2.380545    83A      2.397697    84A      2.456283  
      85A      2.488758    86A      2.598289    87A      2.672437  
      88A      2.709934    89A      2.743396    90A      2.796279  
      91A      2.848875    92A      2.893750    93A      3.009025  
      94A      3.070641    95A      3.235898    96A      3.308663  
      97A      3.318279    98A      3.493345    99A      4.119038  
     100A      4.213456   101A      4.371891   102A      4.623458  
     103A      4.757020   104A      4.917364  

    Final Occupation by Irrep:
              A 
    DOCC [    24 ]

  Energy converged.

  @DF-RHF Final Energy:  -321.69154059731522

   => Energetics <=

    Nuclear Repulsion Energy =            258.7595803005317521
    One-Electron Energy =                -951.3751044537038979
    Two-Electron Energy =                 370.9239835558568643
    DFT Exchange-Correlation Energy =       0.0000000000000000
    Empirical Dispersion Energy =           0.0000000000000000
    PCM Polarization Energy =               0.0000000000000000
    EFP Energy =                            0.0000000000000000
    Total Energy =                       -321.6915405973152815

    Alert: EFP and PCM quantities not currently incorporated into SCF psivars.

Properties will be evaluated at   0.000000,   0.000000,   0.000000 Bohr
  ==> Properties <==


Properties computed using the SCF density matrix

  Nuclear Dipole Moment: (a.u.)
     X:     8.6458      Y:     2.2427      Z:    -1.4022

  Electronic Dipole Moment: (a.u.)
     X:    -7.3494      Y:    -2.4106      Z:     1.8709

  Dipole Moment: (a.u.)
     X:     1.2965      Y:    -0.1679      Z:     0.4687     Total:     1.3888

  Dipole Moment: (Debye)
     X:     3.2953      Y:    -0.4266      Z:     1.1912     Total:     3.5299


  Saving occupied orbitals to File 180.

*** tstop() called on cx1-3-15-4.cx1.hpc.ic.ac.uk at Tue Jul  5 16:51:12 2016
Module time:
	user time   =       5.40 seconds =       0.09 minutes
	system time =       0.04 seconds =       0.00 minutes
	total time  =          5 seconds =       0.08 minutes
Total time:
	user time   =       5.40 seconds =       0.09 minutes
	system time =       0.04 seconds =       0.00 minutes
	total time  =          5 seconds =       0.08 minutes


Properties will be evaluated at   0.000000,   0.000000,   0.000000 Bohr

Properties computed using the  density matrix

  Nuclear Dipole Moment: (a.u.)
     X:     8.6458      Y:     2.2427      Z:    -1.4022

  Electronic Dipole Moment: (a.u.)
     X:    -7.3494      Y:    -2.4106      Z:     1.8709

  Dipole Moment: (a.u.)
     X:     1.2965      Y:    -0.1679      Z:     0.4687     Total:     1.3888

  Dipole Moment: (Debye)
     X:     3.2953      Y:    -0.4266      Z:     1.1912     Total:     3.5299

  Quadrupole Moment: (Debye Ang)
    XX:   -40.8305     YY:   -36.3851     ZZ:   -36.5314
    XY:    -2.3836     XZ:     2.0751     YZ:     1.8716

  Traceless Quadrupole Moment: (Debye Ang)
    XX:    -2.9148     YY:     1.5305     ZZ:     1.3843
    XY:    -2.3836     XZ:     2.0751     YZ:     1.8716

  Mulliken Charges: (a.u.)
   Center  Symbol    Alpha    Beta     Spin     Total
       1     H     0.42465  0.42465  0.00000  0.15069
       2     C     3.25771  3.25771  0.00000 -0.51541
       3     C     3.17174  3.17174  0.00000 -0.34348
       4     H     0.42728  0.42728  0.00000  0.14544
       5     H     0.36314  0.36314  0.00000  0.27371
       6     C     3.10300  3.10300  0.00000 -0.20601
       7     H     0.40781  0.40781  0.00000  0.18439
       8     H     0.40791  0.40791  0.00000  0.18417
       9     N     3.20436  3.20436  0.00000  0.59127
      10     H     0.38196  0.38196  0.00000  0.23608
      11     H     0.38336  0.38336  0.00000  0.23328
      12     O     4.22668  4.22668  0.00000 -0.45337
      13     O     4.24038  4.24038  0.00000 -0.48077

   Total alpha = 24.00000, Total beta = 24.00000, Total charge = -0.00000


*** PSI4 exiting successfully. Buy a developer a beer!
