    -----------------------------------------------------------------------
          Psi4: An Open-Source Ab Initio Electronic Structure Package
                              Psi4 (no tag) Driver

                          Git: Rev {detached?}  

    J. M. Turney, A. C. Simmonett, R. M. Parrish, E. G. Hohenstein,
    F. A. Evangelista, J. T. Fermann, B. J. Mintz, L. A. Burns, J. J. Wilke,
    M. L. Abrams, N. J. Russ, M. L. Leininger, C. L. Janssen, E. T. Seidl,
    W. D. Allen, H. F. Schaefer, R. A. King, E. F. Valeev, C. D. Sherrill,
    and T. D. Crawford, WIREs Comput. Mol. Sci. 2, 556-565 (2012)
    (doi: 10.1002/wcms.93)

                         Additional Contributions by
    A. E. DePrince, M. Saitow, U. Bozkaya, A. Yu. Sokolov
    -----------------------------------------------------------------------


    Psi4 started on: Tue Jul  5 16:27:21 2016

    Process ID:  27896
    PSI4DATADIR: /export131/home/mjharvey/miniconda3/share
    Memory level set to 256.000 MB

  ==> Input File <==

--------------------------------------------------------------------------
set {
	reference rhf
	basis 6-31G*
}


set_num_threads( 1 )
memory 2 gb

molecule MOL {
0 1

H	 0.010467	 -0.307955	 0.672324
N	 -0.626943	 -0.667432	 -0.000092
C	 -1.979713	 -0.158776	 0.000050
C	 -0.183566	 -1.606928	 -0.870109
H	 -2.520245	 -0.492427	 -0.879443
H	 -1.934741	 0.918111	 -0.004428
H	 -2.517790	 -0.485056	 0.883818
C	 1.270647	 -1.994427	 -0.690969
O	 -0.877516	 -2.098822	 -1.716684
H	 1.439504	 -2.398464	 0.302306
H	 1.526593	 -2.740571	 -1.428165
H	 1.915732	 -1.130330	 -0.815623

	symmetry c1
}
set optking {
	frozen_dihedral = ("
		3 2 4 9
	")
}

ee = energy('scf')
oeprop('DIPOLE', 'QUADRUPOLE', 'MULLIKEN_CHARGES')
f=open( 'psi4out.xyz', 'w' )
f.write( "12  " )
f.write( str(ee) + "\n" )
f.write( MOL.save_string_xyz() )
f.close()
--------------------------------------------------------------------------

  Memory set to   2.000 GiB by Python script.

*** tstart() called on cx1-3-2-3.cx1.hpc.ic.ac.uk
*** at Tue Jul  5 16:27:21 2016


         ---------------------------------------------------------
                                   SCF
            by Justin Turney, Rob Parrish, and Andy Simmonett
                              RHF Reference
                        1 Threads,   2000 MiB Core
         ---------------------------------------------------------

  ==> Geometry <==

    Molecular point group: c1
    Full point group: C1

    Geometry (in Angstrom), charge = 0, multiplicity = 1:

       Center              X                  Y                   Z               Mass       
    ------------   -----------------  -----------------  -----------------  -----------------
           H          0.498104491985     0.988734813195     1.322141726357     1.007825032070
           N         -0.139305508015     0.629257813195     0.649725726357    14.003074004780
           C         -1.492075508015     1.137913813195     0.649867726357    12.000000000000
           C          0.304071491985    -0.310238186805    -0.220291273643    12.000000000000
           H         -2.032607508015     0.804262813195    -0.229625273643     1.007825032070
           H         -1.447103508015     2.214800813195     0.645389726357     1.007825032070
           H         -2.030152508015     0.811633813195     1.533635726357     1.007825032070
           C          1.758284491985    -0.697737186805    -0.041151273643    12.000000000000
           O         -0.389878508015    -0.802132186805    -1.066866273643    15.994914619560
           H          1.927141491985    -1.101774186805     0.952123726357     1.007825032070
           H          2.014230491985    -1.443881186805    -0.778347273643     1.007825032070
           H          2.403369491985     0.166359813195    -0.165805273643     1.007825032070

  Running in c1 symmetry.

  Rotational constants: A =      0.33848  B =      0.12949  C =      0.09702 [cm^-1]
  Rotational constants: A =  10147.38056  B =   3882.07251  C =   2908.56628 [MHz]
  Nuclear repulsion =  181.202424302199120

  Charge       = 0
  Multiplicity = 1
  Electrons    = 40
  Nalpha       = 20
  Nbeta        = 20

  ==> Algorithm <==

  SCF Algorithm Type is DF.
  DIIS enabled.
  MOM disabled.
  Fractional occupation disabled.
  Guess Type is CORE.
  Energy threshold   = 1.00e-06
  Density threshold  = 1.00e-06
  Integral threshold = 0.00e+00

  ==> Primary Basis <==

  Basis Set: 6-31G*
    Number of shells: 44
    Number of basis function: 89
    Number of Cartesian functions: 89
    Spherical Harmonics?: false
    Max angular momentum: 2

  ==> Pre-Iterations <==

   -------------------------------------------------------
    Irrep   Nso     Nmo     Nalpha   Nbeta   Ndocc  Nsocc
   -------------------------------------------------------
     A         89      89       0       0       0       0
   -------------------------------------------------------
    Total      89      89      20      20      20       0
   -------------------------------------------------------

 OEINTS: Overlap, kinetic, potential, dipole, and quadrupole integrals
         stored in file 35.

  ==> Integral Setup <==

  ==> DFJK: Density-Fitted J/K Matrices <==

    J tasked:                  Yes
    K tasked:                  Yes
    wK tasked:                  No
    OpenMP threads:              1
    Integrals threads:           1
    Memory (MB):              1430
    Algorithm:                Core
    Integral Cache:           NONE
    Schwarz Cutoff:          1E-12
    Fitting Condition:       1E-12

   => Auxiliary Basis Set <=

  Basis Set: 
    Number of shells: 183
    Number of basis function: 580
    Number of Cartesian functions: 580
    Spherical Harmonics?: false
    Max angular momentum: 3

  Minimum eigenvalue in the overlap matrix is 3.6888926739E-03.
  Using Symmetric Orthogonalization.
  SCF Guess: Core (One-Electron) Hamiltonian.

  ==> Iterations <==

                           Total Energy        Delta E     RMS |[F,P]|

   @DF-RHF iter   1:  -191.12781654425692   -1.91128e+02   8.58759e-02 
   @DF-RHF iter   2:  -192.80763554495098   -1.67982e+00   6.01076e-02 DIIS
   @DF-RHF iter   3:  -220.54720452611940   -2.77396e+01   6.65407e-02 DIIS
   @DF-RHF iter   4:  -241.92576554531814   -2.13786e+01   3.12351e-02 DIIS
   @DF-RHF iter   5:  -245.73861851183239   -3.81285e+00   1.61963e-02 DIIS
   @DF-RHF iter   6:  -246.79751030984653   -1.05889e+00   6.29335e-03 DIIS
   @DF-RHF iter   7:  -246.98062662692200   -1.83116e-01   2.03907e-03 DIIS
   @DF-RHF iter   8:  -247.00246218896041   -2.18356e-02   5.97244e-04 DIIS
   @DF-RHF iter   9:  -247.00434606760018   -1.88388e-03   2.65047e-04 DIIS
   @DF-RHF iter  10:  -247.00487821808622   -5.32150e-04   1.01844e-04 DIIS
   @DF-RHF iter  11:  -247.00496651052509   -8.82924e-05   3.77026e-05 DIIS
   @DF-RHF iter  12:  -247.00498370557278   -1.71950e-05   1.41338e-05 DIIS
   @DF-RHF iter  13:  -247.00498568833996   -1.98277e-06   2.82908e-06 DIIS
   @DF-RHF iter  14:  -247.00498576716370   -7.88237e-08   6.84319e-07 DIIS

  ==> Post-Iterations <==

    Orbital Energies (a.u.)
    -----------------------

    Doubly Occupied:                                                      

       1A    -20.515152     2A    -15.580985     3A    -11.342376  
       4A    -11.254393     5A    -11.229226     6A     -1.383287  
       7A     -1.227959     8A     -1.015456     9A     -0.931945  
      10A     -0.785813    11A     -0.688330    12A     -0.647876  
      13A     -0.632802    14A     -0.586522    15A     -0.578605  
      16A     -0.555977    17A     -0.543163    18A     -0.507006  
      19A     -0.412140    20A     -0.383565  

    Virtual:                                                              

      21A      0.212101    22A      0.219245    23A      0.267379  
      24A      0.282327    25A      0.313834    26A      0.319830  
      27A      0.325826    28A      0.344583    29A      0.373053  
      30A      0.427843    31A      0.499591    32A      0.579415  
      33A      0.723152    34A      0.729492    35A      0.753554  
      36A      0.764448    37A      0.818635    38A      0.829753  
      39A      0.906019    40A      0.948962    41A      0.984853  
      42A      1.004084    43A      1.030816    44A      1.082151  
      45A      1.117311    46A      1.142646    47A      1.157927  
      48A      1.185716    49A      1.199077    50A      1.211266  
      51A      1.228291    52A      1.242240    53A      1.318694  
      54A      1.350998    55A      1.411079    56A      1.590101  
      57A      1.619190    58A      1.663112    59A      1.680433  
      60A      1.692327    61A      1.825143    62A      1.923033  
      63A      2.048776    64A      2.114488    65A      2.137770  
      66A      2.172580    67A      2.214148    68A      2.238286  
      69A      2.318659    70A      2.396955    71A      2.418222  
      72A      2.536191    73A      2.554214    74A      2.601323  
      75A      2.654002    76A      2.695429    77A      2.753235  
      78A      2.791385    79A      2.894706    80A      3.023251  
      81A      3.041997    82A      3.283093    83A      3.376305  
      84A      3.554882    85A      4.370052    86A      4.477515  
      87A      4.628893    88A      4.688947    89A      4.907667  

    Final Occupation by Irrep:
              A 
    DOCC [    20 ]

  Energy converged.

  @DF-RHF Final Energy:  -247.00498576716370

   => Energetics <=

    Nuclear Repulsion Energy =            181.2024243021991197
    One-Electron Energy =                -694.8094790158367005
    Two-Electron Energy =                 266.6020689464743896
    DFT Exchange-Correlation Energy =       0.0000000000000000
    Empirical Dispersion Energy =           0.0000000000000000
    PCM Polarization Energy =               0.0000000000000000
    EFP Energy =                            0.0000000000000000
    Total Energy =                       -247.0049857671631912

    Alert: EFP and PCM quantities not currently incorporated into SCF psivars.

Properties will be evaluated at   0.000000,   0.000000,   0.000000 Bohr
  ==> Properties <==


Properties computed using the SCF density matrix

  Nuclear Dipole Moment: (a.u.)
     X:     1.2482      Y:     2.2819      Z:     3.0674

  Electronic Dipole Moment: (a.u.)
     X:    -0.6158      Y:    -1.4639      Z:    -1.9022

  Dipole Moment: (a.u.)
     X:     0.6323      Y:     0.8180      Z:     1.1652     Total:     1.5578

  Dipole Moment: (Debye)
     X:     1.6072      Y:     2.0791      Z:     2.9617     Total:     3.9595


  Saving occupied orbitals to File 180.

*** tstop() called on cx1-3-2-3.cx1.hpc.ic.ac.uk at Tue Jul  5 16:27:26 2016
Module time:
	user time   =       3.96 seconds =       0.07 minutes
	system time =       0.03 seconds =       0.00 minutes
	total time  =          5 seconds =       0.08 minutes
Total time:
	user time   =       3.96 seconds =       0.07 minutes
	system time =       0.03 seconds =       0.00 minutes
	total time  =          5 seconds =       0.08 minutes


Properties will be evaluated at   0.000000,   0.000000,   0.000000 Bohr

Properties computed using the  density matrix

  Nuclear Dipole Moment: (a.u.)
     X:     1.2482      Y:     2.2819      Z:     3.0674

  Electronic Dipole Moment: (a.u.)
     X:    -0.6158      Y:    -1.4639      Z:    -1.9022

  Dipole Moment: (a.u.)
     X:     0.6323      Y:     0.8180      Z:     1.1652     Total:     1.5578

  Dipole Moment: (Debye)
     X:     1.6072      Y:     2.0791      Z:     2.9617     Total:     3.9595

  Quadrupole Moment: (Debye Ang)
    XX:   -27.7443     YY:   -30.8200     ZZ:   -32.2284
    XY:    -2.1460     XZ:    -0.8982     YZ:    -0.7035

  Traceless Quadrupole Moment: (Debye Ang)
    XX:     2.5200     YY:    -0.5558     ZZ:    -1.9642
    XY:    -2.1460     XZ:    -0.8982     YZ:    -0.7035

  Mulliken Charges: (a.u.)
   Center  Symbol    Alpha    Beta     Spin     Total
       1     H     0.31054  0.31054  0.00000  0.37893
       2     N     3.89172  3.89172  0.00000 -0.78345
       3     C     3.14115  3.14115  0.00000 -0.28231
       4     C     2.63068  2.63068  0.00000  0.73864
       5     H     0.38685  0.38685  0.00000  0.22631
       6     H     0.41691  0.41691  0.00000  0.16618
       7     H     0.41611  0.41611  0.00000  0.16777
       8     C     3.29560  3.29560  0.00000 -0.59121
       9     O     4.30233  4.30233  0.00000 -0.60466
      10     H     0.40797  0.40797  0.00000  0.18407
      11     H     0.39190  0.39190  0.00000  0.21621
      12     H     0.40824  0.40824  0.00000  0.18352

   Total alpha = 20.00000, Total beta = 20.00000, Total charge = -0.00000


*** PSI4 exiting successfully. Buy a developer a beer!
