    -----------------------------------------------------------------------
          Psi4: An Open-Source Ab Initio Electronic Structure Package
                              Psi4 (no tag) Driver

                          Git: Rev {detached?}  

    J. M. Turney, A. C. Simmonett, R. M. Parrish, E. G. Hohenstein,
    F. A. Evangelista, J. T. Fermann, B. J. Mintz, L. A. Burns, J. J. Wilke,
    M. L. Abrams, N. J. Russ, M. L. Leininger, C. L. Janssen, E. T. Seidl,
    W. D. Allen, H. F. Schaefer, R. A. King, E. F. Valeev, C. D. Sherrill,
    and T. D. Crawford, WIREs Comput. Mol. Sci. 2, 556-565 (2012)
    (doi: 10.1002/wcms.93)

                         Additional Contributions by
    A. E. DePrince, M. Saitow, U. Bozkaya, A. Yu. Sokolov
    -----------------------------------------------------------------------


    Psi4 started on: Tue Jul  5 16:21:11 2016

    Process ID:  25302
    PSI4DATADIR: /export131/home/mjharvey/miniconda3/share
    Memory level set to 256.000 MB

  ==> Input File <==

--------------------------------------------------------------------------
set {
	reference rhf
	basis 6-31G*
}


set_num_threads( 1 )
memory 2 gb

molecule MOL {
0 1

H	 -0.367348	 2.047014	 -0.308205
C	 0.352277	 1.337084	 0.083769
N	 -0.000016	 0.000074	 -0.335546
H	 1.328359	 1.600444	 -0.307950
H	 0.381933	 1.450534	 1.172486
C	 -0.247192	 -0.871328	 0.790435
C	 -1.101854	 -0.000061	 -1.270484
H	 -0.437766	 -1.879505	 0.440275
H	 0.626457	 -0.900337	 1.431808
H	 -1.102570	 -0.555498	 1.396622
H	 -0.852123	 0.606720	 -2.133517
H	 -1.290823	 -1.010115	 -1.616202
H	 -2.029604	 0.389928	 -0.839074

	symmetry c1
}
ee = energy('scf')
oeprop('DIPOLE', 'QUADRUPOLE', 'MULLIKEN_CHARGES')
f=open( 'psi4out.xyz', 'w' )
f.write( "13  " )
f.write( str(ee) + "\n" )
f.write( MOL.save_string_xyz() )
f.close()
--------------------------------------------------------------------------

  Memory set to   2.000 GiB by Python script.

*** tstart() called on cx1-3-1-3.cx1.hpc.ic.ac.uk
*** at Tue Jul  5 16:21:11 2016


         ---------------------------------------------------------
                                   SCF
            by Justin Turney, Rob Parrish, and Andy Simmonett
                              RHF Reference
                        1 Threads,   2000 MiB Core
         ---------------------------------------------------------

  ==> Geometry <==

    Molecular point group: c1
    Full point group: C1

    Geometry (in Angstrom), charge = 0, multiplicity = 1:

       Center              X                  Y                   Z               Mass       
    ------------   -----------------  -----------------  -----------------  -----------------
           H         -0.100997942401     1.922554661309    -0.135136381833     1.007825032070
           C          0.618627057599     1.212624661309     0.256837618167    12.000000000000
           N          0.266334057599    -0.124385338691    -0.162477381833    14.003074004780
           H          1.594709057599     1.475984661309    -0.134881381833     1.007825032070
           H          0.648283057599     1.326074661309     1.345554618167     1.007825032070
           C          0.019158057599    -0.995787338691     0.963503618167    12.000000000000
           C         -0.835503942401    -0.124520338691    -1.097415381833    12.000000000000
           H         -0.171415942401    -2.003964338691     0.613343618167     1.007825032070
           H          0.892807057599    -1.024796338691     1.604876618167     1.007825032070
           H         -0.836219942401    -0.679957338691     1.569690618167     1.007825032070
           H         -0.585772942401     0.482260661309    -1.960448381833     1.007825032070
           H         -1.024472942401    -1.134574338691    -1.443133381833     1.007825032070
           H         -1.763253942401     0.265468661309    -0.666005381833     1.007825032070

  Running in c1 symmetry.

  Rotational constants: A =      0.29356  B =      0.29342  C =      0.16557 [cm^-1]
  Rotational constants: A =   8800.77908  B =   8796.44218  C =   4963.77588 [MHz]
  Nuclear repulsion =  139.340149426325155

  Charge       = 0
  Multiplicity = 1
  Electrons    = 34
  Nalpha       = 17
  Nbeta        = 17

  ==> Algorithm <==

  SCF Algorithm Type is DF.
  DIIS enabled.
  MOM disabled.
  Fractional occupation disabled.
  Guess Type is CORE.
  Energy threshold   = 1.00e-06
  Density threshold  = 1.00e-06
  Integral threshold = 0.00e+00

  ==> Primary Basis <==

  Basis Set: 6-31G*
    Number of shells: 42
    Number of basis function: 78
    Number of Cartesian functions: 78
    Spherical Harmonics?: false
    Max angular momentum: 2

  ==> Pre-Iterations <==

   -------------------------------------------------------
    Irrep   Nso     Nmo     Nalpha   Nbeta   Ndocc  Nsocc
   -------------------------------------------------------
     A         78      78       0       0       0       0
   -------------------------------------------------------
    Total      78      78      17      17      17       0
   -------------------------------------------------------

 OEINTS: Overlap, kinetic, potential, dipole, and quadrupole integrals
         stored in file 35.

  ==> Integral Setup <==

  ==> DFJK: Density-Fitted J/K Matrices <==

    J tasked:                  Yes
    K tasked:                  Yes
    wK tasked:                  No
    OpenMP threads:              1
    Integrals threads:           1
    Memory (MB):              1430
    Algorithm:                Core
    Integral Cache:           NONE
    Schwarz Cutoff:          1E-12
    Fitting Condition:       1E-12

   => Auxiliary Basis Set <=

  Basis Set: 
    Number of shells: 177
    Number of basis function: 549
    Number of Cartesian functions: 549
    Spherical Harmonics?: false
    Max angular momentum: 3

  Minimum eigenvalue in the overlap matrix is 6.0461784207E-03.
  Using Symmetric Orthogonalization.
  SCF Guess: Core (One-Electron) Hamiltonian.

  ==> Iterations <==

                           Total Energy        Delta E     RMS |[F,P]|

   @DF-RHF iter   1:  -136.62752690985562   -1.36628e+02   8.44386e-02 
   @DF-RHF iter   2:  -146.72021814196617   -1.00927e+01   5.28106e-02 DIIS
   @DF-RHF iter   3:  -169.41983364051563   -2.26996e+01   3.70933e-02 DIIS
   @DF-RHF iter   4:  -172.17401220786385   -2.75418e+00   1.92248e-02 DIIS
   @DF-RHF iter   5:  -173.22362169583371   -1.04961e+00   3.34986e-03 DIIS
   @DF-RHF iter   6:  -173.25926898477914   -3.56473e-02   9.36646e-04 DIIS
   @DF-RHF iter   7:  -173.26150119021614   -2.23221e-03   1.04507e-04 DIIS
   @DF-RHF iter   8:  -173.26156696937605   -6.57792e-05   3.94075e-05 DIIS
   @DF-RHF iter   9:  -173.26157365568449   -6.68631e-06   7.96157e-06 DIIS
   @DF-RHF iter  10:  -173.26157410400688   -4.48322e-07   1.97814e-06 DIIS
   @DF-RHF iter  11:  -173.26157412527490   -2.12680e-08   6.63309e-07 DIIS

  ==> Post-Iterations <==

    Orbital Energies (a.u.)
    -----------------------

    Doubly Occupied:                                                      

       1A    -15.539832     2A    -11.235736     3A    -11.235167  
       4A    -11.233991     5A     -1.224313     6A     -0.951647  
       7A     -0.950440     8A     -0.806759     9A     -0.639556  
      10A     -0.628873    11A     -0.628055    12A     -0.550494  
      13A     -0.548939    14A     -0.513885    15A     -0.499607  
      16A     -0.496708    17A     -0.342615  

    Virtual:                                                              

      18A      0.228795    19A      0.297100    20A      0.301744  
      21A      0.302885    22A      0.309843    23A      0.314939  
      24A      0.336713    25A      0.348873    26A      0.355588  
      27A      0.361617    28A      0.434821    29A      0.468003  
      30A      0.722437    31A      0.754824    32A      0.766537  
      33A      0.801640    34A      0.819047    35A      0.861281  
      36A      0.893787    37A      0.923812    38A      1.000205  
      39A      1.100335    40A      1.105635    41A      1.137870  
      42A      1.147294    43A      1.152699    44A      1.154281  
      45A      1.190525    46A      1.205754    47A      1.243374  
      48A      1.260832    49A      1.263098    50A      1.280192  
      51A      1.291656    52A      1.577850    53A      1.624584  
      54A      1.637172    55A      1.739756    56A      1.748300  
      57A      2.087546    58A      2.206634    59A      2.254151  
      60A      2.289663    61A      2.344277    62A      2.355833  
      63A      2.459569    64A      2.476641    65A      2.479684  
      66A      2.568133    67A      2.600175    68A      2.613255  
      69A      2.653978    70A      2.886036    71A      2.954610  
      72A      2.960952    73A      3.154131    74A      3.177849  
      75A      4.482257    76A      4.664839    77A      4.685940  
      78A      4.796870  

    Final Occupation by Irrep:
              A 
    DOCC [    17 ]

  Energy converged.

  @DF-RHF Final Energy:  -173.26157412527490

   => Energetics <=

    Nuclear Repulsion Energy =            139.3401494263251550
    One-Electron Energy =                -509.1503450717374335
    Two-Electron Energy =                 196.5486215201373739
    DFT Exchange-Correlation Energy =       0.0000000000000000
    Empirical Dispersion Energy =           0.0000000000000000
    PCM Polarization Energy =               0.0000000000000000
    EFP Energy =                            0.0000000000000000
    Total Energy =                       -173.2615741252748762

    Alert: EFP and PCM quantities not currently incorporated into SCF psivars.

Properties will be evaluated at   0.000000,   0.000000,   0.000000 Bohr
  ==> Properties <==


Properties computed using the SCF density matrix

  Nuclear Dipole Moment: (a.u.)
     X:    -1.2629      Y:     0.5901      Z:     0.7447

  Electronic Dipole Moment: (a.u.)
     X:     0.9941      Y:    -0.4487      Z:    -0.5727

  Dipole Moment: (a.u.)
     X:    -0.2688      Y:     0.1414      Z:     0.1719     Total:     0.3490

  Dipole Moment: (Debye)
     X:    -0.6832      Y:     0.3594      Z:     0.4370     Total:     0.8871


  Saving occupied orbitals to File 180.

*** tstop() called on cx1-3-1-3.cx1.hpc.ic.ac.uk at Tue Jul  5 16:21:14 2016
Module time:
	user time   =       3.02 seconds =       0.05 minutes
	system time =       0.02 seconds =       0.00 minutes
	total time  =          3 seconds =       0.05 minutes
Total time:
	user time   =       3.02 seconds =       0.05 minutes
	system time =       0.02 seconds =       0.00 minutes
	total time  =          3 seconds =       0.05 minutes


Properties will be evaluated at   0.000000,   0.000000,   0.000000 Bohr

Properties computed using the  density matrix

  Nuclear Dipole Moment: (a.u.)
     X:    -1.2629      Y:     0.5901      Z:     0.7447

  Electronic Dipole Moment: (a.u.)
     X:     0.9941      Y:    -0.4487      Z:    -0.5727

  Dipole Moment: (a.u.)
     X:    -0.2688      Y:     0.1414      Z:     0.1719     Total:     0.3490

  Dipole Moment: (Debye)
     X:    -0.6832      Y:     0.3594      Z:     0.4370     Total:     0.8871

  Quadrupole Moment: (Debye Ang)
    XX:   -28.4123     YY:   -26.6590     ZZ:   -26.9198
    XY:     0.8060     XZ:     1.2505     YZ:    -0.4085

  Traceless Quadrupole Moment: (Debye Ang)
    XX:    -1.0819     YY:     0.6713     ZZ:     0.4106
    XY:     0.8060     XZ:     1.2505     YZ:    -0.4085

  Mulliken Charges: (a.u.)
   Center  Symbol    Alpha    Beta     Spin     Total
       1     H     0.42402  0.42402  0.00000  0.15197
       2     C     3.14608  3.14608  0.00000 -0.29217
       3     N     3.76528  3.76528  0.00000 -0.53057
       4     H     0.41525  0.41525  0.00000  0.16951
       5     H     0.42258  0.42258  0.00000  0.15484
       6     C     3.14384  3.14384  0.00000 -0.28767
       7     C     3.14487  3.14487  0.00000 -0.28973
       8     H     0.41810  0.41810  0.00000  0.16379
       9     H     0.41603  0.41603  0.00000  0.16795
      10     H     0.43567  0.43567  0.00000  0.12866
      11     H     0.41571  0.41571  0.00000  0.16857
      12     H     0.41737  0.41737  0.00000  0.16526
      13     H     0.43521  0.43521  0.00000  0.12958

   Total alpha = 17.00000, Total beta = 17.00000, Total charge = -0.00000


*** PSI4 exiting successfully. Buy a developer a beer!
