    -----------------------------------------------------------------------
          Psi4: An Open-Source Ab Initio Electronic Structure Package
                              Psi4 (no tag) Driver

                          Git: Rev {detached?}  

    J. M. Turney, A. C. Simmonett, R. M. Parrish, E. G. Hohenstein,
    F. A. Evangelista, J. T. Fermann, B. J. Mintz, L. A. Burns, J. J. Wilke,
    M. L. Abrams, N. J. Russ, M. L. Leininger, C. L. Janssen, E. T. Seidl,
    W. D. Allen, H. F. Schaefer, R. A. King, E. F. Valeev, C. D. Sherrill,
    and T. D. Crawford, WIREs Comput. Mol. Sci. 2, 556-565 (2012)
    (doi: 10.1002/wcms.93)

                         Additional Contributions by
    A. E. DePrince, M. Saitow, U. Bozkaya, A. Yu. Sokolov
    -----------------------------------------------------------------------


    Psi4 started on: Tue Jul 26 13:34:08 2016

    Process ID:  12282
    PSI4DATADIR: /export131/home/mjharvey/miniconda3/share
    Memory level set to 256.000 MB

  ==> Input File <==

--------------------------------------------------------------------------
set {
	reference rhf
	basis 6-31G*
}


set_num_threads( 24 )
memory 2 gb

molecule MOL {
0 1

H	 -1.248276	 -3.200123	 1.258417
C	 -1.809386	 -2.286161	 1.233799
C	 -1.224516	 -1.150904	 1.538115
H	 -2.847035	 -2.327978	 0.957941
O	 -0.058873	 -1.105489	 2.235090
H	 -1.619396	 -0.196309	 1.239706
C	 1.122280	 -0.938099	 1.529193
C	 1.575007	 -2.228300	 0.883472
H	 1.928985	 -0.573371	 2.155427
H	 0.937284	 -0.221590	 0.743120
F	 0.516023	 -2.913006	 0.476399
F	 2.338925	 -2.006426	 -0.172989
F	 2.253173	 -2.987911	 1.717973

	symmetry c1
}
set optking {
	frozen_dihedral = ("
		11 8 7 9,
		3 5 7 9,
		6 3 2 1
	")
}

ee = energy('scf')
oeprop('DIPOLE', 'QUADRUPOLE', 'MULLIKEN_CHARGES')
f=open( 'psi4out.xyz', 'w' )
f.write( "13  " )
f.write( str(ee) + "\n" )
f.write( MOL.save_string_xyz() )
f.close()
--------------------------------------------------------------------------

  Memory set to   2.000 GiB by Python script.

*** tstart() called on cx1b.hpc.ic.ac.uk
*** at Tue Jul 26 13:34:08 2016


         ---------------------------------------------------------
                                   SCF
            by Justin Turney, Rob Parrish, and Andy Simmonett
                              RHF Reference
                       24 Threads,   2000 MiB Core
         ---------------------------------------------------------

  ==> Geometry <==

    Molecular point group: c1
    Full point group: C1

    Geometry (in Angstrom), charge = 0, multiplicity = 1:

       Center              X                  Y                   Z               Mass       
    ------------   -----------------  -----------------  -----------------  -----------------
           H         -1.956003508779    -1.186931242508     0.125565636710     1.007825032070
           C         -2.517113508779    -0.272969242508     0.100947636710    12.000000000000
           C         -1.932243508779     0.862287757492     0.405263636710    12.000000000000
           H         -3.554762508779    -0.314786242508    -0.174910363290     1.007825032070
           O         -0.766600508779     0.907702757492     1.102238636710    15.994914619560
           H         -2.327123508779     1.816882757492     0.106854636710     1.007825032070
           C          0.414552491221     1.075092757492     0.396341636710    12.000000000000
           C          0.867279491221    -0.215108242508    -0.249379363290    12.000000000000
           H          1.221257491221     1.439820757492     1.022575636710     1.007825032070
           H          0.229556491221     1.791601757492    -0.389731363290     1.007825032070
           F         -0.191704508779    -0.899814242508    -0.656452363290    18.998403224000
           F          1.631197491221     0.006765757492    -1.305840363290    18.998403224000
           F          1.545445491221    -0.974719242508     0.585121636710    18.998403224000

  Running in c1 symmetry.

  Rotational constants: A =      0.12846  B =      0.05059  C =      0.04609 [cm^-1]
  Rotational constants: A =   3851.03717  B =   1516.65066  C =   1381.87431 [MHz]
  Nuclear repulsion =  425.350580799140403

  Charge       = 0
  Multiplicity = 1
  Electrons    = 64
  Nalpha       = 32
  Nbeta        = 32

  ==> Algorithm <==

  SCF Algorithm Type is DF.
  DIIS enabled.
  MOM disabled.
  Fractional occupation disabled.
  Guess Type is CORE.
  Energy threshold   = 1.00e-06
  Density threshold  = 1.00e-06
  Integral threshold = 0.00e+00

  ==> Primary Basis <==

  Basis Set: 6-31G*
    Number of shells: 58
    Number of basis function: 130
    Number of Cartesian functions: 130
    Spherical Harmonics?: false
    Max angular momentum: 2

  ==> Pre-Iterations <==

   -------------------------------------------------------
    Irrep   Nso     Nmo     Nalpha   Nbeta   Ndocc  Nsocc
   -------------------------------------------------------
     A        130     130       0       0       0       0
   -------------------------------------------------------
    Total     130     130      32      32      32       0
   -------------------------------------------------------

 OEINTS: Overlap, kinetic, potential, dipole, and quadrupole integrals
         stored in file 35.

  ==> Integral Setup <==

  ==> DFJK: Density-Fitted J/K Matrices <==

    J tasked:                  Yes
    K tasked:                  Yes
    wK tasked:                  No
    OpenMP threads:             24
    Integrals threads:          24
    Memory (MB):              1430
    Algorithm:                Core
    Integral Cache:           NONE
    Schwarz Cutoff:          1E-12
    Fitting Condition:       1E-12

   => Auxiliary Basis Set <=

  Basis Set: 
    Number of shells: 237
    Number of basis function: 773
    Number of Cartesian functions: 773
    Spherical Harmonics?: false
    Max angular momentum: 3

  Minimum eigenvalue in the overlap matrix is 1.7688202948E-03.
  Using Symmetric Orthogonalization.
  SCF Guess: Core (One-Electron) Hamiltonian.

  ==> Iterations <==

                           Total Energy        Delta E     RMS |[F,P]|

   @DF-RHF iter   1:  -441.79517436141975   -4.41795e+02   7.55878e-02 
   @DF-RHF iter   2:  -214.33458570532218    2.27461e+02   9.99893e-02 DIIS
   @DF-RHF iter   3:  -490.58866807591869   -2.76254e+02   4.20366e-02 DIIS
   @DF-RHF iter   4:  -425.27189123282130    6.53168e+01   6.44498e-02 DIIS
   @DF-RHF iter   5:  -523.96004760249457   -9.86882e+01   1.56395e-02 DIIS
   @DF-RHF iter   6:  -527.00396379662232   -3.04392e+00   8.40543e-03 DIIS
   @DF-RHF iter   7:  -527.46858522155719   -4.64621e-01   1.93635e-03 DIIS
   @DF-RHF iter   8:  -527.49731885103131   -2.87336e-02   9.79083e-04 DIIS
   @DF-RHF iter   9:  -527.50651211089951   -9.19326e-03   4.33606e-04 DIIS
   @DF-RHF iter  10:  -527.50829555886924   -1.78345e-03   1.98939e-04 DIIS
   @DF-RHF iter  11:  -527.50878231142349   -4.86753e-04   3.31810e-05 DIIS
   @DF-RHF iter  12:  -527.50879831984366   -1.60084e-05   1.32903e-05 DIIS
   @DF-RHF iter  13:  -527.50880163715340   -3.31731e-06   6.14030e-06 DIIS
   @DF-RHF iter  14:  -527.50880216315102   -5.25998e-07   1.67218e-06 DIIS
   @DF-RHF iter  15:  -527.50880222874014   -6.55891e-08   4.69686e-07 DIIS

  ==> Post-Iterations <==

    Orbital Energies (a.u.)
    -----------------------

    Doubly Occupied:                                                      

       1A    -26.345261     2A    -26.342559     3A    -26.339988  
       4A    -20.596136     5A    -11.502508     6A    -11.314013  
       7A    -11.286665     8A    -11.217420     9A     -1.742945  
      10A     -1.640640    11A     -1.640359    12A     -1.429631  
      13A     -1.079133    14A     -1.013654    15A     -0.931214  
      16A     -0.837630    17A     -0.832094    18A     -0.813641  
      19A     -0.788377    20A     -0.721542    21A     -0.714211  
      22A     -0.685824    23A     -0.673481    24A     -0.666222  
      25A     -0.654872    26A     -0.644534    27A     -0.643719  
      28A     -0.589607    29A     -0.557273    30A     -0.518414  
      31A     -0.463313    32A     -0.361603  

    Virtual:                                                              

      33A      0.174465    34A      0.252368    35A      0.269654  
      36A      0.284416    37A      0.298745    38A      0.316723  
      39A      0.343940    40A      0.409704    41A      0.432618  
      42A      0.457491    43A      0.483465    44A      0.507997  
      45A      0.525229    46A      0.682123    47A      0.709603  
      48A      0.741687    49A      0.761554    50A      0.778722  
      51A      0.787565    52A      0.807117    53A      0.814150  
      54A      0.883347    55A      0.898820    56A      0.921643  
      57A      0.984229    58A      1.064789    59A      1.101636  
      60A      1.117191    61A      1.137032    62A      1.152960  
      63A      1.207405    64A      1.221775    65A      1.296221  
      66A      1.330776    67A      1.348941    68A      1.374191  
      69A      1.397031    70A      1.430655    71A      1.476091  
      72A      1.504280    73A      1.568412    74A      1.620056  
      75A      1.636468    76A      1.643975    77A      1.668236  
      78A      1.685025    79A      1.711943    80A      1.744308  
      81A      1.785720    82A      1.830247    83A      1.878982  
      84A      1.938598    85A      1.968330    86A      1.991070  
      87A      2.022060    88A      2.071972    89A      2.111864  
      90A      2.118253    91A      2.145459    92A      2.163608  
      93A      2.220370    94A      2.256318    95A      2.283189  
      96A      2.295764    97A      2.337320    98A      2.354501  
      99A      2.372414   100A      2.394714   101A      2.409755  
     102A      2.421635   103A      2.469789   104A      2.501756  
     105A      2.551182   106A      2.585195   107A      2.659982  
     108A      2.704247   109A      2.770490   110A      2.797064  
     111A      2.846612   112A      2.947107   113A      3.060789  
     114A      3.104761   115A      3.151966   116A      3.186260  
     117A      3.233044   118A      3.279578   119A      3.375756  
     120A      3.425824   121A      3.433120   122A      3.465870  
     123A      4.344519   124A      4.570365   125A      4.625822  
     126A      4.742557   127A      4.888536   128A      4.949291  
     129A      5.126707   130A      5.854896  

    Final Occupation by Irrep:
              A 
    DOCC [    32 ]

  Energy converged.

  @DF-RHF Final Energy:  -527.50880222874014

   => Energetics <=

    Nuclear Repulsion Energy =            425.3505807991404026
    One-Electron Energy =               -1574.5417711585187135
    Two-Electron Energy =                 621.6823881306381736
    DFT Exchange-Correlation Energy =       0.0000000000000000
    Empirical Dispersion Energy =           0.0000000000000000
    PCM Polarization Energy =               0.0000000000000000
    EFP Energy =                            0.0000000000000000
    Total Energy =                       -527.5088022287400236

    Alert: EFP and PCM quantities not currently incorporated into SCF psivars.

Properties will be evaluated at   0.000000,   0.000000,   0.000000 Bohr
  ==> Properties <==


Properties computed using the SCF density matrix

  Nuclear Dipole Moment: (a.u.)
     X:    -8.8072      Y:     5.0911      Z:     1.9516

  Electronic Dipole Moment: (a.u.)
     X:     8.7122      Y:    -4.4277      Z:    -2.2142

  Dipole Moment: (a.u.)
     X:    -0.0950      Y:     0.6635      Z:    -0.2626     Total:     0.7199

  Dipole Moment: (Debye)
     X:    -0.2415      Y:     1.6864      Z:    -0.6675     Total:     1.8297


  Saving occupied orbitals to File 180.

*** tstop() called on cx1b.hpc.ic.ac.uk at Tue Jul 26 13:34:15 2016
Module time:
	user time   =      76.84 seconds =       1.28 minutes
	system time =       3.14 seconds =       0.05 minutes
	total time  =          7 seconds =       0.12 minutes
Total time:
	user time   =      76.84 seconds =       1.28 minutes
	system time =       3.14 seconds =       0.05 minutes
	total time  =          7 seconds =       0.12 minutes


Properties will be evaluated at   0.000000,   0.000000,   0.000000 Bohr

Properties computed using the  density matrix

  Nuclear Dipole Moment: (a.u.)
     X:    -8.8072      Y:     5.0911      Z:     1.9516

  Electronic Dipole Moment: (a.u.)
     X:     8.7122      Y:    -4.4277      Z:    -2.2142

  Dipole Moment: (a.u.)
     X:    -0.0950      Y:     0.6635      Z:    -0.2626     Total:     0.7199

  Dipole Moment: (Debye)
     X:    -0.2415      Y:     1.6864      Z:    -0.6675     Total:     1.8297

  Quadrupole Moment: (Debye Ang)
    XX:   -42.7459     YY:   -41.6082     ZZ:   -48.6601
    XY:     1.6184     XZ:     3.0737     YZ:    -0.6761

  Traceless Quadrupole Moment: (Debye Ang)
    XX:     1.5921     YY:     2.7299     ZZ:    -4.3220
    XY:     1.6184     XZ:     3.0737     YZ:    -0.6761

  Mulliken Charges: (a.u.)
   Center  Symbol    Alpha    Beta     Spin     Total
       1     H     0.39289  0.39289  0.00000  0.21422
       2     C     3.20662  3.20662  0.00000 -0.41324
       3     C     2.92784  2.92784  0.00000  0.14432
       4     H     0.40736  0.40736  0.00000  0.18528
       5     O     4.30238  4.30238  0.00000 -0.60475
       6     H     0.41092  0.41092  0.00000  0.17816
       7     C     3.06193  3.06193  0.00000 -0.12386
       8     C     2.45142  2.45142  0.00000  1.09715
       9     H     0.39214  0.39214  0.00000  0.21572
      10     H     0.40846  0.40846  0.00000  0.18309
      11     F     4.68063  4.68063  0.00000 -0.36126
      12     F     4.68102  4.68102  0.00000 -0.36204
      13     F     4.67639  4.67639  0.00000 -0.35279

   Total alpha = 32.00000, Total beta = 32.00000, Total charge =  0.00000


*** PSI4 exiting successfully. Buy a developer a beer!
