    -----------------------------------------------------------------------
          Psi4: An Open-Source Ab Initio Electronic Structure Package
                              Psi4 (no tag) Driver

                          Git: Rev {detached?}  

    J. M. Turney, A. C. Simmonett, R. M. Parrish, E. G. Hohenstein,
    F. A. Evangelista, J. T. Fermann, B. J. Mintz, L. A. Burns, J. J. Wilke,
    M. L. Abrams, N. J. Russ, M. L. Leininger, C. L. Janssen, E. T. Seidl,
    W. D. Allen, H. F. Schaefer, R. A. King, E. F. Valeev, C. D. Sherrill,
    and T. D. Crawford, WIREs Comput. Mol. Sci. 2, 556-565 (2012)
    (doi: 10.1002/wcms.93)

                         Additional Contributions by
    A. E. DePrince, M. Saitow, U. Bozkaya, A. Yu. Sokolov
    -----------------------------------------------------------------------


    Psi4 started on: Tue Jul  5 16:27:11 2016

    Process ID:   4644
    PSI4DATADIR: /export131/home/mjharvey/miniconda3/share
    Memory level set to 256.000 MB

  ==> Input File <==

--------------------------------------------------------------------------
set {
	reference rhf
	basis 6-31G*
}


set_num_threads( 1 )
memory 2 gb

molecule MOL {
0 1

H	 -0.063110	 2.563950	 0.303720
C	 0.810739	 1.914567	 0.374269
N	 0.538815	 0.649616	 0.000000
O	 1.871765	 2.320387	 0.746749
C	 1.521968	 -0.411503	 0.000000
H	 -0.389078	 0.442218	 -0.290319
H	 2.150599	 -0.357004	 -0.881901
H	 0.999455	 -1.354525	 0.000000
H	 2.150599	 -0.357004	 0.881901

	symmetry c1
}
set optking {
	frozen_dihedral = ("
		1 2 3 6
	")
}

ee = energy('scf')
oeprop('DIPOLE', 'QUADRUPOLE', 'MULLIKEN_CHARGES')
f=open( 'psi4out.xyz', 'w' )
f.write( "9  " )
f.write( str(ee) + "\n" )
f.write( MOL.save_string_xyz() )
f.close()
--------------------------------------------------------------------------

  Memory set to   2.000 GiB by Python script.

*** tstart() called on cx1-1-4-3.cx1.hpc.ic.ac.uk
*** at Tue Jul  5 16:27:11 2016


         ---------------------------------------------------------
                                   SCF
            by Justin Turney, Rob Parrish, and Andy Simmonett
                              RHF Reference
                        1 Threads,   2000 MiB Core
         ---------------------------------------------------------

  ==> Geometry <==

    Molecular point group: c1
    Full point group: C1

    Geometry (in Angstrom), charge = 0, multiplicity = 1:

       Center              X                  Y                   Z               Mass       
    ------------   -----------------  -----------------  -----------------  -----------------
           H         -1.254948007757     1.459682722746     0.025100004780     1.007825032070
           C         -0.381099007757     0.810299722746     0.095649004780    12.000000000000
           N         -0.653023007757    -0.454651277254    -0.278619995220    14.003074004780
           O          0.679926992243     1.216119722746     0.468129004780    15.994914619560
           C          0.330129992243    -1.515770277254    -0.278619995220    12.000000000000
           H         -1.580916007757    -0.662049277254    -0.568938995220     1.007825032070
           H          0.958760992243    -1.461271277254    -1.160520995220     1.007825032070
           H         -0.192383007757    -2.458792277254    -0.278619995220     1.007825032070
           H          0.958760992243    -1.461271277254     0.603281004780     1.007825032070

  Running in c1 symmetry.

  Rotational constants: A =      0.68404  B =      0.20537  C =      0.16273 [cm^-1]
  Rotational constants: A =  20506.97925  B =   6156.85800  C =   4878.40666 [MHz]
  Nuclear repulsion =  122.341308668813639

  Charge       = 0
  Multiplicity = 1
  Electrons    = 32
  Nalpha       = 16
  Nbeta        = 16

  ==> Algorithm <==

  SCF Algorithm Type is DF.
  DIIS enabled.
  MOM disabled.
  Fractional occupation disabled.
  Guess Type is CORE.
  Energy threshold   = 1.00e-06
  Density threshold  = 1.00e-06
  Integral threshold = 0.00e+00

  ==> Primary Basis <==

  Basis Set: 6-31G*
    Number of shells: 34
    Number of basis function: 70
    Number of Cartesian functions: 70
    Spherical Harmonics?: false
    Max angular momentum: 2

  ==> Pre-Iterations <==

   -------------------------------------------------------
    Irrep   Nso     Nmo     Nalpha   Nbeta   Ndocc  Nsocc
   -------------------------------------------------------
     A         70      70       0       0       0       0
   -------------------------------------------------------
    Total      70      70      16      16      16       0
   -------------------------------------------------------

 OEINTS: Overlap, kinetic, potential, dipole, and quadrupole integrals
         stored in file 35.

  ==> Integral Setup <==

  ==> DFJK: Density-Fitted J/K Matrices <==

    J tasked:                  Yes
    K tasked:                  Yes
    wK tasked:                  No
    OpenMP threads:              1
    Integrals threads:           1
    Memory (MB):              1430
    Algorithm:                Core
    Integral Cache:           NONE
    Schwarz Cutoff:          1E-12
    Fitting Condition:       1E-12

   => Auxiliary Basis Set <=

  Basis Set: 
    Number of shells: 141
    Number of basis function: 449
    Number of Cartesian functions: 449
    Spherical Harmonics?: false
    Max angular momentum: 3

  Minimum eigenvalue in the overlap matrix is 4.5584860762E-03.
  Using Symmetric Orthogonalization.
  SCF Guess: Core (One-Electron) Hamiltonian.

  ==> Iterations <==

                           Total Energy        Delta E     RMS |[F,P]|

   @DF-RHF iter   1:  -166.86119232722140   -1.66861e+02   9.45834e-02 
   @DF-RHF iter   2:  -131.05065344317674    3.58105e+01   8.53878e-02 DIIS
   @DF-RHF iter   3:  -190.73323045830548   -5.96826e+01   5.14503e-02 DIIS
   @DF-RHF iter   4:  -205.65673428512045   -1.49235e+01   2.87801e-02 DIIS
   @DF-RHF iter   5:  -207.86815592953261   -2.21142e+00   6.18000e-03 DIIS
   @DF-RHF iter   6:  -207.95288540265213   -8.47295e-02   1.63702e-03 DIIS
   @DF-RHF iter   7:  -207.95973177725446   -6.84637e-03   5.81201e-04 DIIS
   @DF-RHF iter   8:  -207.96057139357063   -8.39616e-04   2.70903e-04 DIIS
   @DF-RHF iter   9:  -207.96075032162676   -1.78928e-04   8.34629e-05 DIIS
   @DF-RHF iter  10:  -207.96077532979282   -2.50082e-05   2.18273e-05 DIIS
   @DF-RHF iter  11:  -207.96077703720110   -1.70741e-06   8.06778e-06 DIIS
   @DF-RHF iter  12:  -207.96077724653023   -2.09329e-07   3.40233e-06 DIIS
   @DF-RHF iter  13:  -207.96077728350738   -3.69772e-08   5.66093e-07 DIIS

  ==> Post-Iterations <==

    Orbital Energies (a.u.)
    -----------------------

    Doubly Occupied:                                                      

       1A    -20.525831     2A    -15.590838     3A    -11.343067  
       4A    -11.262327     5A     -1.388278     6A     -1.236641  
       7A     -0.969568     8A     -0.806834     9A     -0.745992  
      10A     -0.641245    11A     -0.627071    12A     -0.593178  
      13A     -0.558633    14A     -0.533925    15A     -0.423024  
      16A     -0.390949  

    Virtual:                                                              

      17A      0.210737    18A      0.218086    19A      0.263794  
      20A      0.297147    21A      0.318268    22A      0.334765  
      23A      0.387531    24A      0.442998    25A      0.567960  
      26A      0.716315    27A      0.730945    28A      0.774584  
      29A      0.796491    30A      0.836987    31A      0.955140  
      32A      1.011141    33A      1.036067    34A      1.066854  
      35A      1.097525    36A      1.118785    37A      1.143000  
      38A      1.188696    39A      1.200079    40A      1.218860  
      41A      1.313339    42A      1.333452    43A      1.390963  
      44A      1.576230    45A      1.617726    46A      1.640281  
      47A      1.698565    48A      1.813710    49A      1.856767  
      50A      2.054883    51A      2.140696    52A      2.187427  
      53A      2.229797    54A      2.337839    55A      2.353329  
      56A      2.446982    57A      2.513047    58A      2.583104  
      59A      2.696405    60A      2.711738    61A      2.844282  
      62A      2.926153    63A      3.044127    64A      3.118592  
      65A      3.329427    66A      3.492644    67A      4.238229  
      68A      4.400361    69A      4.583197    70A      4.739889  

    Final Occupation by Irrep:
              A 
    DOCC [    16 ]

  Energy converged.

  @DF-RHF Final Energy:  -207.96077728350738

   => Energetics <=

    Nuclear Repulsion Energy =            122.3413086688136389
    One-Electron Energy =                -525.3294131254651802
    Two-Electron Energy =                 195.0273271731442151
    DFT Exchange-Correlation Energy =       0.0000000000000000
    Empirical Dispersion Energy =           0.0000000000000000
    PCM Polarization Energy =               0.0000000000000000
    EFP Energy =                            0.0000000000000000
    Total Energy =                       -207.9607772835072979

    Alert: EFP and PCM quantities not currently incorporated into SCF psivars.

Properties will be evaluated at   0.000000,   0.000000,   0.000000 Bohr
  ==> Properties <==


Properties computed using the SCF density matrix

  Nuclear Dipole Moment: (a.u.)
     X:    -1.0361      Y:    -4.2899      Z:    -1.2904

  Electronic Dipole Moment: (a.u.)
     X:    -0.1454      Y:     3.2896      Z:     0.7661

  Dipole Moment: (a.u.)
     X:    -1.1815      Y:    -1.0003      Z:    -0.5243     Total:     1.6345

  Dipole Moment: (Debye)
     X:    -3.0032      Y:    -2.5425      Z:    -1.3326     Total:     4.1544


  Saving occupied orbitals to File 180.

*** tstop() called on cx1-1-4-3.cx1.hpc.ic.ac.uk at Tue Jul  5 16:27:14 2016
Module time:
	user time   =       2.02 seconds =       0.03 minutes
	system time =       0.03 seconds =       0.00 minutes
	total time  =          3 seconds =       0.05 minutes
Total time:
	user time   =       2.02 seconds =       0.03 minutes
	system time =       0.03 seconds =       0.00 minutes
	total time  =          3 seconds =       0.05 minutes


Properties will be evaluated at   0.000000,   0.000000,   0.000000 Bohr

Properties computed using the  density matrix

  Nuclear Dipole Moment: (a.u.)
     X:    -1.0361      Y:    -4.2899      Z:    -1.2904

  Electronic Dipole Moment: (a.u.)
     X:    -0.1454      Y:     3.2896      Z:     0.7661

  Dipole Moment: (a.u.)
     X:    -1.1815      Y:    -1.0003      Z:    -0.5243     Total:     1.6345

  Dipole Moment: (Debye)
     X:    -3.0032      Y:    -2.5425      Z:    -1.3326     Total:     4.1544

  Quadrupole Moment: (Debye Ang)
    XX:   -22.4661     YY:   -24.3331     ZZ:   -24.8593
    XY:    -2.9330     XZ:    -0.0450     YZ:    -0.7965

  Traceless Quadrupole Moment: (Debye Ang)
    XX:     1.4200     YY:    -0.4469     ZZ:    -0.9731
    XY:    -2.9330     XZ:    -0.0450     YZ:    -0.7965

  Mulliken Charges: (a.u.)
   Center  Symbol    Alpha    Beta     Spin     Total
       1     H     0.42842  0.42842  0.00000  0.14316
       2     C     2.74577  2.74577  0.00000  0.50845
       3     N     3.87621  3.87621  0.00000 -0.75242
       4     O     4.28287  4.28287  0.00000 -0.56575
       5     C     3.13676  3.13676  0.00000 -0.27352
       6     H     0.30799  0.30799  0.00000  0.38402
       7     H     0.40933  0.40933  0.00000  0.18134
       8     H     0.41537  0.41537  0.00000  0.16926
       9     H     0.39728  0.39728  0.00000  0.20543

   Total alpha = 16.00000, Total beta = 16.00000, Total charge = -0.00000


*** PSI4 exiting successfully. Buy a developer a beer!
