    -----------------------------------------------------------------------
          Psi4: An Open-Source Ab Initio Electronic Structure Package
                              Psi4 (no tag) Driver

                          Git: Rev {detached?}  

    J. M. Turney, A. C. Simmonett, R. M. Parrish, E. G. Hohenstein,
    F. A. Evangelista, J. T. Fermann, B. J. Mintz, L. A. Burns, J. J. Wilke,
    M. L. Abrams, N. J. Russ, M. L. Leininger, C. L. Janssen, E. T. Seidl,
    W. D. Allen, H. F. Schaefer, R. A. King, E. F. Valeev, C. D. Sherrill,
    and T. D. Crawford, WIREs Comput. Mol. Sci. 2, 556-565 (2012)
    (doi: 10.1002/wcms.93)

                         Additional Contributions by
    A. E. DePrince, M. Saitow, U. Bozkaya, A. Yu. Sokolov
    -----------------------------------------------------------------------


    Psi4 started on: Tue Jul  5 16:27:48 2016

    Process ID:  21601
    PSI4DATADIR: /export131/home/mjharvey/miniconda3/share
    Memory level set to 256.000 MB

  ==> Input File <==

--------------------------------------------------------------------------
set {
	reference rhf
	basis 6-31G*
}


set_num_threads( 1 )
memory 2 gb

molecule MOL {
0 1

H	 -2.798360	 -0.862255	 -0.071053
N	 -1.863561	 -0.715187	 0.256814
C	 -1.344686	 0.554728	 -0.219830
H	 -1.300452	 -1.461917	 -0.101532
C	 0.081427	 0.741154	 0.254071
H	 -1.362155	 0.656231	 -1.305829
H	 -1.952773	 1.354456	 0.191809
O	 0.101382	 0.610586	 1.646781
H	 0.730400	 -0.006551	 -0.201350
H	 0.437859	 1.726597	 -0.037637
C	 1.344511	 0.844470	 2.227729
H	 1.237086	 0.714356	 3.296011
H	 2.092921	 0.143676	 1.862006
H	 1.692427	 1.855962	 2.028613

	symmetry c1
}
set optking {
	frozen_dihedral = ("
		6 3 2 4,
		5 8 11 13,
		11 8 5 3
	")
}

ee = energy('scf')
oeprop('DIPOLE', 'QUADRUPOLE', 'MULLIKEN_CHARGES')
f=open( 'psi4out.xyz', 'w' )
f.write( "14  " )
f.write( str(ee) + "\n" )
f.write( MOL.save_string_xyz() )
f.close()
--------------------------------------------------------------------------

  Memory set to   2.000 GiB by Python script.

*** tstart() called on cx1-3-6-4.cx1.hpc.ic.ac.uk
*** at Tue Jul  5 16:27:49 2016


         ---------------------------------------------------------
                                   SCF
            by Justin Turney, Rob Parrish, and Andy Simmonett
                              RHF Reference
                        1 Threads,   2000 MiB Core
         ---------------------------------------------------------

  ==> Geometry <==

    Molecular point group: c1
    Full point group: C1

    Geometry (in Angstrom), charge = 0, multiplicity = 1:

       Center              X                  Y                   Z               Mass       
    ------------   -----------------  -----------------  -----------------  -----------------
           H         -2.468906129133    -1.256408484566    -0.907427174846     1.007825032070
           N         -1.534107129133    -1.109340484566    -0.579560174846    14.003074004780
           C         -1.015232129133     0.160574515434    -1.056204174846    12.000000000000
           H         -0.970998129133    -1.856070484566    -0.937906174846     1.007825032070
           C          0.410880870867     0.347000515434    -0.582303174846    12.000000000000
           H         -1.032701129133     0.262077515434    -2.142203174846     1.007825032070
           H         -1.623319129133     0.960302515434    -0.644565174846     1.007825032070
           O          0.430835870867     0.216432515434     0.810406825154    15.994914619560
           H          1.059853870867    -0.400704484566    -1.037724174846     1.007825032070
           H          0.767312870867     1.332443515434    -0.874011174846     1.007825032070
           C          1.673964870867     0.450316515434     1.391354825154    12.000000000000
           H          1.566539870867     0.320202515434     2.459636825154     1.007825032070
           H          2.422374870867    -0.250477484566     1.025631825154     1.007825032070
           H          2.021880870867     1.461808515434     1.192238825154     1.007825032070

  Running in c1 symmetry.

  Rotational constants: A =      0.43583  B =      0.09106  C =      0.08207 [cm^-1]
  Rotational constants: A =  13065.86751  B =   2729.96544  C =   2460.40091 [MHz]
  Nuclear repulsion =  194.610235561066787

  Charge       = 0
  Multiplicity = 1
  Electrons    = 42
  Nalpha       = 21
  Nbeta        = 21

  ==> Algorithm <==

  SCF Algorithm Type is DF.
  DIIS enabled.
  MOM disabled.
  Fractional occupation disabled.
  Guess Type is CORE.
  Energy threshold   = 1.00e-06
  Density threshold  = 1.00e-06
  Integral threshold = 0.00e+00

  ==> Primary Basis <==

  Basis Set: 6-31G*
    Number of shells: 48
    Number of basis function: 93
    Number of Cartesian functions: 93
    Spherical Harmonics?: false
    Max angular momentum: 2

  ==> Pre-Iterations <==

   -------------------------------------------------------
    Irrep   Nso     Nmo     Nalpha   Nbeta   Ndocc  Nsocc
   -------------------------------------------------------
     A         93      93       0       0       0       0
   -------------------------------------------------------
    Total      93      93      21      21      21       0
   -------------------------------------------------------

 OEINTS: Overlap, kinetic, potential, dipole, and quadrupole integrals
         stored in file 35.

  ==> Integral Setup <==

  ==> DFJK: Density-Fitted J/K Matrices <==

    J tasked:                  Yes
    K tasked:                  Yes
    wK tasked:                  No
    OpenMP threads:              1
    Integrals threads:           1
    Memory (MB):              1430
    Algorithm:                Core
    Integral Cache:           NONE
    Schwarz Cutoff:          1E-12
    Fitting Condition:       1E-12

   => Auxiliary Basis Set <=

  Basis Set: 
    Number of shells: 201
    Number of basis function: 630
    Number of Cartesian functions: 630
    Spherical Harmonics?: false
    Max angular momentum: 3

  Minimum eigenvalue in the overlap matrix is 4.4223390298E-03.
  Using Symmetric Orthogonalization.
  SCF Guess: Core (One-Electron) Hamiltonian.

  ==> Iterations <==

                           Total Energy        Delta E     RMS |[F,P]|

   @DF-RHF iter   1:  -202.40574397294196   -2.02406e+02   7.89414e-02 
   @DF-RHF iter   2:  -153.56834312144090    4.88374e+01   6.65653e-02 DIIS
   @DF-RHF iter   3:  -210.07222440931312   -5.65039e+01   6.15360e-02 DIIS
   @DF-RHF iter   4:  -238.23139219315803   -2.81592e+01   4.19982e-02 DIIS
   @DF-RHF iter   5:  -247.70306048763493   -9.47167e+00   9.73724e-03 DIIS
   @DF-RHF iter   6:  -248.05824525242210   -3.55185e-01   3.76042e-03 DIIS
   @DF-RHF iter   7:  -248.11413382757152   -5.58886e-02   8.83897e-04 DIIS
   @DF-RHF iter   8:  -248.11746845499184   -3.33463e-03   2.50585e-04 DIIS
   @DF-RHF iter   9:  -248.11783929846334   -3.70843e-04   7.49943e-05 DIIS
   @DF-RHF iter  10:  -248.11787781476986   -3.85163e-05   2.16731e-05 DIIS
   @DF-RHF iter  11:  -248.11788169573893   -3.88097e-06   6.55866e-06 DIIS
   @DF-RHF iter  12:  -248.11788203743507   -3.41696e-07   1.85191e-06 DIIS
   @DF-RHF iter  13:  -248.11788206281571   -2.53806e-08   5.34796e-07 DIIS

  ==> Post-Iterations <==

    Orbital Energies (a.u.)
    -----------------------

    Doubly Occupied:                                                      

       1A    -20.548014     2A    -15.529646     3A    -11.267704  
       4A    -11.260406     5A    -11.242259     6A     -1.372951  
       7A     -1.175425     8A     -0.997893     9A     -0.902808  
      10A     -0.817106    11A     -0.683410    12A     -0.663674  
      13A     -0.647894    14A     -0.613107    15A     -0.584338  
      16A     -0.566067    17A     -0.514581    18A     -0.499882  
      19A     -0.462836    20A     -0.412826    21A     -0.378050  

    Virtual:                                                              

      22A      0.225626    23A      0.255101    24A      0.286896  
      25A      0.290590    26A      0.320131    27A      0.322519  
      28A      0.331657    29A      0.339396    30A      0.351086  
      31A      0.362876    32A      0.430093    33A      0.449240  
      34A      0.450647    35A      0.723392    36A      0.770382  
      37A      0.777572    38A      0.795988    39A      0.811166  
      40A      0.838648    41A      0.879625    42A      0.941279  
      43A      0.994676    44A      1.009977    45A      1.062967  
      46A      1.087603    47A      1.113541    48A      1.150984  
      49A      1.156721    50A      1.164867    51A      1.200222  
      52A      1.212479    53A      1.228398    54A      1.250368  
      55A      1.259005    56A      1.287106    57A      1.312531  
      58A      1.368778    59A      1.420245    60A      1.610816  
      61A      1.684224    62A      1.712325    63A      1.716702  
      64A      1.775725    65A      1.804233    66A      1.934194  
      67A      2.019988    68A      2.055109    69A      2.220973  
      70A      2.246082    71A      2.266702    72A      2.384904  
      73A      2.402864    74A      2.432637    75A      2.479233  
      76A      2.506113    77A      2.522569    78A      2.606851  
      79A      2.633470    80A      2.700368    81A      2.730674  
      82A      2.820163    83A      2.881728    84A      2.900379  
      85A      3.030432    86A      3.081367    87A      3.195615  
      88A      3.347844    89A      4.219080    90A      4.376929  
      91A      4.659237    92A      4.692138    93A      4.892253  

    Final Occupation by Irrep:
              A 
    DOCC [    21 ]

  Energy converged.

  @DF-RHF Final Energy:  -248.11788206281571

   => Energetics <=

    Nuclear Repulsion Energy =            194.6102355610667871
    One-Electron Energy =                -723.1743977815167455
    Two-Electron Energy =                 280.4462801576339643
    DFT Exchange-Correlation Energy =       0.0000000000000000
    Empirical Dispersion Energy =           0.0000000000000000
    PCM Polarization Energy =               0.0000000000000000
    EFP Energy =                            0.0000000000000000
    Total Energy =                       -248.1178820628159656

    Alert: EFP and PCM quantities not currently incorporated into SCF psivars.

Properties will be evaluated at   0.000000,   0.000000,   0.000000 Bohr
  ==> Properties <==


Properties computed using the SCF density matrix

  Nuclear Dipole Moment: (a.u.)
     X:     1.6396      Y:     0.5416      Z:    -1.7440

  Electronic Dipole Moment: (a.u.)
     X:    -1.2529      Y:    -0.4382      Z:     0.9049

  Dipole Moment: (a.u.)
     X:     0.3867      Y:     0.1034      Z:    -0.8392     Total:     0.9297

  Dipole Moment: (Debye)
     X:     0.9829      Y:     0.2628      Z:    -2.1329     Total:     2.3632


  Saving occupied orbitals to File 180.

*** tstop() called on cx1-3-6-4.cx1.hpc.ic.ac.uk at Tue Jul  5 16:27:54 2016
Module time:
	user time   =       4.86 seconds =       0.08 minutes
	system time =       0.04 seconds =       0.00 minutes
	total time  =          5 seconds =       0.08 minutes
Total time:
	user time   =       4.86 seconds =       0.08 minutes
	system time =       0.04 seconds =       0.00 minutes
	total time  =          5 seconds =       0.08 minutes


Properties will be evaluated at   0.000000,   0.000000,   0.000000 Bohr

Properties computed using the  density matrix

  Nuclear Dipole Moment: (a.u.)
     X:     1.6396      Y:     0.5416      Z:    -1.7440

  Electronic Dipole Moment: (a.u.)
     X:    -1.2529      Y:    -0.4382      Z:     0.9049

  Dipole Moment: (a.u.)
     X:     0.3867      Y:     0.1034      Z:    -0.8392     Total:     0.9297

  Dipole Moment: (Debye)
     X:     0.9829      Y:     0.2628      Z:    -2.1329     Total:     2.3632

  Quadrupole Moment: (Debye Ang)
    XX:   -28.7163     YY:   -30.8441     ZZ:   -30.7599
    XY:     0.5923     XZ:     4.1238     YZ:     2.3120

  Traceless Quadrupole Moment: (Debye Ang)
    XX:     1.3905     YY:    -0.7373     ZZ:    -0.6531
    XY:     0.5923     XZ:     4.1238     YZ:     2.3120

  Mulliken Charges: (a.u.)
   Center  Symbol    Alpha    Beta     Spin     Total
       1     H     0.33281  0.33281  0.00000  0.33438
       2     N     3.90885  3.90885  0.00000 -0.81769
       3     C     3.06997  3.06997  0.00000 -0.13993
       4     H     0.33695  0.33695  0.00000  0.32609
       5     C     2.99221  2.99221  0.00000  0.01557
       6     H     0.43416  0.43416  0.00000  0.13168
       7     H     0.41286  0.41286  0.00000  0.17427
       8     O     4.29396  4.29396  0.00000 -0.58793
       9     H     0.43485  0.43485  0.00000  0.13031
      10     H     0.42926  0.42926  0.00000  0.14148
      11     C     3.07814  3.07814  0.00000 -0.15627
      12     H     0.41119  0.41119  0.00000  0.17761
      13     H     0.43223  0.43223  0.00000  0.13554
      14     H     0.43255  0.43255  0.00000  0.13489

   Total alpha = 21.00000, Total beta = 21.00000, Total charge =  0.00000


*** PSI4 exiting successfully. Buy a developer a beer!
