    -----------------------------------------------------------------------
          Psi4: An Open-Source Ab Initio Electronic Structure Package
                              Psi4 (no tag) Driver

                          Git: Rev {detached?}  

    J. M. Turney, A. C. Simmonett, R. M. Parrish, E. G. Hohenstein,
    F. A. Evangelista, J. T. Fermann, B. J. Mintz, L. A. Burns, J. J. Wilke,
    M. L. Abrams, N. J. Russ, M. L. Leininger, C. L. Janssen, E. T. Seidl,
    W. D. Allen, H. F. Schaefer, R. A. King, E. F. Valeev, C. D. Sherrill,
    and T. D. Crawford, WIREs Comput. Mol. Sci. 2, 556-565 (2012)
    (doi: 10.1002/wcms.93)

                         Additional Contributions by
    A. E. DePrince, M. Saitow, U. Bozkaya, A. Yu. Sokolov
    -----------------------------------------------------------------------


    Psi4 started on: Tue Jul  5 16:41:13 2016

    Process ID:   5669
    PSI4DATADIR: /export131/home/mjharvey/miniconda3/share
    Memory level set to 256.000 MB

  ==> Input File <==

--------------------------------------------------------------------------
set {
	reference rhf
	basis 6-31G*
}


set_num_threads( 1 )
memory 2 gb

molecule MOL {
0 1

H	 -2.365336	 -1.312883	 -0.379096
C	 -1.358056	 -1.274295	 0.019707
C	 -0.681654	 0.000119	 -0.470563
H	 -0.825805	 -2.155117	 -0.321067
H	 -1.409263	 -1.292283	 1.100147
C	 -1.357499	 1.274691	 0.020258
N	 0.739816	 -0.000142	 0.006166
H	 -0.593899	 0.000341	 -1.545090
H	 -2.364689	 1.313977	 -0.378593
H	 -0.824789	 2.155361	 -0.320076
H	 -1.408769	 1.292170	 1.100709
O	 1.597566	 0.000909	 -0.821387
O	 0.922101	 -0.001271	 1.186069

	symmetry c1
}
ee = energy('scf')
oeprop('DIPOLE', 'QUADRUPOLE', 'MULLIKEN_CHARGES')
oeprop('GRID_ESP')
f=open( 'psi4out.xyz', 'w' )
f.write( "13  " )
f.write( str(ee) + "\n" )
f.write( MOL.save_string_xyz() )
f.close()
--------------------------------------------------------------------------

  Memory set to   2.000 GiB by Python script.

*** tstart() called on cx1-3-6-2.cx1.hpc.ic.ac.uk
*** at Tue Jul  5 16:41:13 2016


         ---------------------------------------------------------
                                   SCF
            by Justin Turney, Rob Parrish, and Andy Simmonett
                              RHF Reference
                        1 Threads,   2000 MiB Core
         ---------------------------------------------------------

  ==> Geometry <==

    Molecular point group: c1
    Full point group: C1

    Geometry (in Angstrom), charge = 0, multiplicity = 1:

       Center              X                  Y                   Z               Mass       
    ------------   -----------------  -----------------  -----------------  -----------------
           H         -2.365626537780    -1.312882771565    -0.379133551707     1.007825032070
           C         -1.358346537780    -1.274294771565     0.019669448293    12.000000000000
           C         -0.681944537780     0.000119228435    -0.470600551707    12.000000000000
           H         -0.826095537780    -2.155116771565    -0.321104551707     1.007825032070
           H         -1.409553537780    -1.292282771565     1.100109448293     1.007825032070
           C         -1.357789537780     1.274691228435     0.020220448293    12.000000000000
           N          0.739525462220    -0.000141771565     0.006128448293    14.003074004780
           H         -0.594189537780     0.000341228435    -1.545127551707     1.007825032070
           H         -2.364979537780     1.313977228435    -0.378630551707     1.007825032070
           H         -0.825079537780     2.155361228435    -0.320113551707     1.007825032070
           H         -1.409059537780     1.292170228435     1.100671448293     1.007825032070
           O          1.597275462220     0.000909228435    -0.821424551707    15.994914619560
           O          0.921810462220    -0.001270771565     1.186031448293    15.994914619560

  Running in c1 symmetry.

  Rotational constants: A =      0.17470  B =      0.09904  C =      0.09157 [cm^-1]
  Rotational constants: A =   5237.48610  B =   2969.06121  C =   2745.10008 [MHz]
  Nuclear repulsion =  256.777692939769565

  Charge       = 0
  Multiplicity = 1
  Electrons    = 48
  Nalpha       = 24
  Nbeta        = 24

  ==> Algorithm <==

  SCF Algorithm Type is DF.
  DIIS enabled.
  MOM disabled.
  Fractional occupation disabled.
  Guess Type is CORE.
  Energy threshold   = 1.00e-06
  Density threshold  = 1.00e-06
  Integral threshold = 0.00e+00

  ==> Primary Basis <==

  Basis Set: 6-31G*
    Number of shells: 50
    Number of basis function: 104
    Number of Cartesian functions: 104
    Spherical Harmonics?: false
    Max angular momentum: 2

  ==> Pre-Iterations <==

   -------------------------------------------------------
    Irrep   Nso     Nmo     Nalpha   Nbeta   Ndocc  Nsocc
   -------------------------------------------------------
     A        104     104       0       0       0       0
   -------------------------------------------------------
    Total     104     104      24      24      24       0
   -------------------------------------------------------

 OEINTS: Overlap, kinetic, potential, dipole, and quadrupole integrals
         stored in file 35.

  ==> Integral Setup <==

  ==> DFJK: Density-Fitted J/K Matrices <==

    J tasked:                  Yes
    K tasked:                  Yes
    wK tasked:                  No
    OpenMP threads:              1
    Integrals threads:           1
    Memory (MB):              1430
    Algorithm:                Core
    Integral Cache:           NONE
    Schwarz Cutoff:          1E-12
    Fitting Condition:       1E-12

   => Auxiliary Basis Set <=

  Basis Set: 
    Number of shells: 207
    Number of basis function: 661
    Number of Cartesian functions: 661
    Spherical Harmonics?: false
    Max angular momentum: 3

  Minimum eigenvalue in the overlap matrix is 2.6404824436E-03.
  Using Symmetric Orthogonalization.
  SCF Guess: Core (One-Electron) Hamiltonian.

  ==> Iterations <==

                           Total Energy        Delta E     RMS |[F,P]|

   @DF-RHF iter   1:  -236.80213059916343   -2.36802e+02   8.49361e-02 
   @DF-RHF iter   2:  -212.10000623505579    2.47021e+01   6.79894e-02 DIIS
   @DF-RHF iter   3:  -251.41776268535023   -3.93178e+01   7.13534e-02 DIIS
   @DF-RHF iter   4:  -318.95698253033885   -6.75392e+01   2.29949e-02 DIIS
   @DF-RHF iter   5:  -320.80968378580400   -1.85270e+00   1.37441e-02 DIIS
   @DF-RHF iter   6:  -321.65905774801951   -8.49374e-01   3.25233e-03 DIIS
   @DF-RHF iter   7:  -321.71749291492898   -5.84352e-02   2.03506e-03 DIIS
   @DF-RHF iter   8:  -321.73791309597578   -2.04202e-02   3.55675e-04 DIIS
   @DF-RHF iter   9:  -321.73911840008310   -1.20530e-03   1.06648e-04 DIIS
   @DF-RHF iter  10:  -321.73919980285365   -8.14028e-05   5.83593e-05 DIIS
   @DF-RHF iter  11:  -321.73922190426407   -2.21014e-05   2.15251e-05 DIIS
   @DF-RHF iter  12:  -321.73922625592598   -4.35166e-06   4.49157e-06 DIIS
   @DF-RHF iter  13:  -321.73922655132827   -2.95402e-07   1.60099e-06 DIIS
   @DF-RHF iter  14:  -321.73922659017086   -3.88426e-08   6.77346e-07 DIIS

  ==> Post-Iterations <==

    Orbital Energies (a.u.)
    -----------------------

    Doubly Occupied:                                                      

       1A    -20.601547     2A    -20.597695     3A    -15.842797  
       4A    -11.305779     5A    -11.246155     6A    -11.246138  
       7A     -1.628580     8A     -1.414044     9A     -1.143979  
      10A     -0.974727    11A     -0.957892    12A     -0.814086  
      13A     -0.749436    14A     -0.728238    15A     -0.722068  
      16A     -0.650604    17A     -0.594840    18A     -0.588900  
      19A     -0.571394    20A     -0.530062    21A     -0.523185  
      22A     -0.482616    23A     -0.468697    24A     -0.447168  

    Virtual:                                                              

      25A      0.123998    26A      0.217491    27A      0.264311  
      28A      0.275042    29A      0.280292    30A      0.302547  
      31A      0.327146    32A      0.328452    33A      0.341500  
      34A      0.354848    35A      0.417150    36A      0.536881  
      37A      0.613904    38A      0.673767    39A      0.694996  
      40A      0.742135    41A      0.743389    42A      0.768878  
      43A      0.839416    44A      0.903865    45A      0.930079  
      46A      0.947984    47A      0.952734    48A      1.008943  
      49A      1.077299    50A      1.086325    51A      1.089304  
      52A      1.113968    53A      1.131851    54A      1.138152  
      55A      1.163927    56A      1.177535    57A      1.205759  
      58A      1.229785    59A      1.259592    60A      1.269652  
      61A      1.280218    62A      1.307087    63A      1.358386  
      64A      1.437291    65A      1.554709    66A      1.599752  
      67A      1.601295    68A      1.757134    69A      1.772952  
      70A      1.895483    71A      1.910983    72A      2.018910  
      73A      2.035059    74A      2.064432    75A      2.115890  
      76A      2.147960    77A      2.175680    78A      2.220519  
      79A      2.236533    80A      2.290314    81A      2.328416  
      82A      2.370522    83A      2.438125    84A      2.478287  
      85A      2.570996    86A      2.574568    87A      2.595589  
      88A      2.674670    89A      2.682686    90A      2.755274  
      91A      2.871688    92A      2.970135    93A      2.991993  
      94A      3.105107    95A      3.237084    96A      3.251709  
      97A      3.306601    98A      3.494045    99A      4.082573  
     100A      4.278766   101A      4.311688   102A      4.620462  
     103A      4.691193   104A      4.956836  

    Final Occupation by Irrep:
              A 
    DOCC [    24 ]

  Energy converged.

  @DF-RHF Final Energy:  -321.73922659017086

   => Energetics <=

    Nuclear Repulsion Energy =            256.7776929397695653
    One-Electron Energy =                -947.3727122256395887
    Two-Electron Energy =                 368.8557926956988240
    DFT Exchange-Correlation Energy =       0.0000000000000000
    Empirical Dispersion Energy =           0.0000000000000000
    PCM Polarization Energy =               0.0000000000000000
    EFP Energy =                            0.0000000000000000
    Total Energy =                       -321.7392265901711426

    Alert: EFP and PCM quantities not currently incorporated into SCF psivars.

Properties will be evaluated at   0.000000,   0.000000,   0.000000 Bohr
  ==> Properties <==


Properties computed using the SCF density matrix

  Nuclear Dipole Moment: (a.u.)
     X:    -9.1722      Y:     0.0015      Z:    -0.6951

  Electronic Dipole Moment: (a.u.)
     X:     7.5501      Y:    -0.0012      Z:     0.2622

  Dipole Moment: (a.u.)
     X:    -1.6221      Y:     0.0003      Z:    -0.4329     Total:     1.6789

  Dipole Moment: (Debye)
     X:    -4.1229      Y:     0.0008      Z:    -1.1004     Total:     4.2672


  Saving occupied orbitals to File 180.

*** tstop() called on cx1-3-6-2.cx1.hpc.ic.ac.uk at Tue Jul  5 16:41:20 2016
Module time:
	user time   =       5.83 seconds =       0.10 minutes
	system time =       0.04 seconds =       0.00 minutes
	total time  =          7 seconds =       0.12 minutes
Total time:
	user time   =       5.83 seconds =       0.10 minutes
	system time =       0.04 seconds =       0.00 minutes
	total time  =          7 seconds =       0.12 minutes


Properties will be evaluated at   0.000000,   0.000000,   0.000000 Bohr

Properties computed using the  density matrix

  Nuclear Dipole Moment: (a.u.)
     X:    -9.1722      Y:     0.0015      Z:    -0.6951

  Electronic Dipole Moment: (a.u.)
     X:     7.5501      Y:    -0.0012      Z:     0.2622

  Dipole Moment: (a.u.)
     X:    -1.6221      Y:     0.0003      Z:    -0.4329     Total:     1.6789

  Dipole Moment: (Debye)
     X:    -4.1229      Y:     0.0008      Z:    -1.1004     Total:     4.2672

  Quadrupole Moment: (Debye Ang)
    XX:   -39.2156     YY:   -33.9275     ZZ:   -39.0348
    XY:    -0.0014     XZ:     0.6834     YZ:     0.0051

  Traceless Quadrupole Moment: (Debye Ang)
    XX:    -1.8230     YY:     3.4651     ZZ:    -1.6421
    XY:    -0.0014     XZ:     0.6834     YZ:     0.0051

  Mulliken Charges: (a.u.)
   Center  Symbol    Alpha    Beta     Spin     Total
       1     H     0.40814  0.40814  0.00000  0.18373
       2     C     3.24997  3.24997  0.00000 -0.49993
       3     C     3.02401  3.02401  0.00000 -0.04802
       4     H     0.40287  0.40287  0.00000  0.19425
       5     H     0.39667  0.39667  0.00000  0.20667
       6     C     3.24997  3.24997  0.00000 -0.49994
       7     N     3.21548  3.21548  0.00000  0.56905
       8     H     0.38519  0.38519  0.00000  0.22962
       9     H     0.40812  0.40812  0.00000  0.18376
      10     H     0.40286  0.40286  0.00000  0.19429
      11     H     0.39668  0.39668  0.00000  0.20664
      12     O     4.22810  4.22810  0.00000 -0.45620
      13     O     4.23196  4.23196  0.00000 -0.46392

   Total alpha = 24.00000, Total beta = 24.00000, Total charge = -0.00000



Properties will be evaluated at   0.000000,   0.000000,   0.000000 Bohr

Properties computed using the  density matrix


 Electrostatic potential computed on the grid and written to grid_esp.dat

*** PSI4 exiting successfully. Buy a developer a beer!
