    -----------------------------------------------------------------------
          Psi4: An Open-Source Ab Initio Electronic Structure Package
                              Psi4 (no tag) Driver

                          Git: Rev {detached?}  

    J. M. Turney, A. C. Simmonett, R. M. Parrish, E. G. Hohenstein,
    F. A. Evangelista, J. T. Fermann, B. J. Mintz, L. A. Burns, J. J. Wilke,
    M. L. Abrams, N. J. Russ, M. L. Leininger, C. L. Janssen, E. T. Seidl,
    W. D. Allen, H. F. Schaefer, R. A. King, E. F. Valeev, C. D. Sherrill,
    and T. D. Crawford, WIREs Comput. Mol. Sci. 2, 556-565 (2012)
    (doi: 10.1002/wcms.93)

                         Additional Contributions by
    A. E. DePrince, M. Saitow, U. Bozkaya, A. Yu. Sokolov
    -----------------------------------------------------------------------


    Psi4 started on: Tue Jul  5 16:21:37 2016

    Process ID:  25527
    PSI4DATADIR: /export131/home/mjharvey/miniconda3/share
    Memory level set to 256.000 MB

  ==> Input File <==

--------------------------------------------------------------------------
set {
	reference rhf
	basis 6-31G*
}


set_num_threads( 1 )
memory 2 gb

molecule MOL {
0 1

H	 -0.367348	 2.047014	 -0.308205
C	 0.352277	 1.337084	 0.083769
N	 -0.000016	 0.000074	 -0.335546
H	 1.328359	 1.600444	 -0.307950
H	 0.381933	 1.450534	 1.172486
C	 -1.387931	 -0.301275	 -0.068805
C	 0.349435	 -0.242571	 -1.716547
H	 -1.597003	 -1.332568	 -0.329716
H	 -1.595022	 -0.175805	 0.987999
H	 -2.079825	 0.336990	 -0.628075
H	 1.410463	 -0.074431	 -1.862570
H	 0.136527	 -1.273960	 -1.974124
H	 -0.194965	 0.400905	 -2.415470

	symmetry c1
}
ee = energy('scf')
oeprop('DIPOLE', 'QUADRUPOLE', 'MULLIKEN_CHARGES')
f=open( 'psi4out.xyz', 'w' )
f.write( "13  " )
f.write( str(ee) + "\n" )
f.write( MOL.save_string_xyz() )
f.close()
--------------------------------------------------------------------------

  Memory set to   2.000 GiB by Python script.

*** tstart() called on cx1-3-1-3.cx1.hpc.ic.ac.uk
*** at Tue Jul  5 16:21:37 2016


         ---------------------------------------------------------
                                   SCF
            by Justin Turney, Rob Parrish, and Andy Simmonett
                              RHF Reference
                        1 Threads,   2000 MiB Core
         ---------------------------------------------------------

  ==> Geometry <==

    Molecular point group: c1
    Full point group: C1

    Geometry (in Angstrom), charge = 0, multiplicity = 1:

       Center              X                  Y                   Z               Mass       
    ------------   -----------------  -----------------  -----------------  -----------------
           H         -0.183984946258     1.835035242854     0.213647108578     1.007825032070
           C          0.535640053742     1.125105242854     0.605621108578    12.000000000000
           N          0.183347053742    -0.211904757146     0.186306108578    14.003074004780
           H          1.511722053742     1.388465242854     0.213902108578     1.007825032070
           H          0.565296053742     1.238555242854     1.694338108578     1.007825032070
           C         -1.204567946258    -0.513253757146     0.453047108578    12.000000000000
           C          0.532798053742    -0.454549757146    -1.194694891422    12.000000000000
           H         -1.413639946258    -1.544546757146     0.192136108578     1.007825032070
           H         -1.411658946258    -0.387783757146     1.509851108578     1.007825032070
           H         -1.896461946258     0.125011242854    -0.106222891422     1.007825032070
           H          1.593826053742    -0.286409757146    -1.340717891422     1.007825032070
           H          0.319890053742    -1.485938757146    -1.452271891422     1.007825032070
           H         -0.011601946258     0.188926242854    -1.893617891422     1.007825032070

  Running in c1 symmetry.

  Rotational constants: A =      0.29367  B =      0.29354  C =      0.16558 [cm^-1]
  Rotational constants: A =   8803.90380  B =   8800.03804  C =   4964.08826 [MHz]
  Nuclear repulsion =  139.323745275565130

  Charge       = 0
  Multiplicity = 1
  Electrons    = 34
  Nalpha       = 17
  Nbeta        = 17

  ==> Algorithm <==

  SCF Algorithm Type is DF.
  DIIS enabled.
  MOM disabled.
  Fractional occupation disabled.
  Guess Type is CORE.
  Energy threshold   = 1.00e-06
  Density threshold  = 1.00e-06
  Integral threshold = 0.00e+00

  ==> Primary Basis <==

  Basis Set: 6-31G*
    Number of shells: 42
    Number of basis function: 78
    Number of Cartesian functions: 78
    Spherical Harmonics?: false
    Max angular momentum: 2

  ==> Pre-Iterations <==

   -------------------------------------------------------
    Irrep   Nso     Nmo     Nalpha   Nbeta   Ndocc  Nsocc
   -------------------------------------------------------
     A         78      78       0       0       0       0
   -------------------------------------------------------
    Total      78      78      17      17      17       0
   -------------------------------------------------------

 OEINTS: Overlap, kinetic, potential, dipole, and quadrupole integrals
         stored in file 35.

  ==> Integral Setup <==

  ==> DFJK: Density-Fitted J/K Matrices <==

    J tasked:                  Yes
    K tasked:                  Yes
    wK tasked:                  No
    OpenMP threads:              1
    Integrals threads:           1
    Memory (MB):              1430
    Algorithm:                Core
    Integral Cache:           NONE
    Schwarz Cutoff:          1E-12
    Fitting Condition:       1E-12

   => Auxiliary Basis Set <=

  Basis Set: 
    Number of shells: 177
    Number of basis function: 549
    Number of Cartesian functions: 549
    Spherical Harmonics?: false
    Max angular momentum: 3

  Minimum eigenvalue in the overlap matrix is 6.4121280097E-03.
  Using Symmetric Orthogonalization.
  SCF Guess: Core (One-Electron) Hamiltonian.

  ==> Iterations <==

                           Total Energy        Delta E     RMS |[F,P]|

   @DF-RHF iter   1:  -136.62407022830521   -1.36624e+02   8.43923e-02 
   @DF-RHF iter   2:  -146.64595121940894   -1.00219e+01   5.28685e-02 DIIS
   @DF-RHF iter   3:  -169.41855066843718   -2.27726e+01   3.70837e-02 DIIS
   @DF-RHF iter   4:  -172.18460209617703   -2.76605e+00   1.91782e-02 DIIS
   @DF-RHF iter   5:  -173.22812775400118   -1.04353e+00   3.40916e-03 DIIS
   @DF-RHF iter   6:  -173.26528630007593   -3.71585e-02   8.98114e-04 DIIS
   @DF-RHF iter   7:  -173.26742419738591   -2.13790e-03   1.02458e-04 DIIS
   @DF-RHF iter   8:  -173.26748876794912   -6.45706e-05   3.81587e-05 DIIS
   @DF-RHF iter   9:  -173.26749531710388   -6.54915e-06   8.41966e-06 DIIS
   @DF-RHF iter  10:  -173.26749578688234   -4.69778e-07   2.44562e-06 DIIS
   @DF-RHF iter  11:  -173.26749581584696   -2.89646e-08   7.42984e-07 DIIS

  ==> Post-Iterations <==

    Orbital Energies (a.u.)
    -----------------------

    Doubly Occupied:                                                      

       1A    -15.542770     2A    -11.236157     3A    -11.235994  
       4A    -11.235752     5A     -1.225365     6A     -0.951969  
       7A     -0.951021     8A     -0.806695     9A     -0.642557  
      10A     -0.631409    11A     -0.628398    12A     -0.546302  
      13A     -0.542282    14A     -0.516708    15A     -0.503460  
      16A     -0.500904    17A     -0.345015  

    Virtual:                                                              

      18A      0.224770    19A      0.294734    20A      0.299622  
      21A      0.308395    22A      0.309686    23A      0.314931  
      24A      0.338854    25A      0.352733    26A      0.355087  
      27A      0.389021    28A      0.437962    29A      0.444480  
      30A      0.725415    31A      0.736815    32A      0.760771  
      33A      0.775165    34A      0.784697    35A      0.847823  
      36A      0.947107    37A      0.950110    38A      1.053640  
      39A      1.072124    40A      1.111442    41A      1.122292  
      42A      1.123818    43A      1.161949    44A      1.171486  
      45A      1.181779    46A      1.208964    47A      1.256733  
      48A      1.258056    49A      1.264544    50A      1.273699  
      51A      1.301518    52A      1.592671    53A      1.676667  
      54A      1.700134    55A      1.731229    56A      1.742517  
      57A      2.065864    58A      2.217417    59A      2.220812  
      60A      2.261049    61A      2.356767    62A      2.381322  
      63A      2.425509    64A      2.447566    65A      2.497088  
      66A      2.569015    67A      2.583731    68A      2.599637  
      69A      2.619459    70A      2.866944    71A      2.975194  
      72A      2.985178    73A      3.150139    74A      3.153937  
      75A      4.459375    76A      4.686488    77A      4.691404  
      78A      4.784346  

    Final Occupation by Irrep:
              A 
    DOCC [    17 ]

  Energy converged.

  @DF-RHF Final Energy:  -173.26749581584696

   => Energetics <=

    Nuclear Repulsion Energy =            139.3237452755651304
    One-Electron Energy =                -509.0971457805183036
    Two-Electron Energy =                 196.5059046891057335
    DFT Exchange-Correlation Energy =       0.0000000000000000
    Empirical Dispersion Energy =           0.0000000000000000
    PCM Polarization Energy =               0.0000000000000000
    EFP Energy =                            0.0000000000000000
    Total Energy =                       -173.2674958158474681

    Alert: EFP and PCM quantities not currently incorporated into SCF psivars.

Properties will be evaluated at   0.000000,   0.000000,   0.000000 Bohr
  ==> Properties <==


Properties computed using the SCF density matrix

  Nuclear Dipole Moment: (a.u.)
     X:    -0.8692      Y:     1.0049      Z:    -0.9089

  Electronic Dipole Moment: (a.u.)
     X:     0.7187      Y:    -0.8103      Z:     0.7331

  Dipole Moment: (a.u.)
     X:    -0.1505      Y:     0.1946      Z:    -0.1759     Total:     0.3024

  Dipole Moment: (Debye)
     X:    -0.3824      Y:     0.4946      Z:    -0.4470     Total:     0.7686


  Saving occupied orbitals to File 180.

*** tstop() called on cx1-3-1-3.cx1.hpc.ic.ac.uk at Tue Jul  5 16:21:41 2016
Module time:
	user time   =       2.99 seconds =       0.05 minutes
	system time =       0.03 seconds =       0.00 minutes
	total time  =          4 seconds =       0.07 minutes
Total time:
	user time   =       2.99 seconds =       0.05 minutes
	system time =       0.03 seconds =       0.00 minutes
	total time  =          4 seconds =       0.07 minutes


Properties will be evaluated at   0.000000,   0.000000,   0.000000 Bohr

Properties computed using the  density matrix

  Nuclear Dipole Moment: (a.u.)
     X:    -0.8692      Y:     1.0049      Z:    -0.9089

  Electronic Dipole Moment: (a.u.)
     X:     0.7187      Y:    -0.8103      Z:     0.7331

  Dipole Moment: (a.u.)
     X:    -0.1505      Y:     0.1946      Z:    -0.1759     Total:     0.3024

  Dipole Moment: (Debye)
     X:    -0.3824      Y:     0.4946      Z:    -0.4470     Total:     0.7686

  Quadrupole Moment: (Debye Ang)
    XX:   -27.1938     YY:   -27.5371     ZZ:   -27.2365
    XY:     1.2774     XZ:    -1.0386     YZ:     1.1749

  Traceless Quadrupole Moment: (Debye Ang)
    XX:     0.1287     YY:    -0.2146     ZZ:     0.0860
    XY:     1.2774     XZ:    -1.0386     YZ:     1.1749

  Mulliken Charges: (a.u.)
   Center  Symbol    Alpha    Beta     Spin     Total
       1     H     0.43371  0.43371  0.00000  0.13258
       2     C     3.14279  3.14279  0.00000 -0.28558
       3     N     3.76562  3.76562  0.00000 -0.53124
       4     H     0.41805  0.41805  0.00000  0.16389
       5     H     0.41642  0.41642  0.00000  0.16717
       6     C     3.14337  3.14337  0.00000 -0.28675
       7     C     3.14316  3.14316  0.00000 -0.28631
       8     H     0.41662  0.41662  0.00000  0.16676
       9     H     0.41630  0.41630  0.00000  0.16739
      10     H     0.43523  0.43523  0.00000  0.12954
      11     H     0.41647  0.41647  0.00000  0.16706
      12     H     0.41661  0.41661  0.00000  0.16678
      13     H     0.43565  0.43565  0.00000  0.12870

   Total alpha = 17.00000, Total beta = 17.00000, Total charge =  0.00000


*** PSI4 exiting successfully. Buy a developer a beer!
