    -----------------------------------------------------------------------
          Psi4: An Open-Source Ab Initio Electronic Structure Package
                              Psi4 (no tag) Driver

                          Git: Rev {detached?}  

    J. M. Turney, A. C. Simmonett, R. M. Parrish, E. G. Hohenstein,
    F. A. Evangelista, J. T. Fermann, B. J. Mintz, L. A. Burns, J. J. Wilke,
    M. L. Abrams, N. J. Russ, M. L. Leininger, C. L. Janssen, E. T. Seidl,
    W. D. Allen, H. F. Schaefer, R. A. King, E. F. Valeev, C. D. Sherrill,
    and T. D. Crawford, WIREs Comput. Mol. Sci. 2, 556-565 (2012)
    (doi: 10.1002/wcms.93)

                         Additional Contributions by
    A. E. DePrince, M. Saitow, U. Bozkaya, A. Yu. Sokolov
    -----------------------------------------------------------------------


    Psi4 started on: Tue Jul  5 16:40:31 2016

    Process ID:  12509
    PSI4DATADIR: /export131/home/mjharvey/miniconda3/share
    Memory level set to 256.000 MB

  ==> Input File <==

--------------------------------------------------------------------------
set {
	reference rhf
	basis 6-31G*
}


set_num_threads( 1 )
memory 2 gb

molecule MOL {
0 1

O	 0.391030	 1.298905	 0.000133
C	 0.503002	 0.111612	 0.000005
C	 -0.702327	 -0.811998	 -0.000075
C	 1.863306	 -0.554493	 0.000030
C	 -2.030333	 -0.082755	 -0.163647
H	 -0.562345	 -1.543589	 -0.793770
H	 -0.685843	 -1.382586	 0.926706
H	 -2.059302	 0.466057	 -1.097020
H	 -2.853115	 -0.790029	 -0.156522
H	 -2.183896	 0.628485	 0.638709
H	 1.974395	 -1.189404	 -0.874166
H	 2.638695	 0.198920	 -0.000196
H	 1.974487	 -1.188655	 0.874727

	symmetry c1
}
ee = energy('scf')
oeprop('DIPOLE', 'QUADRUPOLE', 'MULLIKEN_CHARGES')
f=open( 'psi4out.xyz', 'w' )
f.write( "13  " )
f.write( str(ee) + "\n" )
f.write( MOL.save_string_xyz() )
f.close()
--------------------------------------------------------------------------

  Memory set to   2.000 GiB by Python script.

*** tstart() called on cx1-3-4-4.cx1.hpc.ic.ac.uk
*** at Tue Jul  5 16:40:32 2016


         ---------------------------------------------------------
                                   SCF
            by Justin Turney, Rob Parrish, and Andy Simmonett
                              RHF Reference
                        1 Threads,   2000 MiB Core
         ---------------------------------------------------------

  ==> Geometry <==

    Molecular point group: c1
    Full point group: C1

    Geometry (in Angstrom), charge = 0, multiplicity = 1:

       Center              X                  Y                   Z               Mass       
    ------------   -----------------  -----------------  -----------------  -----------------
           O          0.389814367221     1.300488469095     0.034097766672    15.994914619560
           C          0.501786367221     0.113195469095     0.033969766672    12.000000000000
           C         -0.703542632779    -0.810414530905     0.033889766672    12.000000000000
           C          1.862090367221    -0.552909530905     0.033994766672    12.000000000000
           C         -2.031548632779    -0.081171530905    -0.129682233328    12.000000000000
           H         -0.563560632779    -1.542005530905    -0.759805233328     1.007825032070
           H         -0.687058632779    -1.381002530905     0.960670766672     1.007825032070
           H         -2.060517632779     0.467640469095    -1.063055233328     1.007825032070
           H         -2.854330632779    -0.788445530905    -0.122557233328     1.007825032070
           H         -2.185111632779     0.630068469095     0.672673766672     1.007825032070
           H          1.973179367221    -1.187820530905    -0.840201233328     1.007825032070
           H          2.637479367221     0.200503469095     0.033768766672     1.007825032070
           H          1.973271367221    -1.187071530905     0.908691766672     1.007825032070

  Running in c1 symmetry.

  Rotational constants: A =      0.32468  B =      0.11998  C =      0.09214 [cm^-1]
  Rotational constants: A =   9733.58237  B =   3596.97315  C =   2762.14111 [MHz]
  Nuclear repulsion =  176.943523734788783

  Charge       = 0
  Multiplicity = 1
  Electrons    = 40
  Nalpha       = 20
  Nbeta        = 20

  ==> Algorithm <==

  SCF Algorithm Type is DF.
  DIIS enabled.
  MOM disabled.
  Fractional occupation disabled.
  Guess Type is CORE.
  Energy threshold   = 1.00e-06
  Density threshold  = 1.00e-06
  Integral threshold = 0.00e+00

  ==> Primary Basis <==

  Basis Set: 6-31G*
    Number of shells: 46
    Number of basis function: 91
    Number of Cartesian functions: 91
    Spherical Harmonics?: false
    Max angular momentum: 2

  ==> Pre-Iterations <==

   -------------------------------------------------------
    Irrep   Nso     Nmo     Nalpha   Nbeta   Ndocc  Nsocc
   -------------------------------------------------------
     A         91      91       0       0       0       0
   -------------------------------------------------------
    Total      91      91      20      20      20       0
   -------------------------------------------------------

 OEINTS: Overlap, kinetic, potential, dipole, and quadrupole integrals
         stored in file 35.

  ==> Integral Setup <==

  ==> DFJK: Density-Fitted J/K Matrices <==

    J tasked:                  Yes
    K tasked:                  Yes
    wK tasked:                  No
    OpenMP threads:              1
    Integrals threads:           1
    Memory (MB):              1430
    Algorithm:                Core
    Integral Cache:           NONE
    Schwarz Cutoff:          1E-12
    Fitting Condition:       1E-12

   => Auxiliary Basis Set <=

  Basis Set: 
    Number of shells: 192
    Number of basis function: 605
    Number of Cartesian functions: 605
    Spherical Harmonics?: false
    Max angular momentum: 3

  Minimum eigenvalue in the overlap matrix is 4.0026922917E-03.
  Using Symmetric Orthogonalization.
  SCF Guess: Core (One-Electron) Hamiltonian.

  ==> Iterations <==

                           Total Energy        Delta E     RMS |[F,P]|

   @DF-RHF iter   1:  -178.29913105986887   -1.78299e+02   8.92338e-02 
   @DF-RHF iter   2:  -177.17671094386534    1.12242e+00   6.48687e-02 DIIS
   @DF-RHF iter   3:  -208.59408989794761   -3.14174e+01   5.27772e-02 DIIS
   @DF-RHF iter   4:  -229.85698117146390   -2.12629e+01   1.62313e-02 DIIS
   @DF-RHF iter   5:  -230.93100447233880   -1.07402e+00   4.02781e-03 DIIS
   @DF-RHF iter   6:  -230.99133678402350   -6.03323e-02   1.23632e-03 DIIS
   @DF-RHF iter   7:  -230.99653900809037   -5.20222e-03   5.49384e-04 DIIS
   @DF-RHF iter   8:  -230.99763542825323   -1.09642e-03   1.00883e-04 DIIS
   @DF-RHF iter   9:  -230.99770905797530   -7.36297e-05   4.72671e-05 DIIS
   @DF-RHF iter  10:  -230.99772235582995   -1.32979e-05   1.34304e-05 DIIS
   @DF-RHF iter  11:  -230.99772405083186   -1.69500e-06   4.45828e-06 DIIS
   @DF-RHF iter  12:  -230.99772429191890   -2.41087e-07   1.09279e-06 DIIS
   @DF-RHF iter  13:  -230.99772430663498   -1.47161e-08   2.63954e-07 DIIS

  ==> Post-Iterations <==

    Orbital Energies (a.u.)
    -----------------------

    Doubly Occupied:                                                      

       1A    -20.551448     2A    -11.326975     3A    -11.235039  
       4A    -11.229178     5A    -11.214255     6A     -1.396842  
       7A     -1.061514     8A     -1.000329     9A     -0.878132  
      10A     -0.730044    11A     -0.658894    12A     -0.640604  
      13A     -0.621603    14A     -0.583296    15A     -0.570317  
      16A     -0.520567    17A     -0.513112    18A     -0.507644  
      19A     -0.485516    20A     -0.403204  

    Virtual:                                                              

      21A      0.169704    22A      0.222786    23A      0.264440  
      24A      0.300981    25A      0.306142    26A      0.312578  
      27A      0.325988    28A      0.329661    29A      0.349892  
      30A      0.393198    31A      0.411055    32A      0.478361  
      33A      0.507388    34A      0.689744    35A      0.735587  
      36A      0.759090    37A      0.764430    38A      0.821137  
      39A      0.828923    40A      0.847842    41A      0.902417  
      42A      0.992437    43A      1.012506    44A      1.021548  
      45A      1.039644    46A      1.109388    47A      1.118907  
      48A      1.123459    49A      1.164706    50A      1.185012  
      51A      1.189099    52A      1.209792    53A      1.213423  
      54A      1.232341    55A      1.257836    56A      1.322750  
      57A      1.342012    58A      1.409102    59A      1.649079  
      60A      1.665266    61A      1.706560    62A      1.789554  
      63A      1.845568    64A      1.964871    65A      2.066300  
      66A      2.073617    67A      2.106875    68A      2.170020  
      69A      2.198484    70A      2.226564    71A      2.289231  
      72A      2.292187    73A      2.412343    74A      2.436889  
      75A      2.520854    76A      2.591322    77A      2.638541  
      78A      2.666059    79A      2.682572    80A      2.763813  
      81A      2.855292    82A      2.908869    83A      2.976043  
      84A      3.162857    85A      3.370892    86A      3.402539  
      87A      4.394538    88A      4.536084    89A      4.673903  
      90A      4.800378    91A      4.925661  

    Final Occupation by Irrep:
              A 
    DOCC [    20 ]

  Energy converged.

  @DF-RHF Final Energy:  -230.99772430663498

   => Energetics <=

    Nuclear Repulsion Energy =            176.9435237347887835
    One-Electron Energy =                -663.6254931506472303
    Two-Electron Energy =                 255.6842451092228430
    DFT Exchange-Correlation Energy =       0.0000000000000000
    Empirical Dispersion Energy =           0.0000000000000000
    PCM Polarization Energy =               0.0000000000000000
    EFP Energy =                            0.0000000000000000
    Total Energy =                       -230.9977243066356323

    Alert: EFP and PCM quantities not currently incorporated into SCF psivars.

Properties will be evaluated at   0.000000,   0.000000,   0.000000 Bohr
  ==> Properties <==


Properties computed using the SCF density matrix

  Nuclear Dipole Moment: (a.u.)
     X:    -1.6543      Y:    -4.4825      Z:    -0.1965

  Electronic Dipole Moment: (a.u.)
     X:     1.7495      Y:     3.3061      Z:     0.2035

  Dipole Moment: (a.u.)
     X:     0.0952      Y:    -1.1764      Z:     0.0070     Total:     1.1803

  Dipole Moment: (Debye)
     X:     0.2420      Y:    -2.9902      Z:     0.0178     Total:     3.0000


  Saving occupied orbitals to File 180.

*** tstop() called on cx1-3-4-4.cx1.hpc.ic.ac.uk at Tue Jul  5 16:40:37 2016
Module time:
	user time   =       4.18 seconds =       0.07 minutes
	system time =       0.05 seconds =       0.00 minutes
	total time  =          5 seconds =       0.08 minutes
Total time:
	user time   =       4.18 seconds =       0.07 minutes
	system time =       0.05 seconds =       0.00 minutes
	total time  =          5 seconds =       0.08 minutes


Properties will be evaluated at   0.000000,   0.000000,   0.000000 Bohr

Properties computed using the  density matrix

  Nuclear Dipole Moment: (a.u.)
     X:    -1.6543      Y:    -4.4825      Z:    -0.1965

  Electronic Dipole Moment: (a.u.)
     X:     1.7495      Y:     3.3061      Z:     0.2035

  Dipole Moment: (a.u.)
     X:     0.0952      Y:    -1.1764      Z:     0.0070     Total:     1.1803

  Dipole Moment: (Debye)
     X:     0.2420      Y:    -2.9902      Z:     0.0178     Total:     3.0000

  Quadrupole Moment: (Debye Ang)
    XX:   -30.2038     YY:   -35.3018     ZZ:   -30.5845
    XY:    -1.1392     XZ:    -0.0545     YZ:    -0.1160

  Traceless Quadrupole Moment: (Debye Ang)
    XX:     1.8262     YY:    -3.2718     ZZ:     1.4455
    XY:    -1.1392     XZ:    -0.0545     YZ:    -0.1160

  Mulliken Charges: (a.u.)
   Center  Symbol    Alpha    Beta     Spin     Total
       1     O     4.26021  4.26021  0.00000 -0.52043
       2     C     2.73683  2.73683  0.00000  0.52635
       3     C     3.20758  3.20758  0.00000 -0.41516
       4     C     3.28722  3.28722  0.00000 -0.57445
       5     C     3.23521  3.23521  0.00000 -0.47042
       6     H     0.41108  0.41108  0.00000  0.17784
       7     H     0.40791  0.40791  0.00000  0.18418
       8     H     0.41182  0.41182  0.00000  0.17635
       9     H     0.41986  0.41986  0.00000  0.16029
      10     H     0.40885  0.40885  0.00000  0.18230
      11     H     0.40853  0.40853  0.00000  0.18294
      12     H     0.39627  0.39627  0.00000  0.20746
      13     H     0.40863  0.40863  0.00000  0.18274

   Total alpha = 20.00000, Total beta = 20.00000, Total charge = -0.00000


*** PSI4 exiting successfully. Buy a developer a beer!
