    -----------------------------------------------------------------------
          Psi4: An Open-Source Ab Initio Electronic Structure Package
                              Psi4 (no tag) Driver

                          Git: Rev {detached?}  

    J. M. Turney, A. C. Simmonett, R. M. Parrish, E. G. Hohenstein,
    F. A. Evangelista, J. T. Fermann, B. J. Mintz, L. A. Burns, J. J. Wilke,
    M. L. Abrams, N. J. Russ, M. L. Leininger, C. L. Janssen, E. T. Seidl,
    W. D. Allen, H. F. Schaefer, R. A. King, E. F. Valeev, C. D. Sherrill,
    and T. D. Crawford, WIREs Comput. Mol. Sci. 2, 556-565 (2012)
    (doi: 10.1002/wcms.93)

                         Additional Contributions by
    A. E. DePrince, M. Saitow, U. Bozkaya, A. Yu. Sokolov
    -----------------------------------------------------------------------


    Psi4 started on: Tue Jul  5 16:49:48 2016

    Process ID:   2635
    PSI4DATADIR: /export131/home/mjharvey/miniconda3/share
    Memory level set to 256.000 MB

  ==> Input File <==

--------------------------------------------------------------------------
set {
	reference rhf
	basis 6-31G*
}


set_num_threads( 1 )
memory 2 gb

molecule MOL {
0 1

H	 1.723202	 1.632482	 -1.968286
C	 0.995937	 1.433708	 -1.189505
C	 1.322923	 0.120767	 -0.479465
H	 1.011660	 2.271686	 -0.499636
H	 0.015082	 1.398287	 -1.653469
C	 0.306652	 -0.176050	 0.621399
H	 2.313063	 0.171746	 -0.038497
H	 1.322156	 -0.700098	 -1.186883
N	 -1.068537	 -0.011044	 0.085269
H	 0.372515	 -1.192590	 0.973735
H	 0.391664	 0.520566	 1.441230
O	 -1.452557	 -0.817785	 -0.704079
O	 -1.684554	 0.940030	 0.459443

	symmetry c1
}
set optking {
	frozen_dihedral = ("
		7 3 6 9
	")
}

ee = energy('scf')
oeprop('DIPOLE', 'QUADRUPOLE', 'MULLIKEN_CHARGES')
f=open( 'psi4out.xyz', 'w' )
f.write( "13  " )
f.write( str(ee) + "\n" )
f.write( MOL.save_string_xyz() )
f.close()
--------------------------------------------------------------------------

  Memory set to   2.000 GiB by Python script.

*** tstart() called on cx1-3-15-4.cx1.hpc.ic.ac.uk
*** at Tue Jul  5 16:49:48 2016


         ---------------------------------------------------------
                                   SCF
            by Justin Turney, Rob Parrish, and Andy Simmonett
                              RHF Reference
                        1 Threads,   2000 MiB Core
         ---------------------------------------------------------

  ==> Geometry <==

    Molecular point group: c1
    Full point group: C1

    Geometry (in Angstrom), charge = 0, multiplicity = 1:

       Center              X                  Y                   Z               Mass       
    ------------   -----------------  -----------------  -----------------  -----------------
           H          2.020000253577     1.380078718133    -1.763401340396     1.007825032070
           C          1.292735253577     1.181304718133    -0.984620340396    12.000000000000
           C          1.619721253577    -0.131636281867    -0.274580340396    12.000000000000
           H          1.308458253577     2.019282718133    -0.294751340396     1.007825032070
           H          0.311880253577     1.145883718133    -1.448584340396     1.007825032070
           C          0.603450253577    -0.428453281867     0.826283659604    12.000000000000
           H          2.609861253577    -0.080657281867     0.166387659604     1.007825032070
           H          1.618954253577    -0.952501281867    -0.981998340396     1.007825032070
           N         -0.771738746423    -0.263447281867     0.290153659604    14.003074004780
           H          0.669313253577    -1.444993281867     1.178619659604     1.007825032070
           H          0.688462253577     0.268162718133     1.646114659604     1.007825032070
           O         -1.155758746423    -1.070188281867    -0.499194340396    15.994914619560
           O         -1.387755746423     0.687626718133     0.664327659604    15.994914619560

  Running in c1 symmetry.

  Rotational constants: A =      0.19672  B =      0.09224  C =      0.08562 [cm^-1]
  Rotational constants: A =   5897.61867  B =   2765.40813  C =   2566.73017 [MHz]
  Nuclear repulsion =  255.647833160080268

  Charge       = 0
  Multiplicity = 1
  Electrons    = 48
  Nalpha       = 24
  Nbeta        = 24

  ==> Algorithm <==

  SCF Algorithm Type is DF.
  DIIS enabled.
  MOM disabled.
  Fractional occupation disabled.
  Guess Type is CORE.
  Energy threshold   = 1.00e-06
  Density threshold  = 1.00e-06
  Integral threshold = 0.00e+00

  ==> Primary Basis <==

  Basis Set: 6-31G*
    Number of shells: 50
    Number of basis function: 104
    Number of Cartesian functions: 104
    Spherical Harmonics?: false
    Max angular momentum: 2

  ==> Pre-Iterations <==

   -------------------------------------------------------
    Irrep   Nso     Nmo     Nalpha   Nbeta   Ndocc  Nsocc
   -------------------------------------------------------
     A        104     104       0       0       0       0
   -------------------------------------------------------
    Total     104     104      24      24      24       0
   -------------------------------------------------------

 OEINTS: Overlap, kinetic, potential, dipole, and quadrupole integrals
         stored in file 35.

  ==> Integral Setup <==

  ==> DFJK: Density-Fitted J/K Matrices <==

    J tasked:                  Yes
    K tasked:                  Yes
    wK tasked:                  No
    OpenMP threads:              1
    Integrals threads:           1
    Memory (MB):              1430
    Algorithm:                Core
    Integral Cache:           NONE
    Schwarz Cutoff:          1E-12
    Fitting Condition:       1E-12

   => Auxiliary Basis Set <=

  Basis Set: 
    Number of shells: 207
    Number of basis function: 661
    Number of Cartesian functions: 661
    Spherical Harmonics?: false
    Max angular momentum: 3

  Minimum eigenvalue in the overlap matrix is 2.9216118637E-03.
  Using Symmetric Orthogonalization.
  SCF Guess: Core (One-Electron) Hamiltonian.

  ==> Iterations <==

                           Total Energy        Delta E     RMS |[F,P]|

   @DF-RHF iter   1:  -245.91612461121747   -2.45916e+02   8.50712e-02 
   @DF-RHF iter   2:  -174.77986178951130    7.11363e+01   9.07220e-02 DIIS
   @DF-RHF iter   3:  -294.39085495034783   -1.19611e+02   4.03409e-02 DIIS
   @DF-RHF iter   4:  -252.46228733173535    4.19286e+01   7.43490e-02 DIIS
   @DF-RHF iter   5:  -295.90217020669672   -4.34399e+01   5.28467e-02 DIIS
   @DF-RHF iter   6:  -302.29850401852002   -6.39633e+00   4.41528e-02 DIIS
   @DF-RHF iter   7:  -319.17325608889143   -1.68748e+01   2.03248e-02 DIIS
   @DF-RHF iter   8:  -321.27413587218155   -2.10088e+00   8.53137e-03 DIIS
   @DF-RHF iter   9:  -321.59425837299818   -3.20123e-01   4.93874e-03 DIIS
   @DF-RHF iter  10:  -321.71263645586248   -1.18378e-01   1.66928e-03 DIIS
   @DF-RHF iter  11:  -321.72995278828421   -1.73163e-02   7.44163e-04 DIIS
   @DF-RHF iter  12:  -321.73322417653310   -3.27139e-03   2.65941e-04 DIIS
   @DF-RHF iter  13:  -321.73372618550138   -5.02009e-04   6.26795e-05 DIIS
   @DF-RHF iter  14:  -321.73377134927284   -4.51638e-05   2.20434e-05 DIIS
   @DF-RHF iter  15:  -321.73377822609405   -6.87682e-06   9.62248e-06 DIIS
   @DF-RHF iter  16:  -321.73377949663927   -1.27055e-06   3.22089e-06 DIIS
   @DF-RHF iter  17:  -321.73377976530844   -2.68669e-07   1.26554e-06 DIIS
   @DF-RHF iter  18:  -321.73377981052965   -4.52212e-08   3.90286e-07 DIIS

  ==> Post-Iterations <==

    Orbital Energies (a.u.)
    -----------------------

    Doubly Occupied:                                                      

       1A    -20.602863     2A    -20.601161     3A    -15.847495  
       4A    -11.298622     5A    -11.255747     6A    -11.229508  
       7A     -1.631893     8A     -1.417337     9A     -1.136117  
      10A     -1.020078    11A     -0.893951    12A     -0.821989  
      13A     -0.756719    14A     -0.737576    15A     -0.726906  
      16A     -0.659245    17A     -0.613152    18A     -0.591008  
      19A     -0.534683    20A     -0.516315    21A     -0.511937  
      22A     -0.484015    23A     -0.475169    24A     -0.449740  

    Virtual:                                                              

      25A      0.118679    26A      0.222599    27A      0.261584  
      28A      0.276995    29A      0.288797    30A      0.299209  
      31A      0.313719    32A      0.330986    33A      0.333422  
      34A      0.380789    35A      0.407160    36A      0.538209  
      37A      0.606008    38A      0.689960    39A      0.703183  
      40A      0.726052    41A      0.742072    42A      0.772252  
      43A      0.853408    44A      0.869778    45A      0.908995  
      46A      0.952000    47A      0.971078    48A      1.034051  
      49A      1.062798    50A      1.077165    51A      1.101718  
      52A      1.118529    53A      1.135411    54A      1.165767  
      55A      1.169368    56A      1.185476    57A      1.192854  
      58A      1.230454    59A      1.244087    60A      1.274740  
      61A      1.279683    62A      1.331252    63A      1.356716  
      64A      1.435106    65A      1.512296    66A      1.606469  
      67A      1.657463    68A      1.753771    69A      1.785158  
      70A      1.824186    71A      1.906711    72A      1.948972  
      73A      2.058609    74A      2.084734    75A      2.109347  
      76A      2.120285    77A      2.158542    78A      2.229180  
      79A      2.280649    80A      2.285302    81A      2.300440  
      82A      2.392785    83A      2.415171    84A      2.445264  
      85A      2.539939    86A      2.576115    87A      2.660398  
      88A      2.680060    89A      2.707773    90A      2.796201  
      91A      2.831950    92A      2.937325    93A      3.017392  
      94A      3.082491    95A      3.237982    96A      3.246432  
      97A      3.281181    98A      3.488593    99A      4.081660  
     100A      4.265861   101A      4.281784   102A      4.600917  
     103A      4.744140   104A      4.906810  

    Final Occupation by Irrep:
              A 
    DOCC [    24 ]

  Energy converged.

  @DF-RHF Final Energy:  -321.73377981052965

   => Energetics <=

    Nuclear Repulsion Energy =            255.6478331600802676
    One-Electron Energy =                -945.1367725430711744
    Two-Electron Energy =                 367.7551595724614799
    DFT Exchange-Correlation Energy =       0.0000000000000000
    Empirical Dispersion Energy =           0.0000000000000000
    PCM Polarization Energy =               0.0000000000000000
    EFP Energy =                            0.0000000000000000
    Total Energy =                       -321.7337798105294269

    Alert: EFP and PCM quantities not currently incorporated into SCF psivars.

Properties will be evaluated at   0.000000,   0.000000,   0.000000 Bohr
  ==> Properties <==


Properties computed using the SCF density matrix

  Nuclear Dipole Moment: (a.u.)
     X:     8.6400      Y:     2.1882      Z:    -1.4040

  Electronic Dipole Moment: (a.u.)
     X:    -7.0827      Y:    -2.3033      Z:     1.8357

  Dipole Moment: (a.u.)
     X:     1.5573      Y:    -0.1151      Z:     0.4316     Total:     1.6201

  Dipole Moment: (Debye)
     X:     3.9583      Y:    -0.2926      Z:     1.0971     Total:     4.1180


  Saving occupied orbitals to File 180.

*** tstop() called on cx1-3-15-4.cx1.hpc.ic.ac.uk at Tue Jul  5 16:49:58 2016
Module time:
	user time   =       9.21 seconds =       0.15 minutes
	system time =       0.05 seconds =       0.00 minutes
	total time  =         10 seconds =       0.17 minutes
Total time:
	user time   =       9.21 seconds =       0.15 minutes
	system time =       0.05 seconds =       0.00 minutes
	total time  =         10 seconds =       0.17 minutes


Properties will be evaluated at   0.000000,   0.000000,   0.000000 Bohr

Properties computed using the  density matrix

  Nuclear Dipole Moment: (a.u.)
     X:     8.6400      Y:     2.1882      Z:    -1.4040

  Electronic Dipole Moment: (a.u.)
     X:    -7.0827      Y:    -2.3033      Z:     1.8357

  Dipole Moment: (a.u.)
     X:     1.5573      Y:    -0.1151      Z:     0.4316     Total:     1.6201

  Dipole Moment: (Debye)
     X:     3.9583      Y:    -0.2926      Z:     1.0971     Total:     4.1180

  Quadrupole Moment: (Debye Ang)
    XX:   -38.8514     YY:   -37.8733     ZZ:   -35.1510
    XY:    -0.0535     XZ:     0.2517     YZ:    -2.8578

  Traceless Quadrupole Moment: (Debye Ang)
    XX:    -1.5595     YY:    -0.5814     ZZ:     2.1409
    XY:    -0.0535     XZ:     0.2517     YZ:    -2.8578

  Mulliken Charges: (a.u.)
   Center  Symbol    Alpha    Beta     Spin     Total
       1     H     0.41070  0.41070  0.00000  0.17861
       2     C     3.25385  3.25385  0.00000 -0.50771
       3     C     3.17185  3.17185  0.00000 -0.34371
       4     H     0.41226  0.41226  0.00000  0.17549
       5     H     0.40202  0.40202  0.00000  0.19596
       6     C     3.09013  3.09013  0.00000 -0.18027
       7     H     0.40612  0.40612  0.00000  0.18777
       8     H     0.39892  0.39892  0.00000  0.20216
       9     N     3.22680  3.22680  0.00000  0.54640
      10     H     0.38678  0.38678  0.00000  0.22644
      11     H     0.38698  0.38698  0.00000  0.22603
      12     O     4.22892  4.22892  0.00000 -0.45783
      13     O     4.22467  4.22467  0.00000 -0.44933

   Total alpha = 24.00000, Total beta = 24.00000, Total charge = -0.00000


*** PSI4 exiting successfully. Buy a developer a beer!
