    -----------------------------------------------------------------------
          Psi4: An Open-Source Ab Initio Electronic Structure Package
                              Psi4 (no tag) Driver

                          Git: Rev {detached?}  

    J. M. Turney, A. C. Simmonett, R. M. Parrish, E. G. Hohenstein,
    F. A. Evangelista, J. T. Fermann, B. J. Mintz, L. A. Burns, J. J. Wilke,
    M. L. Abrams, N. J. Russ, M. L. Leininger, C. L. Janssen, E. T. Seidl,
    W. D. Allen, H. F. Schaefer, R. A. King, E. F. Valeev, C. D. Sherrill,
    and T. D. Crawford, WIREs Comput. Mol. Sci. 2, 556-565 (2012)
    (doi: 10.1002/wcms.93)

                         Additional Contributions by
    A. E. DePrince, M. Saitow, U. Bozkaya, A. Yu. Sokolov
    -----------------------------------------------------------------------


    Psi4 started on: Tue Jul  5 16:49:13 2016

    Process ID:   6490
    PSI4DATADIR: /export131/home/mjharvey/miniconda3/share
    Memory level set to 256.000 MB

  ==> Input File <==

--------------------------------------------------------------------------
set {
	reference rhf
	basis 6-31G*
}


set_num_threads( 1 )
memory 2 gb

molecule MOL {
0 1

O	 -2.042549	 -1.228399	 -0.269030
C	 -1.653912	 -0.146171	 0.050137
C	 -0.332303	 0.024011	 0.778412
C	 -2.438579	 1.106236	 -0.272369
C	 0.845713	 -0.001731	 -0.208243
H	 -0.323783	 0.953829	 1.340327
H	 -0.235459	 -0.796807	 1.480410
C	 0.395270	 0.103242	 -1.666020
H	 1.417426	 -0.918491	 -0.074913
H	 1.514816	 0.819646	 0.030049
C	 -0.614014	 1.227905	 -1.893363
H	 1.263344	 0.261731	 -2.302223
H	 -0.042149	 -0.843436	 -1.974294
H	 -0.193456	 2.193102	 -1.625820
H	 -1.507512	 1.079200	 -1.294205
H	 -0.917620	 1.276731	 -2.934260
H	 -3.277823	 0.863061	 -0.908988
H	 -1.806773	 1.843019	 -0.759671
H	 -2.802853	 1.554979	 0.648059

	symmetry c1
}
set optking {
	frozen_dihedral = ("
		11 8 5 9,
		5 3 2 4
	")
}

ee = energy('scf')
oeprop('DIPOLE', 'QUADRUPOLE', 'MULLIKEN_CHARGES')
f=open( 'psi4out.xyz', 'w' )
f.write( "19  " )
f.write( str(ee) + "\n" )
f.write( MOL.save_string_xyz() )
f.close()
--------------------------------------------------------------------------

  Memory set to   2.000 GiB by Python script.

*** tstart() called on cx1-1-2-2.cx1.hpc.ic.ac.uk
*** at Tue Jul  5 16:49:13 2016


         ---------------------------------------------------------
                                   SCF
            by Justin Turney, Rob Parrish, and Andy Simmonett
                              RHF Reference
                        1 Threads,   2000 MiB Core
         ---------------------------------------------------------

  ==> Geometry <==

    Molecular point group: c1
    Full point group: C1

    Geometry (in Angstrom), charge = 0, multiplicity = 1:

       Center              X                  Y                   Z               Mass       
    ------------   -----------------  -----------------  -----------------  -----------------
           O         -1.191202880628    -1.392904629371     0.243330263840    15.994914619560
           C         -0.802565880628    -0.310676629371     0.562497263840    12.000000000000
           C          0.519043119372    -0.140494629371     1.290772263840    12.000000000000
           C         -1.587232880628     0.941730370629     0.239991263840    12.000000000000
           C          1.697059119372    -0.166236629371     0.304117263840    12.000000000000
           H          0.527563119372     0.789323370629     1.852687263840     1.007825032070
           H          0.615887119372    -0.961312629371     1.992770263840     1.007825032070
           C          1.246616119372    -0.061263629371    -1.153659736160    12.000000000000
           H          2.268772119372    -1.082996629371     0.437447263840     1.007825032070
           H          2.366162119372     0.655140370629     0.542409263840     1.007825032070
           C          0.237332119372     1.063399370629    -1.381002736160    12.000000000000
           H          2.114690119372     0.097225370629    -1.789862736160     1.007825032070
           H          0.809197119372    -1.007941629371    -1.461933736160     1.007825032070
           H          0.657890119372     2.028596370629    -1.113459736160     1.007825032070
           H         -0.656165880628     0.914694370629    -0.781844736160     1.007825032070
           H         -0.066273880628     1.112225370629    -2.421899736160     1.007825032070
           H         -2.426476880628     0.698555370629    -0.396627736160     1.007825032070
           H         -0.955426880628     1.678513370629    -0.247310736160     1.007825032070
           H         -1.951506880628     1.390473370629     1.160419263840     1.007825032070

  Running in c1 symmetry.

  Rotational constants: A =      0.11175  B =      0.08212  C =      0.06546 [cm^-1]
  Rotational constants: A =   3350.15501  B =   2461.76718  C =   1962.57929 [MHz]
  Nuclear repulsion =  332.611899824621446

  Charge       = 0
  Multiplicity = 1
  Electrons    = 56
  Nalpha       = 28
  Nbeta        = 28

  ==> Algorithm <==

  SCF Algorithm Type is DF.
  DIIS enabled.
  MOM disabled.
  Fractional occupation disabled.
  Guess Type is CORE.
  Energy threshold   = 1.00e-06
  Density threshold  = 1.00e-06
  Integral threshold = 0.00e+00

  ==> Primary Basis <==

  Basis Set: 6-31G*
    Number of shells: 66
    Number of basis function: 129
    Number of Cartesian functions: 129
    Spherical Harmonics?: false
    Max angular momentum: 2

  ==> Pre-Iterations <==

   -------------------------------------------------------
    Irrep   Nso     Nmo     Nalpha   Nbeta   Ndocc  Nsocc
   -------------------------------------------------------
     A        129     129       0       0       0       0
   -------------------------------------------------------
    Total     129     129      28      28      28       0
   -------------------------------------------------------

 OEINTS: Overlap, kinetic, potential, dipole, and quadrupole integrals
         stored in file 35.

  ==> Integral Setup <==

  ==> DFJK: Density-Fitted J/K Matrices <==

    J tasked:                  Yes
    K tasked:                  Yes
    wK tasked:                  No
    OpenMP threads:              1
    Integrals threads:           1
    Memory (MB):              1430
    Algorithm:                Core
    Integral Cache:           NONE
    Schwarz Cutoff:          1E-12
    Fitting Condition:       1E-12

   => Auxiliary Basis Set <=

  Basis Set: 
    Number of shells: 276
    Number of basis function: 867
    Number of Cartesian functions: 867
    Spherical Harmonics?: false
    Max angular momentum: 3

  Minimum eigenvalue in the overlap matrix is 2.0467182268E-03.
  Using Symmetric Orthogonalization.
  SCF Guess: Core (One-Electron) Hamiltonian.

  ==> Iterations <==

                           Total Energy        Delta E     RMS |[F,P]|

   @DF-RHF iter   1:  -240.80907042699505   -2.40809e+02   7.07384e-02 
   @DF-RHF iter   2:  -218.19016583580128    2.26189e+01   5.77667e-02 DIIS
   @DF-RHF iter   3:  -260.38022482602253   -4.21901e+01   5.20337e-02 DIIS
   @DF-RHF iter   4:  -304.53710528434851   -4.41569e+01   2.02247e-02 DIIS
   @DF-RHF iter   5:  -308.21049748679457   -3.67339e+00   9.20065e-03 DIIS
   @DF-RHF iter   6:  -308.83256867407124   -6.22071e-01   2.80084e-03 DIIS
   @DF-RHF iter   7:  -308.88464285649889   -5.20742e-02   9.14590e-04 DIIS
   @DF-RHF iter   8:  -308.89222273279870   -7.57988e-03   2.78908e-04 DIIS
   @DF-RHF iter   9:  -308.89307661439045   -8.53882e-04   6.77443e-05 DIIS
   @DF-RHF iter  10:  -308.89316752230604   -9.09079e-05   2.13081e-05 DIIS
   @DF-RHF iter  11:  -308.89317773388075   -1.02116e-05   9.66324e-06 DIIS
   @DF-RHF iter  12:  -308.89318052018302   -2.78630e-06   4.38573e-06 DIIS
   @DF-RHF iter  13:  -308.89318144826632   -9.28083e-07   1.81512e-06 DIIS
   @DF-RHF iter  14:  -308.89318164663825   -1.98372e-07   5.35736e-07 DIIS

  ==> Post-Iterations <==

    Orbital Energies (a.u.)
    -----------------------

    Doubly Occupied:                                                      

       1A    -20.555708     2A    -11.331980     3A    -11.231570  
       4A    -11.227231     5A    -11.221473     6A    -11.214567  
       7A    -11.181454     8A     -1.402665     9A     -1.120903  
      10A     -1.050203    11A     -1.002372    12A     -0.887801  
      13A     -0.821551    14A     -0.730440    15A     -0.704945  
      16A     -0.660074    17A     -0.646262    18A     -0.615893  
      19A     -0.607142    20A     -0.567997    21A     -0.557677  
      22A     -0.525710    23A     -0.518499    24A     -0.486105  
      25A     -0.470501    26A     -0.462365    27A     -0.406476  
      28A     -0.390590  

    Virtual:                                                              

      29A      0.156879    30A      0.222935    31A      0.250175  
      32A      0.272236    33A      0.278863    34A      0.286785  
      35A      0.306089    36A      0.323814    37A      0.330198  
      38A      0.334844    39A      0.345576    40A      0.358321  
      41A      0.385098    42A      0.405236    43A      0.433285  
      44A      0.471387    45A      0.478712    46A      0.508650  
      47A      0.565889    48A      0.696881    49A      0.737971  
      50A      0.761712    51A      0.766784    52A      0.783857  
      53A      0.797920    54A      0.835267    55A      0.861059  
      56A      0.903968    57A      0.907948    58A      0.927410  
      59A      0.952157    60A      0.980670    61A      1.006912  
      62A      1.029585    63A      1.076364    64A      1.094493  
      65A      1.114033    66A      1.124945    67A      1.137132  
      68A      1.150723    69A      1.161250    70A      1.183388  
      71A      1.194291    72A      1.205580    73A      1.209918  
      74A      1.222394    75A      1.229982    76A      1.249303  
      77A      1.315682    78A      1.358550    79A      1.388334  
      80A      1.410531    81A      1.451205    82A      1.489237  
      83A      1.608997    84A      1.612201    85A      1.717860  
      86A      1.804468    87A      1.828690    88A      1.842466  
      89A      1.933467    90A      1.991103    91A      2.017798  
      92A      2.053522    93A      2.110231    94A      2.124438  
      95A      2.161686    96A      2.175131    97A      2.210759  
      98A      2.240774    99A      2.276079   100A      2.313409  
     101A      2.344976   102A      2.364019   103A      2.397592  
     104A      2.452890   105A      2.466398   106A      2.509077  
     107A      2.545689   108A      2.634203   109A      2.678530  
     110A      2.706095   111A      2.714255   112A      2.740528  
     113A      2.787242   114A      2.843449   115A      2.901379  
     116A      2.974908   117A      2.987999   118A      3.048937  
     119A      3.088733   120A      3.143954   121A      3.373790  
     122A      3.378333   123A      4.539870   124A      4.571851  
     125A      4.710207   126A      4.784110   127A      4.856664  
     128A      4.914274   129A      5.095064  

    Final Occupation by Irrep:
              A 
    DOCC [    28 ]

  Energy converged.

  @DF-RHF Final Energy:  -308.89318164663825

   => Energetics <=

    Nuclear Repulsion Energy =            332.6118998246214460
    One-Electron Energy =               -1077.8098614404959790
    Two-Electron Energy =                 436.3047799692370745
    DFT Exchange-Correlation Energy =       0.0000000000000000
    Empirical Dispersion Energy =           0.0000000000000000
    PCM Polarization Energy =               0.0000000000000000
    EFP Energy =                            0.0000000000000000
    Total Energy =                       -308.8931816466374585

    Alert: EFP and PCM quantities not currently incorporated into SCF psivars.

Properties will be evaluated at   0.000000,   0.000000,   0.000000 Bohr
  ==> Properties <==


Properties computed using the SCF density matrix

  Nuclear Dipole Moment: (a.u.)
     X:     3.0920      Y:     5.9111      Z:    -2.0868

  Electronic Dipole Moment: (a.u.)
     X:    -2.7242      Y:    -4.9001      Z:     2.4176

  Dipole Moment: (a.u.)
     X:     0.3678      Y:     1.0110      Z:     0.3308     Total:     1.1255

  Dipole Moment: (Debye)
     X:     0.9347      Y:     2.5696      Z:     0.8409     Total:     2.8607


  Saving occupied orbitals to File 180.

*** tstop() called on cx1-1-2-2.cx1.hpc.ic.ac.uk at Tue Jul  5 16:49:24 2016
Module time:
	user time   =      10.79 seconds =       0.18 minutes
	system time =       0.06 seconds =       0.00 minutes
	total time  =         11 seconds =       0.18 minutes
Total time:
	user time   =      10.79 seconds =       0.18 minutes
	system time =       0.06 seconds =       0.00 minutes
	total time  =         11 seconds =       0.18 minutes


Properties will be evaluated at   0.000000,   0.000000,   0.000000 Bohr

Properties computed using the  density matrix

  Nuclear Dipole Moment: (a.u.)
     X:     3.0920      Y:     5.9111      Z:    -2.0868

  Electronic Dipole Moment: (a.u.)
     X:    -2.7242      Y:    -4.9001      Z:     2.4176

  Dipole Moment: (a.u.)
     X:     0.3678      Y:     1.0110      Z:     0.3308     Total:     1.1255

  Dipole Moment: (Debye)
     X:     0.9347      Y:     2.5696      Z:     0.8409     Total:     2.8607

  Quadrupole Moment: (Debye Ang)
    XX:   -46.1518     YY:   -48.5806     ZZ:   -44.4970
    XY:    -4.0759     XZ:     0.7392     YZ:     0.4121

  Traceless Quadrupole Moment: (Debye Ang)
    XX:     0.2580     YY:    -2.1708     ZZ:     1.9128
    XY:    -4.0759     XZ:     0.7392     YZ:     0.4121

  Mulliken Charges: (a.u.)
   Center  Symbol    Alpha    Beta     Spin     Total
       1     O     4.25532  4.25532  0.00000 -0.51064
       2     C     2.76424  2.76424  0.00000  0.47152
       3     C     3.20084  3.20084  0.00000 -0.40167
       4     C     3.31854  3.31854  0.00000 -0.63708
       5     C     3.15363  3.15363  0.00000 -0.30727
       6     H     0.41255  0.41255  0.00000  0.17491
       7     H     0.39546  0.39546  0.00000  0.20908
       8     C     3.16181  3.16181  0.00000 -0.32363
       9     H     0.41058  0.41058  0.00000  0.17884
      10     H     0.41752  0.41752  0.00000  0.16497
      11     C     3.26441  3.26441  0.00000 -0.52882
      12     H     0.41904  0.41904  0.00000  0.16193
      13     H     0.40621  0.40621  0.00000  0.18757
      14     H     0.42689  0.42689  0.00000  0.14622
      15     H     0.40823  0.40823  0.00000  0.18354
      16     H     0.41605  0.41605  0.00000  0.16790
      17     H     0.38725  0.38725  0.00000  0.22550
      18     H     0.37670  0.37670  0.00000  0.24660
      19     H     0.40473  0.40473  0.00000  0.19054

   Total alpha = 28.00000, Total beta = 28.00000, Total charge = -0.00000


*** PSI4 exiting successfully. Buy a developer a beer!
