    -----------------------------------------------------------------------
          Psi4: An Open-Source Ab Initio Electronic Structure Package
                              Psi4 (no tag) Driver

                          Git: Rev {detached?}  

    J. M. Turney, A. C. Simmonett, R. M. Parrish, E. G. Hohenstein,
    F. A. Evangelista, J. T. Fermann, B. J. Mintz, L. A. Burns, J. J. Wilke,
    M. L. Abrams, N. J. Russ, M. L. Leininger, C. L. Janssen, E. T. Seidl,
    W. D. Allen, H. F. Schaefer, R. A. King, E. F. Valeev, C. D. Sherrill,
    and T. D. Crawford, WIREs Comput. Mol. Sci. 2, 556-565 (2012)
    (doi: 10.1002/wcms.93)

                         Additional Contributions by
    A. E. DePrince, M. Saitow, U. Bozkaya, A. Yu. Sokolov
    -----------------------------------------------------------------------


    Psi4 started on: Tue Jul  5 16:31:50 2016

    Process ID:   2437
    PSI4DATADIR: /export131/home/mjharvey/miniconda3/share
    Memory level set to 256.000 MB

  ==> Input File <==

--------------------------------------------------------------------------
set {
	reference rhf
	basis 6-31G*
}


set_num_threads( 1 )
memory 2 gb

molecule MOL {
0 1

H	 -1.836216	 1.387520	 -0.000064
C	 -1.301823	 0.443321	 -0.000031
O	 -0.003969	 0.658512	 0.000451
O	 -1.829879	 -0.616434	 -0.000857
C	 0.850537	 -0.484732	 0.000380
C	 2.278416	 0.015741	 0.032133
H	 0.649550	 -1.070079	 -0.886351
H	 0.618746	 -1.093809	 0.863278
H	 2.490185	 0.630307	 -0.835332
H	 2.963382	 -0.825719	 0.032629
H	 2.459394	 0.606494	 0.922720

	symmetry c1
}
set optking {
	frozen_dihedral = ("
		5 3 2 4
	")
}

ee = energy('scf')
oeprop('DIPOLE', 'QUADRUPOLE', 'MULLIKEN_CHARGES')
f=open( 'psi4out.xyz', 'w' )
f.write( "11  " )
f.write( str(ee) + "\n" )
f.write( MOL.save_string_xyz() )
f.close()
--------------------------------------------------------------------------

  Memory set to   2.000 GiB by Python script.

*** tstart() called on cx1-3-6-1.cx1.hpc.ic.ac.uk
*** at Tue Jul  5 16:31:51 2016


         ---------------------------------------------------------
                                   SCF
            by Justin Turney, Rob Parrish, and Andy Simmonett
                              RHF Reference
                        1 Threads,   2000 MiB Core
         ---------------------------------------------------------

  ==> Geometry <==

    Molecular point group: c1
    Full point group: C1

    Geometry (in Angstrom), charge = 0, multiplicity = 1:

       Center              X                  Y                   Z               Mass       
    ------------   -----------------  -----------------  -----------------  -----------------
           H         -1.836159730617     1.387562551247    -0.006559800566     1.007825032070
           C         -1.301766730617     0.443363551247    -0.006526800566    12.000000000000
           O         -0.003912730617     0.658554551247    -0.006044800566    15.994914619560
           O         -1.829822730617    -0.616391448753    -0.007352800566    15.994914619560
           C          0.850593269383    -0.484689448753    -0.006115800566    12.000000000000
           C          2.278472269383     0.015783551247     0.025637199434    12.000000000000
           H          0.649606269383    -1.070036448753    -0.892846800566     1.007825032070
           H          0.618802269383    -1.093766448753     0.856782199434     1.007825032070
           H          2.490241269383     0.630349551247    -0.841827800566     1.007825032070
           H          2.963438269383    -0.825676448753     0.026133199434     1.007825032070
           H          2.459450269383     0.606536551247     0.916224199434     1.007825032070

  Running in c1 symmetry.

  Rotational constants: A =      0.62462  B =      0.09718  C =      0.08679 [cm^-1]
  Rotational constants: A =  18725.61381  B =   2913.49919  C =   2601.87135 [MHz]
  Nuclear repulsion =  179.319690609054163

  Charge       = 0
  Multiplicity = 1
  Electrons    = 40
  Nalpha       = 20
  Nbeta        = 20

  ==> Algorithm <==

  SCF Algorithm Type is DF.
  DIIS enabled.
  MOM disabled.
  Fractional occupation disabled.
  Guess Type is CORE.
  Energy threshold   = 1.00e-06
  Density threshold  = 1.00e-06
  Integral threshold = 0.00e+00

  ==> Primary Basis <==

  Basis Set: 6-31G*
    Number of shells: 42
    Number of basis function: 87
    Number of Cartesian functions: 87
    Spherical Harmonics?: false
    Max angular momentum: 2

  ==> Pre-Iterations <==

   -------------------------------------------------------
    Irrep   Nso     Nmo     Nalpha   Nbeta   Ndocc  Nsocc
   -------------------------------------------------------
     A         87      87       0       0       0       0
   -------------------------------------------------------
    Total      87      87      20      20      20       0
   -------------------------------------------------------

 OEINTS: Overlap, kinetic, potential, dipole, and quadrupole integrals
         stored in file 35.

  ==> Integral Setup <==

  ==> DFJK: Density-Fitted J/K Matrices <==

    J tasked:                  Yes
    K tasked:                  Yes
    wK tasked:                  No
    OpenMP threads:              1
    Integrals threads:           1
    Memory (MB):              1430
    Algorithm:                Core
    Integral Cache:           NONE
    Schwarz Cutoff:          1E-12
    Fitting Condition:       1E-12

   => Auxiliary Basis Set <=

  Basis Set: 
    Number of shells: 174
    Number of basis function: 555
    Number of Cartesian functions: 555
    Spherical Harmonics?: false
    Max angular momentum: 3

  Minimum eigenvalue in the overlap matrix is 4.6048036571E-03.
  Using Symmetric Orthogonalization.
  SCF Guess: Core (One-Electron) Hamiltonian.

  ==> Iterations <==

                           Total Energy        Delta E     RMS |[F,P]|

   @DF-RHF iter   1:  -215.08803676728880   -2.15088e+02   8.35155e-02 
   @DF-RHF iter   2:  -142.83459037572507    7.22534e+01   1.05426e-01 DIIS
   @DF-RHF iter   3:  -252.13826653857004   -1.09304e+02   3.00090e-02 DIIS
   @DF-RHF iter   4:  -221.18895217236471    3.09493e+01   9.40911e-02 DIIS
   @DF-RHF iter   5:  -235.16325006940983   -1.39743e+01   6.04300e-02 DIIS
   @DF-RHF iter   6:  -249.11645230862698   -1.39532e+01   4.70512e-02 DIIS
   @DF-RHF iter   7:  -251.05906150886321   -1.94261e+00   4.10030e-02 DIIS
   @DF-RHF iter   8:  -264.81593153560516   -1.37569e+01   1.97921e-02 DIIS
   @DF-RHF iter   9:  -266.33199527111617   -1.51606e+00   9.80655e-03 DIIS
   @DF-RHF iter  10:  -266.70364073814062   -3.71645e-01   5.43864e-03 DIIS
   @DF-RHF iter  11:  -266.80314163752575   -9.95009e-02   2.18010e-03 DIIS
   @DF-RHF iter  12:  -266.82293977588415   -1.97981e-02   1.02985e-03 DIIS
   @DF-RHF iter  13:  -266.82828293024556   -5.34315e-03   3.50379e-04 DIIS
   @DF-RHF iter  14:  -266.82896948036171   -6.86550e-04   6.41890e-05 DIIS
   @DF-RHF iter  15:  -266.82899168456504   -2.22042e-05   2.58041e-05 DIIS
   @DF-RHF iter  16:  -266.82899676308807   -5.07852e-06   1.01029e-05 DIIS
   @DF-RHF iter  17:  -266.82899778879460   -1.02571e-06   3.89542e-06 DIIS
   @DF-RHF iter  18:  -266.82899790752788   -1.18733e-07   1.26285e-06 DIIS
   @DF-RHF iter  19:  -266.82899791879106   -1.12632e-08   3.67768e-07 DIIS

  ==> Post-Iterations <==

    Orbital Energies (a.u.)
    -----------------------

    Doubly Occupied:                                                      

       1A    -20.612990     2A    -20.557075     3A    -11.378372  
       4A    -11.291872     5A    -11.226826     6A     -1.476489  
       7A     -1.374029     8A     -1.052799     9A     -0.902561  
      10A     -0.805619    11A     -0.737462    12A     -0.690645  
      13A     -0.677911    14A     -0.590826    15A     -0.576202  
      16A     -0.557018    17A     -0.517724    18A     -0.515057  
      19A     -0.459967    20A     -0.454638  

    Virtual:                                                              

      21A      0.194474    22A      0.239273    23A      0.277529  
      24A      0.296736    25A      0.301779    26A      0.311052  
      27A      0.344107    28A      0.344847    29A      0.402746  
      30A      0.455624    31A      0.507305    32A      0.717723  
      33A      0.719803    34A      0.735805    35A      0.737967  
      36A      0.787086    37A      0.870181    38A      0.907967  
      39A      0.932186    40A      0.987408    41A      1.024722  
      42A      1.099931    43A      1.109320    44A      1.113078  
      45A      1.156429    46A      1.178234    47A      1.183663  
      48A      1.197893    49A      1.239209    50A      1.272877  
      51A      1.343352    52A      1.370348    53A      1.444954  
      54A      1.513632    55A      1.620042    56A      1.644309  
      57A      1.696508    58A      1.744044    59A      1.836683  
      60A      1.894478    61A      1.976892    62A      2.038193  
      63A      2.092258    64A      2.140362    65A      2.200551  
      66A      2.226285    67A      2.293658    68A      2.363949  
      69A      2.472416    70A      2.476591    71A      2.551159  
      72A      2.596200    73A      2.651911    74A      2.677304  
      75A      2.763138    76A      2.863698    77A      2.966252  
      78A      3.040659    79A      3.055792    80A      3.304161  
      81A      3.330976    82A      3.484520    83A      4.264676  
      84A      4.411156    85A      4.593290    86A      4.640246  
      87A      4.846262  

    Final Occupation by Irrep:
              A 
    DOCC [    20 ]

  Energy converged.

  @DF-RHF Final Energy:  -266.82899791879106

   => Energetics <=

    Nuclear Repulsion Energy =            179.3196906090541631
    One-Electron Energy =                -719.3852212368573191
    Two-Electron Energy =                 273.2365327090122946
    DFT Exchange-Correlation Energy =       0.0000000000000000
    Empirical Dispersion Energy =           0.0000000000000000
    PCM Polarization Energy =               0.0000000000000000
    EFP Energy =                            0.0000000000000000
    Total Energy =                       -266.8289979187908330

    Alert: EFP and PCM quantities not currently incorporated into SCF psivars.

Properties will be evaluated at   0.000000,   0.000000,   0.000000 Bohr
  ==> Properties <==


Properties computed using the SCF density matrix

  Nuclear Dipole Moment: (a.u.)
     X:     6.8773      Y:    -0.3420      Z:     0.0542

  Electronic Dipole Moment: (a.u.)
     X:    -6.1108      Y:     0.7312      Z:    -0.0516

  Dipole Moment: (a.u.)
     X:     0.7665      Y:     0.3892      Z:     0.0026     Total:     0.8596

  Dipole Moment: (Debye)
     X:     1.9481      Y:     0.9891      Z:     0.0067     Total:     2.1849


  Saving occupied orbitals to File 180.

*** tstop() called on cx1-3-6-1.cx1.hpc.ic.ac.uk at Tue Jul  5 16:31:55 2016
Module time:
	user time   =       3.99 seconds =       0.07 minutes
	system time =       0.04 seconds =       0.00 minutes
	total time  =          4 seconds =       0.07 minutes
Total time:
	user time   =       3.99 seconds =       0.07 minutes
	system time =       0.04 seconds =       0.00 minutes
	total time  =          4 seconds =       0.07 minutes


Properties will be evaluated at   0.000000,   0.000000,   0.000000 Bohr

Properties computed using the  density matrix

  Nuclear Dipole Moment: (a.u.)
     X:     6.8773      Y:    -0.3420      Z:     0.0542

  Electronic Dipole Moment: (a.u.)
     X:    -6.1108      Y:     0.7312      Z:    -0.0516

  Dipole Moment: (a.u.)
     X:     0.7665      Y:     0.3892      Z:     0.0026     Total:     0.8596

  Dipole Moment: (Debye)
     X:     1.9481      Y:     0.9891      Z:     0.0067     Total:     2.1849

  Quadrupole Moment: (Debye Ang)
    XX:   -31.7630     YY:   -30.5131     ZZ:   -29.1289
    XY:    -5.7138     XZ:    -0.0149     YZ:    -0.0141

  Traceless Quadrupole Moment: (Debye Ang)
    XX:    -1.2946     YY:    -0.0448     ZZ:     1.3394
    XY:    -5.7138     XZ:    -0.0149     YZ:    -0.0141

  Mulliken Charges: (a.u.)
   Center  Symbol    Alpha    Beta     Spin     Total
       1     H     0.41025  0.41025  0.00000  0.17949
       2     C     2.72764  2.72764  0.00000  0.54473
       3     O     4.29110  4.29110  0.00000 -0.58220
       4     O     4.26321  4.26321  0.00000 -0.52642
       5     C     3.00640  3.00640  0.00000 -0.01280
       6     C     3.24945  3.24945  0.00000 -0.49890
       7     H     0.40836  0.40836  0.00000  0.18327
       8     H     0.40779  0.40779  0.00000  0.18441
       9     H     0.41038  0.41038  0.00000  0.17923
      10     H     0.41500  0.41500  0.00000  0.16999
      11     H     0.41040  0.41040  0.00000  0.17920

   Total alpha = 20.00000, Total beta = 20.00000, Total charge = -0.00000


*** PSI4 exiting successfully. Buy a developer a beer!
