    -----------------------------------------------------------------------
          Psi4: An Open-Source Ab Initio Electronic Structure Package
                              Psi4 (no tag) Driver

                          Git: Rev {detached?}  

    J. M. Turney, A. C. Simmonett, R. M. Parrish, E. G. Hohenstein,
    F. A. Evangelista, J. T. Fermann, B. J. Mintz, L. A. Burns, J. J. Wilke,
    M. L. Abrams, N. J. Russ, M. L. Leininger, C. L. Janssen, E. T. Seidl,
    W. D. Allen, H. F. Schaefer, R. A. King, E. F. Valeev, C. D. Sherrill,
    and T. D. Crawford, WIREs Comput. Mol. Sci. 2, 556-565 (2012)
    (doi: 10.1002/wcms.93)

                         Additional Contributions by
    A. E. DePrince, M. Saitow, U. Bozkaya, A. Yu. Sokolov
    -----------------------------------------------------------------------


    Psi4 started on: Tue Jul  5 16:47:01 2016

    Process ID:  10980
    PSI4DATADIR: /export131/home/mjharvey/miniconda3/share
    Memory level set to 256.000 MB

  ==> Input File <==

--------------------------------------------------------------------------
set {
	reference rhf
	basis 6-31G*
}


set_num_threads( 1 )
memory 2 gb

molecule MOL {
0 1

H	 0.095237	 -0.870635	 -0.374738
C	 -0.356513	 -1.539044	 0.355531
O	 -1.020556	 -0.830459	 1.351670
H	 -1.086356	 -2.161214	 -0.143844
H	 0.424073	 -2.176088	 0.769399
C	 -0.200255	 0.017064	 2.091979
C	 1.244560	 -0.262687	 1.750721
H	 -0.427560	 1.058853	 1.862404
H	 -0.352011	 -0.132141	 3.159083
O	 1.392611	 -0.295398	 0.366430
H	 1.872653	 0.510224	 2.189028
H	 1.536610	 -1.219695	 2.184930
C	 2.706965	 -0.449871	 -0.062409
H	 2.756559	 -0.644779	 -1.131878
H	 3.305899	 0.433456	 0.155466
H	 3.125548	 -1.294566	 0.467107

	symmetry c1
}
set optking {
	frozen_dihedral = ("
		3 6 7 11,
		7 10 13 14
	")
}

ee = energy('scf')
oeprop('DIPOLE', 'QUADRUPOLE', 'MULLIKEN_CHARGES')
f=open( 'psi4out.xyz', 'w' )
f.write( "16  " )
f.write( str(ee) + "\n" )
f.write( MOL.save_string_xyz() )
f.close()
--------------------------------------------------------------------------

  Memory set to   2.000 GiB by Python script.

*** tstart() called on cx1-3-2-2.cx1.hpc.ic.ac.uk
*** at Tue Jul  5 16:47:02 2016


         ---------------------------------------------------------
                                   SCF
            by Justin Turney, Rob Parrish, and Andy Simmonett
                              RHF Reference
                        1 Threads,   2000 MiB Core
         ---------------------------------------------------------

  ==> Geometry <==

    Molecular point group: c1
    Full point group: C1

    Geometry (in Angstrom), charge = 0, multiplicity = 1:

       Center              X                  Y                   Z               Mass       
    ------------   -----------------  -----------------  -----------------  -----------------
           H         -0.549017445693    -0.300290169447    -1.333115054460     1.007825032070
           C         -1.000767445693    -0.968699169447    -0.602846054460    12.000000000000
           O         -1.664810445693    -0.260114169447     0.393292945540    15.994914619560
           H         -1.730610445693    -1.590869169447    -1.102221054460     1.007825032070
           H         -0.220181445693    -1.605743169447    -0.188978054460     1.007825032070
           C         -0.844509445693     0.587408830553     1.133601945540    12.000000000000
           C          0.600305554307     0.307657830553     0.792343945540    12.000000000000
           H         -1.071814445693     1.629197830553     0.904026945540     1.007825032070
           H         -0.996265445693     0.438203830553     2.200705945540     1.007825032070
           O          0.748356554307     0.274946830553    -0.591947054460    15.994914619560
           H          1.228398554307     1.080568830553     1.230650945540     1.007825032070
           H          0.892355554307    -0.649350169447     1.226552945540     1.007825032070
           C          2.062710554307     0.120473830553    -1.020786054460    12.000000000000
           H          2.112304554307    -0.074434169447    -2.090255054460     1.007825032070
           H          2.661644554307     1.003800830553    -0.802911054460     1.007825032070
           H          2.481293554307    -0.724221169447    -0.491270054460     1.007825032070

  Running in c1 symmetry.

  Rotational constants: A =      0.22916  B =      0.09014  C =      0.07029 [cm^-1]
  Rotational constants: A =   6870.01889  B =   2702.43049  C =   2107.30098 [MHz]
  Nuclear repulsion =  277.939852403253667

  Charge       = 0
  Multiplicity = 1
  Electrons    = 50
  Nalpha       = 25
  Nbeta        = 25

  ==> Algorithm <==

  SCF Algorithm Type is DF.
  DIIS enabled.
  MOM disabled.
  Fractional occupation disabled.
  Guess Type is CORE.
  Energy threshold   = 1.00e-06
  Density threshold  = 1.00e-06
  Integral threshold = 0.00e+00

  ==> Primary Basis <==

  Basis Set: 6-31G*
    Number of shells: 56
    Number of basis function: 110
    Number of Cartesian functions: 110
    Spherical Harmonics?: false
    Max angular momentum: 2

  ==> Pre-Iterations <==

   -------------------------------------------------------
    Irrep   Nso     Nmo     Nalpha   Nbeta   Ndocc  Nsocc
   -------------------------------------------------------
     A        110     110       0       0       0       0
   -------------------------------------------------------
    Total     110     110      25      25      25       0
   -------------------------------------------------------

 OEINTS: Overlap, kinetic, potential, dipole, and quadrupole integrals
         stored in file 35.

  ==> Integral Setup <==

  ==> DFJK: Density-Fitted J/K Matrices <==

    J tasked:                  Yes
    K tasked:                  Yes
    wK tasked:                  No
    OpenMP threads:              1
    Integrals threads:           1
    Memory (MB):              1430
    Algorithm:                Core
    Integral Cache:           NONE
    Schwarz Cutoff:          1E-12
    Fitting Condition:       1E-12

   => Auxiliary Basis Set <=

  Basis Set: 
    Number of shells: 234
    Number of basis function: 736
    Number of Cartesian functions: 736
    Spherical Harmonics?: false
    Max angular momentum: 3

  Minimum eigenvalue in the overlap matrix is 3.6456708850E-03.
  Using Symmetric Orthogonalization.
  SCF Guess: Core (One-Electron) Hamiltonian.

  ==> Iterations <==

                           Total Energy        Delta E     RMS |[F,P]|

   @DF-RHF iter   1:  -250.05608485692630   -2.50056e+02   7.60843e-02 
   @DF-RHF iter   2:  -195.65935699569627    5.43967e+01   6.35065e-02 DIIS
   @DF-RHF iter   3:  -264.40049238728682   -6.87411e+01   6.20692e-02 DIIS
   @DF-RHF iter   4:  -293.93090863995928   -2.95304e+01   3.59707e-02 DIIS
   @DF-RHF iter   5:  -306.44031971680749   -1.25094e+01   8.66431e-03 DIIS
   @DF-RHF iter   6:  -306.82683119547448   -3.86511e-01   3.66576e-03 DIIS
   @DF-RHF iter   7:  -306.89543191938083   -6.86007e-02   1.03456e-03 DIIS
   @DF-RHF iter   8:  -306.90219462474045   -6.76271e-03   3.56503e-04 DIIS
   @DF-RHF iter   9:  -306.90315452628749   -9.59902e-04   1.20135e-04 DIIS
   @DF-RHF iter  10:  -306.90327553064083   -1.21004e-04   3.43215e-05 DIIS
   @DF-RHF iter  11:  -306.90328684694487   -1.13163e-05   1.19326e-05 DIIS
   @DF-RHF iter  12:  -306.90328815894361   -1.31200e-06   2.59889e-06 DIIS
   @DF-RHF iter  13:  -306.90328823837319   -7.94296e-08   5.15061e-07 DIIS

  ==> Post-Iterations <==

    Orbital Energies (a.u.)
    -----------------------

    Doubly Occupied:                                                      

       1A    -20.564030     2A    -20.540872     3A    -11.280397  
       4A    -11.278966     5A    -11.269357     6A    -11.224501  
       7A     -1.415728     8A     -1.362786     9A     -1.030855  
      10A     -0.959724    11A     -0.886217    12A     -0.827655  
      13A     -0.714372    14A     -0.695818    15A     -0.656849  
      16A     -0.635898    17A     -0.606434    18A     -0.592298  
      19A     -0.563476    20A     -0.546214    21A     -0.523469  
      22A     -0.491538    23A     -0.444277    24A     -0.410702  
      25A     -0.376009  

    Virtual:                                                              

      26A      0.219860    27A      0.260733    28A      0.282830  
      29A      0.298075    30A      0.300054    31A      0.319051  
      32A      0.321732    33A      0.330361    34A      0.338631  
      35A      0.359690    36A      0.380996    37A      0.413806  
      38A      0.425856    39A      0.450165    40A      0.463552  
      41A      0.722411    42A      0.748550    43A      0.763904  
      44A      0.775028    45A      0.807616    46A      0.816810  
      47A      0.852880    48A      0.873216    49A      0.894752  
      50A      0.937146    51A      1.012180    52A      1.051036  
      53A      1.094026    54A      1.112327    55A      1.115766  
      56A      1.131683    57A      1.144777    58A      1.164448  
      59A      1.184000    60A      1.200340    61A      1.211135  
      62A      1.234399    63A      1.254871    64A      1.301415  
      65A      1.326106    66A      1.415101    67A      1.441700  
      68A      1.476046    69A      1.484496    70A      1.553057  
      71A      1.640182    72A      1.672041    73A      1.697862  
      74A      1.754543    75A      1.823835    76A      1.884913  
      77A      1.941418    78A      1.995976    79A      2.130915  
      80A      2.185007    81A      2.232735    82A      2.261006  
      83A      2.289878    84A      2.393562    85A      2.427900  
      86A      2.442858    87A      2.453298    88A      2.500795  
      89A      2.515965    90A      2.546122    91A      2.588709  
      92A      2.607862    93A      2.647717    94A      2.702480  
      95A      2.767360    96A      2.809082    97A      2.857594  
      98A      2.882736    99A      2.953499   100A      3.029473  
     101A      3.128355   102A      3.222307   103A      3.320789  
     104A      3.346200   105A      4.436383   106A      4.514305  
     107A      4.651756   108A      4.708194   109A      4.776843  
     110A      4.924187  

    Final Occupation by Irrep:
              A 
    DOCC [    25 ]

  Energy converged.

  @DF-RHF Final Energy:  -306.90328823837319

   => Energetics <=

    Nuclear Repulsion Energy =            277.9398524032536670
    One-Electron Energy =                -969.8894074860938872
    Two-Electron Energy =                 385.0462668444669134
    DFT Exchange-Correlation Energy =       0.0000000000000000
    Empirical Dispersion Energy =           0.0000000000000000
    PCM Polarization Energy =               0.0000000000000000
    EFP Energy =                            0.0000000000000000
    Total Energy =                       -306.9032882383733067

    Alert: EFP and PCM quantities not currently incorporated into SCF psivars.

Properties will be evaluated at   0.000000,   0.000000,   0.000000 Bohr
  ==> Properties <==


Properties computed using the SCF density matrix

  Nuclear Dipole Moment: (a.u.)
     X:     4.5031      Y:    -0.7435      Z:    -0.4198

  Electronic Dipole Moment: (a.u.)
     X:    -3.2083      Y:     0.9104      Z:     0.5893

  Dipole Moment: (a.u.)
     X:     1.2947      Y:     0.1669      Z:     0.1694     Total:     1.3164

  Dipole Moment: (Debye)
     X:     3.2908      Y:     0.4242      Z:     0.4307     Total:     3.3459


  Saving occupied orbitals to File 180.

*** tstop() called on cx1-3-2-2.cx1.hpc.ic.ac.uk at Tue Jul  5 16:47:09 2016
Module time:
	user time   =       6.86 seconds =       0.11 minutes
	system time =       0.05 seconds =       0.00 minutes
	total time  =          7 seconds =       0.12 minutes
Total time:
	user time   =       6.86 seconds =       0.11 minutes
	system time =       0.05 seconds =       0.00 minutes
	total time  =          7 seconds =       0.12 minutes


Properties will be evaluated at   0.000000,   0.000000,   0.000000 Bohr

Properties computed using the  density matrix

  Nuclear Dipole Moment: (a.u.)
     X:     4.5031      Y:    -0.7435      Z:    -0.4198

  Electronic Dipole Moment: (a.u.)
     X:    -3.2083      Y:     0.9104      Z:     0.5893

  Dipole Moment: (a.u.)
     X:     1.2947      Y:     0.1669      Z:     0.1694     Total:     1.3164

  Dipole Moment: (Debye)
     X:     3.2908      Y:     0.4242      Z:     0.4307     Total:     3.3459

  Quadrupole Moment: (Debye Ang)
    XX:   -40.3761     YY:   -37.9444     ZZ:   -35.5325
    XY:    -0.9769     XZ:    -0.4434     YZ:     1.6682

  Traceless Quadrupole Moment: (Debye Ang)
    XX:    -2.4251     YY:     0.0066     ZZ:     2.4185
    XY:    -0.9769     XZ:    -0.4434     YZ:     1.6682

  Mulliken Charges: (a.u.)
   Center  Symbol    Alpha    Beta     Spin     Total
       1     H     0.38908  0.38908  0.00000  0.22184
       2     C     3.08181  3.08181  0.00000 -0.16363
       3     O     4.31191  4.31191  0.00000 -0.62383
       4     H     0.42688  0.42688  0.00000  0.14624
       5     H     0.44103  0.44103  0.00000  0.11794
       6     C     2.97513  2.97513  0.00000  0.04974
       7     C     3.03808  3.03808  0.00000 -0.07617
       8     H     0.42344  0.42344  0.00000  0.15312
       9     H     0.42218  0.42218  0.00000  0.15564
      10     O     4.30741  4.30741  0.00000 -0.61481
      11     H     0.41932  0.41932  0.00000  0.16136
      12     H     0.41996  0.41996  0.00000  0.16007
      13     C     3.08189  3.08189  0.00000 -0.16378
      14     H     0.41051  0.41051  0.00000  0.17897
      15     H     0.42405  0.42405  0.00000  0.15190
      16     H     0.42730  0.42730  0.00000  0.14540

   Total alpha = 25.00000, Total beta = 25.00000, Total charge =  0.00000


*** PSI4 exiting successfully. Buy a developer a beer!
