    -----------------------------------------------------------------------
          Psi4: An Open-Source Ab Initio Electronic Structure Package
                              Psi4 (no tag) Driver

                          Git: Rev {detached?}  

    J. M. Turney, A. C. Simmonett, R. M. Parrish, E. G. Hohenstein,
    F. A. Evangelista, J. T. Fermann, B. J. Mintz, L. A. Burns, J. J. Wilke,
    M. L. Abrams, N. J. Russ, M. L. Leininger, C. L. Janssen, E. T. Seidl,
    W. D. Allen, H. F. Schaefer, R. A. King, E. F. Valeev, C. D. Sherrill,
    and T. D. Crawford, WIREs Comput. Mol. Sci. 2, 556-565 (2012)
    (doi: 10.1002/wcms.93)

                         Additional Contributions by
    A. E. DePrince, M. Saitow, U. Bozkaya, A. Yu. Sokolov
    -----------------------------------------------------------------------


    Psi4 started on: Tue Jul  5 16:31:44 2016

    Process ID:  16744
    PSI4DATADIR: /export131/home/mjharvey/miniconda3/share
    Memory level set to 256.000 MB

  ==> Input File <==

--------------------------------------------------------------------------
set {
	reference rhf
	basis 6-31G*
}


set_num_threads( 1 )
memory 2 gb

molecule MOL {
0 1

O	 -0.682937	 1.318834	 -0.186099
C	 -0.860635	 0.152188	 -0.042321
C	 -2.173363	 -0.477127	 0.338347
O	 0.083258	 -0.765189	 -0.202595
H	 -2.477673	 -1.180929	 -0.427595
H	 -2.923125	 0.290956	 0.455536
H	 -2.058825	 -1.029004	 1.264191
C	 1.391937	 -0.334737	 -0.569838
C	 2.273066	 -0.130938	 0.648655
H	 1.316984	 0.568944	 -1.155401
H	 1.773135	 -1.129419	 -1.194873
H	 3.281137	 0.121904	 0.334659
H	 1.897132	 0.675073	 1.266221
H	 2.318453	 -1.037430	 1.242478

	symmetry c1
}
set optking {
	frozen_dihedral = ("
		8 4 2 1
	")
}

ee = energy('scf')
oeprop('DIPOLE', 'QUADRUPOLE', 'MULLIKEN_CHARGES')
f=open( 'psi4out.xyz', 'w' )
f.write( "14  " )
f.write( str(ee) + "\n" )
f.write( MOL.save_string_xyz() )
f.close()
--------------------------------------------------------------------------

  Memory set to   2.000 GiB by Python script.

*** tstart() called on cx1-1-2-4.cx1.hpc.ic.ac.uk
*** at Tue Jul  5 16:31:45 2016


         ---------------------------------------------------------
                                   SCF
            by Justin Turney, Rob Parrish, and Andy Simmonett
                              RHF Reference
                        1 Threads,   2000 MiB Core
         ---------------------------------------------------------

  ==> Geometry <==

    Molecular point group: c1
    Full point group: C1

    Geometry (in Angstrom), charge = 0, multiplicity = 1:

       Center              X                  Y                   Z               Mass       
    ------------   -----------------  -----------------  -----------------  -----------------
           O         -0.695792229361     1.357141311435    -0.187009526033    15.994914619560
           C         -0.873490229361     0.190495311435    -0.043231526033    12.000000000000
           C         -2.186218229361    -0.438819688565     0.337436473967    12.000000000000
           O          0.070402770639    -0.726881688565    -0.203505526033    15.994914619560
           H         -2.490528229361    -1.142621688565    -0.428505526033     1.007825032070
           H         -2.935980229361     0.329263311435     0.454625473967     1.007825032070
           H         -2.071680229361    -0.990696688565     1.263280473967     1.007825032070
           C          1.379081770639    -0.296429688565    -0.570748526033    12.000000000000
           C          2.260210770639    -0.092630688565     0.647744473967    12.000000000000
           H          1.304128770639     0.607251311435    -1.156311526033     1.007825032070
           H          1.760279770639    -1.091111688565    -1.195783526033     1.007825032070
           H          3.268281770639     0.160211311435     0.333748473967     1.007825032070
           H          1.884276770639     0.713380311435     1.265310473967     1.007825032070
           H          2.305597770639    -0.999122688565     1.241567473967     1.007825032070

  Running in c1 symmetry.

  Rotational constants: A =      0.25497  B =      0.07576  C =      0.06747 [cm^-1]
  Rotational constants: A =   7643.91030  B =   2271.32359  C =   2022.81306 [MHz]
  Nuclear repulsion =  248.039373001073898

  Charge       = 0
  Multiplicity = 1
  Electrons    = 48
  Nalpha       = 24
  Nbeta        = 24

  ==> Algorithm <==

  SCF Algorithm Type is DF.
  DIIS enabled.
  MOM disabled.
  Fractional occupation disabled.
  Guess Type is CORE.
  Energy threshold   = 1.00e-06
  Density threshold  = 1.00e-06
  Integral threshold = 0.00e+00

  ==> Primary Basis <==

  Basis Set: 6-31G*
    Number of shells: 52
    Number of basis function: 106
    Number of Cartesian functions: 106
    Spherical Harmonics?: false
    Max angular momentum: 2

  ==> Pre-Iterations <==

   -------------------------------------------------------
    Irrep   Nso     Nmo     Nalpha   Nbeta   Ndocc  Nsocc
   -------------------------------------------------------
     A        106     106       0       0       0       0
   -------------------------------------------------------
    Total     106     106      24      24      24       0
   -------------------------------------------------------

 OEINTS: Overlap, kinetic, potential, dipole, and quadrupole integrals
         stored in file 35.

  ==> Integral Setup <==

  ==> DFJK: Density-Fitted J/K Matrices <==

    J tasked:                  Yes
    K tasked:                  Yes
    wK tasked:                  No
    OpenMP threads:              1
    Integrals threads:           1
    Memory (MB):              1430
    Algorithm:                Core
    Integral Cache:           NONE
    Schwarz Cutoff:          1E-12
    Fitting Condition:       1E-12

   => Auxiliary Basis Set <=

  Basis Set: 
    Number of shells: 216
    Number of basis function: 686
    Number of Cartesian functions: 686
    Spherical Harmonics?: false
    Max angular momentum: 3

  Minimum eigenvalue in the overlap matrix is 3.9137006603E-03.
  Using Symmetric Orthogonalization.
  SCF Guess: Core (One-Electron) Hamiltonian.

  ==> Iterations <==

                           Total Energy        Delta E     RMS |[F,P]|

   @DF-RHF iter   1:  -234.73761000088859   -2.34738e+02   8.36595e-02 
   @DF-RHF iter   2:  -205.44999698973407    2.92876e+01   6.29108e-02 DIIS
   @DF-RHF iter   3:  -274.20088559559844   -6.87509e+01   5.38436e-02 DIIS
   @DF-RHF iter   4:  -296.54271400680699   -2.23418e+01   3.24068e-02 DIIS
   @DF-RHF iter   5:  -305.18022250111545   -8.63751e+00   1.08407e-02 DIIS
   @DF-RHF iter   6:  -305.81971651039152   -6.39494e-01   3.12195e-03 DIIS
   @DF-RHF iter   7:  -305.86593742568147   -4.62209e-02   1.25738e-03 DIIS
   @DF-RHF iter   8:  -305.87370902923618   -7.77160e-03   4.57726e-04 DIIS
   @DF-RHF iter   9:  -305.87486483078391   -1.15580e-03   1.61777e-04 DIIS
   @DF-RHF iter  10:  -305.87514687743356   -2.82047e-04   6.55705e-05 DIIS
   @DF-RHF iter  11:  -305.87519325572958   -4.63783e-05   1.76916e-05 DIIS
   @DF-RHF iter  12:  -305.87519728608476   -4.03036e-06   8.12852e-06 DIIS
   @DF-RHF iter  13:  -305.87519787406183   -5.87977e-07   1.89483e-06 DIIS
   @DF-RHF iter  14:  -305.87519792579138   -5.17296e-08   3.88974e-07 DIIS

  ==> Post-Iterations <==

    Orbital Energies (a.u.)
    -----------------------

    Doubly Occupied:                                                      

       1A    -20.601929     2A    -20.544348     3A    -11.376027  
       4A    -11.284231     5A    -11.233417     6A    -11.220129  
       7A     -1.467569     8A     -1.362741     9A     -1.055397  
      10A     -0.999316    11A     -0.881477    12A     -0.767507  
      13A     -0.699146    14A     -0.681871    15A     -0.656921  
      16A     -0.610750    17A     -0.585947    18A     -0.569915  
      19A     -0.560326    20A     -0.528262    21A     -0.517995  
      22A     -0.494150    23A     -0.449856    24A     -0.439529  

    Virtual:                                                              

      25A      0.198821    26A      0.246956    27A      0.260812  
      28A      0.294598    29A      0.302684    30A      0.305583  
      31A      0.319661    32A      0.331256    33A      0.340613  
      34A      0.361086    35A      0.404053    36A      0.417369  
      37A      0.507450    38A      0.548011    39A      0.694646  
      40A      0.721079    41A      0.741804    42A      0.767333  
      43A      0.770205    44A      0.797111    45A      0.831647  
      46A      0.866445    47A      0.901590    48A      0.936045  
      49A      0.966173    50A      1.006339    51A      1.065494  
      52A      1.095074    53A      1.125784    54A      1.137428  
      55A      1.163194    56A      1.170948    57A      1.196435  
      58A      1.199625    59A      1.212702    60A      1.238636  
      61A      1.249626    62A      1.297689    63A      1.340684  
      64A      1.395485    65A      1.412572    66A      1.431383  
      67A      1.636572    68A      1.654568    69A      1.711067  
      70A      1.753344    71A      1.805325    72A      1.841863  
      73A      1.940470    74A      1.977677    75A      2.042424  
      76A      2.086079    77A      2.105473    78A      2.135712  
      79A      2.209183    80A      2.243182    81A      2.272875  
      82A      2.294053    83A      2.392329    84A      2.409401  
      85A      2.478923    86A      2.521336    87A      2.561192  
      88A      2.569545    89A      2.668071    90A      2.679883  
      91A      2.728549    92A      2.756680    93A      2.833408  
      94A      2.932513    95A      2.993567    96A      3.094961  
      97A      3.154872    98A      3.351932    99A      3.408826  
     100A      3.548866   101A      4.415220   102A      4.521834  
     103A      4.585516   104A      4.666394   105A      4.831082  
     106A      4.910456  

    Final Occupation by Irrep:
              A 
    DOCC [    24 ]

  Energy converged.

  @DF-RHF Final Energy:  -305.87519792579138

   => Energetics <=

    Nuclear Repulsion Energy =            248.0393730010738977
    One-Electron Energy =                -908.6516206847754802
    Two-Electron Energy =                 354.7370497579105404
    DFT Exchange-Correlation Energy =       0.0000000000000000
    Empirical Dispersion Energy =           0.0000000000000000
    PCM Polarization Energy =               0.0000000000000000
    EFP Energy =                            0.0000000000000000
    Total Energy =                       -305.8751979257909852

    Alert: EFP and PCM quantities not currently incorporated into SCF psivars.

Properties will be evaluated at   0.000000,   0.000000,   0.000000 Bohr
  ==> Properties <==


Properties computed using the SCF density matrix

  Nuclear Dipole Moment: (a.u.)
     X:     2.8323      Y:    -2.2595      Z:     1.6649

  Electronic Dipole Moment: (a.u.)
     X:    -2.6588      Y:     1.5000      Z:    -1.6054

  Dipole Moment: (a.u.)
     X:     0.1734      Y:    -0.7595      Z:     0.0595     Total:     0.7813

  Dipole Moment: (Debye)
     X:     0.4408      Y:    -1.9305      Z:     0.1513     Total:     1.9859


  Saving occupied orbitals to File 180.

*** tstop() called on cx1-1-2-4.cx1.hpc.ic.ac.uk at Tue Jul  5 16:31:51 2016
Module time:
	user time   =       5.81 seconds =       0.10 minutes
	system time =       0.04 seconds =       0.00 minutes
	total time  =          6 seconds =       0.10 minutes
Total time:
	user time   =       5.81 seconds =       0.10 minutes
	system time =       0.04 seconds =       0.00 minutes
	total time  =          6 seconds =       0.10 minutes


Properties will be evaluated at   0.000000,   0.000000,   0.000000 Bohr

Properties computed using the  density matrix

  Nuclear Dipole Moment: (a.u.)
     X:     2.8323      Y:    -2.2595      Z:     1.6649

  Electronic Dipole Moment: (a.u.)
     X:    -2.6588      Y:     1.5000      Z:    -1.6054

  Dipole Moment: (a.u.)
     X:     0.1734      Y:    -0.7595      Z:     0.0595     Total:     0.7813

  Dipole Moment: (Debye)
     X:     0.4408      Y:    -1.9305      Z:     0.1513     Total:     1.9859

  Quadrupole Moment: (Debye Ang)
    XX:   -30.9072     YY:   -41.9115     ZZ:   -35.3534
    XY:     2.0359     XZ:    -1.4312     YZ:     0.5177

  Traceless Quadrupole Moment: (Debye Ang)
    XX:     5.1502     YY:    -5.8541     ZZ:     0.7040
    XY:     2.0359     XZ:    -1.4312     YZ:     0.5177

  Mulliken Charges: (a.u.)
   Center  Symbol    Alpha    Beta     Spin     Total
       1     O     4.28448  4.28448  0.00000 -0.56895
       2     C     2.62003  2.62003  0.00000  0.75995
       3     C     3.28186  3.28186  0.00000 -0.56372
       4     O     4.30706  4.30706  0.00000 -0.61412
       5     H     0.40020  0.40020  0.00000  0.19960
       6     H     0.39700  0.39700  0.00000  0.20600
       7     H     0.40044  0.40044  0.00000  0.19911
       8     C     3.00943  3.00943  0.00000 -0.01885
       9     C     3.25184  3.25184  0.00000 -0.50369
      10     H     0.39909  0.39909  0.00000  0.20183
      11     H     0.41107  0.41107  0.00000  0.17785
      12     H     0.41723  0.41723  0.00000  0.16554
      13     H     0.40660  0.40660  0.00000  0.18680
      14     H     0.41367  0.41367  0.00000  0.17266

   Total alpha = 24.00000, Total beta = 24.00000, Total charge =  0.00000


*** PSI4 exiting successfully. Buy a developer a beer!
