    -----------------------------------------------------------------------
          Psi4: An Open-Source Ab Initio Electronic Structure Package
                              Psi4 (no tag) Driver

                          Git: Rev {detached?}  

    J. M. Turney, A. C. Simmonett, R. M. Parrish, E. G. Hohenstein,
    F. A. Evangelista, J. T. Fermann, B. J. Mintz, L. A. Burns, J. J. Wilke,
    M. L. Abrams, N. J. Russ, M. L. Leininger, C. L. Janssen, E. T. Seidl,
    W. D. Allen, H. F. Schaefer, R. A. King, E. F. Valeev, C. D. Sherrill,
    and T. D. Crawford, WIREs Comput. Mol. Sci. 2, 556-565 (2012)
    (doi: 10.1002/wcms.93)

                         Additional Contributions by
    A. E. DePrince, M. Saitow, U. Bozkaya, A. Yu. Sokolov
    -----------------------------------------------------------------------


    Psi4 started on: Tue Jul  5 16:39:04 2016

    Process ID:  16905
    PSI4DATADIR: /export131/home/mjharvey/miniconda3/share
    Memory level set to 256.000 MB

  ==> Input File <==

--------------------------------------------------------------------------
set {
	reference rhf
	basis 6-31G*
}


set_num_threads( 1 )
memory 2 gb

molecule MOL {
0 1

O	 0.968737	 -0.101610	 -0.705824
C	 0.028650	 0.075053	 -0.000277
C	 -1.233602	 -0.752807	 0.000328
O	 -0.033267	 1.047919	 0.899501
C	 -2.501530	 0.091881	 0.000126
H	 -1.193807	 -1.406641	 -0.865785
H	 -1.193516	 -1.405779	 0.867015
H	 -2.545121	 0.729328	 -0.874513
H	 -3.377167	 -0.548497	 0.000561
H	 -2.544818	 0.730135	 0.874258
C	 -1.288672	 1.276022	 1.513924
H	 -2.030466	 1.542050	 0.774747
H	 -1.136332	 2.092983	 2.201841
H	 -1.617090	 0.394679	 2.045758

	symmetry c1
}
set optking {
	frozen_dihedral = ("
		4 2 3 6
	")
}

ee = energy('scf')
oeprop('DIPOLE', 'QUADRUPOLE', 'MULLIKEN_CHARGES')
f=open( 'psi4out.xyz', 'w' )
f.write( "14  " )
f.write( str(ee) + "\n" )
f.write( MOL.save_string_xyz() )
f.close()
--------------------------------------------------------------------------

  Memory set to   2.000 GiB by Python script.

*** tstart() called on cx1-1-4-4.cx1.hpc.ic.ac.uk
*** at Tue Jul  5 16:39:04 2016


         ---------------------------------------------------------
                                   SCF
            by Justin Turney, Rob Parrish, and Andy Simmonett
                              RHF Reference
                        1 Threads,   2000 MiB Core
         ---------------------------------------------------------

  ==> Geometry <==

    Molecular point group: c1
    Full point group: C1

    Geometry (in Angstrom), charge = 0, multiplicity = 1:

       Center              X                  Y                   Z               Mass       
    ------------   -----------------  -----------------  -----------------  -----------------
           O          1.658550704185    -0.391923753888    -1.004853263217    15.994914619560
           C          0.718463704185    -0.215260753888    -0.299306263217    12.000000000000
           C         -0.543788295815    -1.043120753888    -0.298701263217    12.000000000000
           O          0.656546704185     0.757605246112     0.600471736783    15.994914619560
           C         -1.811716295815    -0.198432753888    -0.298903263217    12.000000000000
           H         -0.503993295815    -1.696954753888    -1.164814263217     1.007825032070
           H         -0.503702295815    -1.696092753888     0.567985736783     1.007825032070
           H         -1.855307295815     0.439014246112    -1.173542263217     1.007825032070
           H         -2.687353295815    -0.838810753888    -0.298468263217     1.007825032070
           H         -1.855004295815     0.439821246112     0.575228736783     1.007825032070
           C         -0.598858295815     0.985708246112     1.214894736783    12.000000000000
           H         -1.340652295815     1.251736246112     0.475717736783     1.007825032070
           H         -0.446518295815     1.802669246112     1.902811736783     1.007825032070
           H         -0.927276295815     0.104365246112     1.746728736783     1.007825032070

  Running in c1 symmetry.

  Rotational constants: A =      0.18194  B =      0.11869  C =      0.07875 [cm^-1]
  Rotational constants: A =   5454.48402  B =   3558.11750  C =   2360.71624 [MHz]
  Nuclear repulsion =  259.141641789981122

  Charge       = 0
  Multiplicity = 1
  Electrons    = 48
  Nalpha       = 24
  Nbeta        = 24

  ==> Algorithm <==

  SCF Algorithm Type is DF.
  DIIS enabled.
  MOM disabled.
  Fractional occupation disabled.
  Guess Type is CORE.
  Energy threshold   = 1.00e-06
  Density threshold  = 1.00e-06
  Integral threshold = 0.00e+00

  ==> Primary Basis <==

  Basis Set: 6-31G*
    Number of shells: 52
    Number of basis function: 106
    Number of Cartesian functions: 106
    Spherical Harmonics?: false
    Max angular momentum: 2

  ==> Pre-Iterations <==

   -------------------------------------------------------
    Irrep   Nso     Nmo     Nalpha   Nbeta   Ndocc  Nsocc
   -------------------------------------------------------
     A        106     106       0       0       0       0
   -------------------------------------------------------
    Total     106     106      24      24      24       0
   -------------------------------------------------------

 OEINTS: Overlap, kinetic, potential, dipole, and quadrupole integrals
         stored in file 35.

  ==> Integral Setup <==

  ==> DFJK: Density-Fitted J/K Matrices <==

    J tasked:                  Yes
    K tasked:                  Yes
    wK tasked:                  No
    OpenMP threads:              1
    Integrals threads:           1
    Memory (MB):              1430
    Algorithm:                Core
    Integral Cache:           NONE
    Schwarz Cutoff:          1E-12
    Fitting Condition:       1E-12

   => Auxiliary Basis Set <=

  Basis Set: 
    Number of shells: 216
    Number of basis function: 686
    Number of Cartesian functions: 686
    Spherical Harmonics?: false
    Max angular momentum: 3

  Minimum eigenvalue in the overlap matrix is 3.3929938038E-03.
  Using Symmetric Orthogonalization.
  SCF Guess: Core (One-Electron) Hamiltonian.

  ==> Iterations <==

                           Total Energy        Delta E     RMS |[F,P]|

   @DF-RHF iter   1:  -244.72328182897274   -2.44723e+02   8.06473e-02 
   @DF-RHF iter   2:  -207.00250865761376    3.77208e+01   6.91904e-02 DIIS
   @DF-RHF iter   3:  -263.62052059385042   -5.66180e+01   6.06613e-02 DIIS
   @DF-RHF iter   4:  -301.42121775242686   -3.78007e+01   2.23441e-02 DIIS
   @DF-RHF iter   5:  -304.12524111377513   -2.70402e+00   1.69310e-02 DIIS
   @DF-RHF iter   6:  -305.61661140490571   -1.49137e+00   3.42062e-03 DIIS
   @DF-RHF iter   7:  -305.67614873213245   -5.95373e-02   1.60670e-03 DIIS
   @DF-RHF iter   8:  -305.68901433228325   -1.28656e-02   4.02199e-04 DIIS
   @DF-RHF iter   9:  -305.69028561465143   -1.27128e-03   1.63033e-04 DIIS
   @DF-RHF iter  10:  -305.69053353597292   -2.47921e-04   7.18813e-05 DIIS
   @DF-RHF iter  11:  -305.69056681810980   -3.32821e-05   1.72584e-05 DIIS
   @DF-RHF iter  12:  -305.69057004417027   -3.22606e-06   4.88376e-06 DIIS
   @DF-RHF iter  13:  -305.69057036664333   -3.22473e-07   1.62295e-06 DIIS
   @DF-RHF iter  14:  -305.69057041611870   -4.94754e-08   6.05894e-07 DIIS

  ==> Post-Iterations <==

    Orbital Energies (a.u.)
    -----------------------

    Doubly Occupied:                                                      

       1A    -20.612244     2A    -20.544743     3A    -11.376645  
       4A    -11.288716     5A    -11.247757     6A    -11.213370  
       7A     -1.472949     8A     -1.371381     9A     -1.106260  
      10A     -1.025899    11A     -0.899071    12A     -0.825284  
      13A     -0.713972    14A     -0.690530    15A     -0.682783  
      16A     -0.640421    17A     -0.606175    18A     -0.584743  
      19A     -0.560901    20A     -0.551001    21A     -0.519553  
      22A     -0.465194    23A     -0.435900    24A     -0.403790  

    Virtual:                                                              

      25A      0.183392    26A      0.223091    27A      0.233938  
      28A      0.269476    29A      0.281625    30A      0.296841  
      31A      0.311076    32A      0.330129    33A      0.349282  
      34A      0.388587    35A      0.413759    36A      0.447683  
      37A      0.513728    38A      0.575836    39A      0.700133  
      40A      0.714996    41A      0.748087    42A      0.769935  
      43A      0.786868    44A      0.812346    45A      0.852075  
      46A      0.896389    47A      0.899004    48A      0.944796  
      49A      0.982652    50A      1.019657    51A      1.085091  
      52A      1.093054    53A      1.108500    54A      1.154569  
      55A      1.161758    56A      1.190947    57A      1.200345  
      58A      1.212184    59A      1.264463    60A      1.278902  
      61A      1.290590    62A      1.306874    63A      1.366021  
      64A      1.375691    65A      1.437911    66A      1.566138  
      67A      1.620439    68A      1.666406    69A      1.719916  
      70A      1.756630    71A      1.832861    72A      1.914482  
      73A      1.958376    74A      1.993553    75A      2.043629  
      76A      2.101523    77A      2.134008    78A      2.155849  
      79A      2.179730    80A      2.243959    81A      2.274454  
      82A      2.353615    83A      2.393919    84A      2.430241  
      85A      2.451643    86A      2.468671    87A      2.567461  
      88A      2.596810    89A      2.654182    90A      2.714589  
      91A      2.735447    92A      2.783044    93A      2.869795  
      94A      2.952684    95A      3.042363    96A      3.055739  
      97A      3.171800    98A      3.281983    99A      3.423350  
     100A      3.567861   101A      4.401986   102A      4.612804  
     103A      4.683077   104A      4.770219   105A      4.811234  
     106A      4.966073  

    Final Occupation by Irrep:
              A 
    DOCC [    24 ]

  Energy converged.

  @DF-RHF Final Energy:  -305.69057041611870

   => Energetics <=

    Nuclear Repulsion Energy =            259.1416417899811222
    One-Electron Energy =                -929.9858221786062131
    Two-Electron Energy =                 365.1536099725062172
    DFT Exchange-Correlation Energy =       0.0000000000000000
    Empirical Dispersion Energy =           0.0000000000000000
    PCM Polarization Energy =               0.0000000000000000
    EFP Energy =                            0.0000000000000000
    Total Energy =                       -305.6905704161188737

    Alert: EFP and PCM quantities not currently incorporated into SCF psivars.

Properties will be evaluated at   0.000000,   0.000000,   0.000000 Bohr
  ==> Properties <==


Properties computed using the SCF density matrix

  Nuclear Dipole Moment: (a.u.)
     X:    -9.4759      Y:    -0.1803      Z:     2.4651

  Electronic Dipole Moment: (a.u.)
     X:     7.7230      Y:     0.2019      Z:    -1.6222

  Dipole Moment: (a.u.)
     X:    -1.7529      Y:     0.0215      Z:     0.8430     Total:     1.9451

  Dipole Moment: (Debye)
     X:    -4.4553      Y:     0.0547      Z:     2.1426     Total:     4.9441


  Saving occupied orbitals to File 180.

*** tstop() called on cx1-1-4-4.cx1.hpc.ic.ac.uk at Tue Jul  5 16:39:11 2016
Module time:
	user time   =       6.05 seconds =       0.10 minutes
	system time =       0.04 seconds =       0.00 minutes
	total time  =          7 seconds =       0.12 minutes
Total time:
	user time   =       6.05 seconds =       0.10 minutes
	system time =       0.04 seconds =       0.00 minutes
	total time  =          7 seconds =       0.12 minutes


Properties will be evaluated at   0.000000,   0.000000,   0.000000 Bohr

Properties computed using the  density matrix

  Nuclear Dipole Moment: (a.u.)
     X:    -9.4759      Y:    -0.1803      Z:     2.4651

  Electronic Dipole Moment: (a.u.)
     X:     7.7230      Y:     0.2019      Z:    -1.6222

  Dipole Moment: (a.u.)
     X:    -1.7529      Y:     0.0215      Z:     0.8430     Total:     1.9451

  Dipole Moment: (Debye)
     X:    -4.4553      Y:     0.0547      Z:     2.1426     Total:     4.9441

  Quadrupole Moment: (Debye Ang)
    XX:   -42.7469     YY:   -35.6823     ZZ:   -37.0465
    XY:    -1.2482     XZ:     1.5135     YZ:    -0.4361

  Traceless Quadrupole Moment: (Debye Ang)
    XX:    -4.2550     YY:     2.8096     ZZ:     1.4454
    XY:    -1.2482     XZ:     1.5135     YZ:    -0.4361

  Mulliken Charges: (a.u.)
   Center  Symbol    Alpha    Beta     Spin     Total
       1     O     4.27349  4.27349  0.00000 -0.54698
       2     C     2.60006  2.60006  0.00000  0.79989
       3     C     3.23429  3.23429  0.00000 -0.46857
       4     O     4.29507  4.29507  0.00000 -0.59013
       5     C     3.28779  3.28779  0.00000 -0.57559
       6     H     0.38669  0.38669  0.00000  0.22662
       7     H     0.39821  0.39821  0.00000  0.20358
       8     H     0.40683  0.40683  0.00000  0.18634
       9     H     0.41156  0.41156  0.00000  0.17688
      10     H     0.39200  0.39200  0.00000  0.21600
      11     C     3.12131  3.12131  0.00000 -0.24262
      12     H     0.38536  0.38536  0.00000  0.22927
      13     H     0.40088  0.40088  0.00000  0.19824
      14     H     0.40647  0.40647  0.00000  0.18707

   Total alpha = 24.00000, Total beta = 24.00000, Total charge = -0.00000


*** PSI4 exiting successfully. Buy a developer a beer!
