    -----------------------------------------------------------------------
          Psi4: An Open-Source Ab Initio Electronic Structure Package
                              Psi4 (no tag) Driver

                          Git: Rev {detached?}  

    J. M. Turney, A. C. Simmonett, R. M. Parrish, E. G. Hohenstein,
    F. A. Evangelista, J. T. Fermann, B. J. Mintz, L. A. Burns, J. J. Wilke,
    M. L. Abrams, N. J. Russ, M. L. Leininger, C. L. Janssen, E. T. Seidl,
    W. D. Allen, H. F. Schaefer, R. A. King, E. F. Valeev, C. D. Sherrill,
    and T. D. Crawford, WIREs Comput. Mol. Sci. 2, 556-565 (2012)
    (doi: 10.1002/wcms.93)

                         Additional Contributions by
    A. E. DePrince, M. Saitow, U. Bozkaya, A. Yu. Sokolov
    -----------------------------------------------------------------------


    Psi4 started on: Tue Jul  5 16:32:57 2016

    Process ID:  15612
    PSI4DATADIR: /export131/home/mjharvey/miniconda3/share
    Memory level set to 256.000 MB

  ==> Input File <==

--------------------------------------------------------------------------
set {
	reference rhf
	basis 6-31G*
}


set_num_threads( 1 )
memory 2 gb

molecule MOL {
0 1

H	 1.049140	 0.753386	 -1.986276
N	 1.449140	 1.245334	 -1.210713
C	 1.267428	 0.496480	 0.024474
H	 0.981274	 2.130274	 -1.156893
C	 -0.016086	 -0.325158	 -0.029487
H	 1.200461	 1.212940	 0.837637
H	 2.109120	 -0.161270	 0.255341
C	 -1.282277	 0.529072	 0.046735
H	 -0.012495	 -0.908639	 -0.945788
H	 -0.015903	 -1.041248	 0.791956
C	 -1.313422	 1.640626	 -1.001683
H	 -1.361066	 0.968841	 1.038895
H	 -2.157618	 -0.105503	 -0.075938
H	 -0.469051	 2.313549	 -0.883644
H	 -2.221045	 2.230972	 -0.922727
H	 -1.270971	 1.231908	 -2.007351

	symmetry c1
}
set optking {
	frozen_dihedral = ("
		6 3 5 9,
		12 8 5 9
	")
}

ee = energy('scf')
oeprop('DIPOLE', 'QUADRUPOLE', 'MULLIKEN_CHARGES')
f=open( 'psi4out.xyz', 'w' )
f.write( "16  " )
f.write( str(ee) + "\n" )
f.write( MOL.save_string_xyz() )
f.close()
--------------------------------------------------------------------------

  Memory set to   2.000 GiB by Python script.

*** tstart() called on cx1-3-16-4.cx1.hpc.ic.ac.uk
*** at Tue Jul  5 16:32:58 2016


         ---------------------------------------------------------
                                   SCF
            by Justin Turney, Rob Parrish, and Andy Simmonett
                              RHF Reference
                        1 Threads,   2000 MiB Core
         ---------------------------------------------------------

  ==> Geometry <==

    Molecular point group: c1
    Full point group: C1

    Geometry (in Angstrom), charge = 0, multiplicity = 1:

       Center              X                  Y                   Z               Mass       
    ------------   -----------------  -----------------  -----------------  -----------------
           H          1.022118057536     0.011505061664    -1.527007039959     1.007825032070
           N          1.422118057536     0.503453061664    -0.751444039959    14.003074004780
           C          1.240406057536    -0.245400938336     0.483742960041    12.000000000000
           H          0.954252057536     1.388393061664    -0.697624039959     1.007825032070
           C         -0.043107942464    -1.067038938336     0.429781960041    12.000000000000
           H          1.173439057536     0.471059061664     1.296905960041     1.007825032070
           H          2.082098057536    -0.903150938336     0.714609960041     1.007825032070
           C         -1.309298942464    -0.212808938336     0.506003960041    12.000000000000
           H         -0.039516942464    -1.650519938336    -0.486519039959     1.007825032070
           H         -0.042924942464    -1.783128938336     1.251224960041     1.007825032070
           C         -1.340443942464     0.898745061664    -0.542414039959    12.000000000000
           H         -1.388087942464     0.226960061664     1.498163960041     1.007825032070
           H         -2.184639942464    -0.847383938336     0.383330960041     1.007825032070
           H         -0.496072942464     1.571668061664    -0.424375039959     1.007825032070
           H         -2.248066942464     1.489091061664    -0.463458039959     1.007825032070
           H         -1.297992942464     0.490027061664    -1.548082039959     1.007825032070

  Running in c1 symmetry.

  Rotational constants: A =      0.22928  B =      0.13686  C =      0.09734 [cm^-1]
  Rotational constants: A =   6873.68112  B =   4103.09561  C =   2918.23867 [MHz]
  Nuclear repulsion =  197.758789360765974

  Charge       = 0
  Multiplicity = 1
  Electrons    = 42
  Nalpha       = 21
  Nbeta        = 21

  ==> Algorithm <==

  SCF Algorithm Type is DF.
  DIIS enabled.
  MOM disabled.
  Fractional occupation disabled.
  Guess Type is CORE.
  Energy threshold   = 1.00e-06
  Density threshold  = 1.00e-06
  Integral threshold = 0.00e+00

  ==> Primary Basis <==

  Basis Set: 6-31G*
    Number of shells: 52
    Number of basis function: 97
    Number of Cartesian functions: 97
    Spherical Harmonics?: false
    Max angular momentum: 2

  ==> Pre-Iterations <==

   -------------------------------------------------------
    Irrep   Nso     Nmo     Nalpha   Nbeta   Ndocc  Nsocc
   -------------------------------------------------------
     A         97      97       0       0       0       0
   -------------------------------------------------------
    Total      97      97      21      21      21       0
   -------------------------------------------------------

 OEINTS: Overlap, kinetic, potential, dipole, and quadrupole integrals
         stored in file 35.

  ==> Integral Setup <==

  ==> DFJK: Density-Fitted J/K Matrices <==

    J tasked:                  Yes
    K tasked:                  Yes
    wK tasked:                  No
    OpenMP threads:              1
    Integrals threads:           1
    Memory (MB):              1430
    Algorithm:                Core
    Integral Cache:           NONE
    Schwarz Cutoff:          1E-12
    Fitting Condition:       1E-12

   => Auxiliary Basis Set <=

  Basis Set: 
    Number of shells: 219
    Number of basis function: 680
    Number of Cartesian functions: 680
    Spherical Harmonics?: false
    Max angular momentum: 3

  Minimum eigenvalue in the overlap matrix is 4.9699325423E-03.
  Using Symmetric Orthogonalization.
  SCF Guess: Core (One-Electron) Hamiltonian.

  ==> Iterations <==

                           Total Energy        Delta E     RMS |[F,P]|

   @DF-RHF iter   1:  -164.12583271064480   -1.64126e+02   7.76580e-02 
   @DF-RHF iter   2:  -126.98012575845493    3.71457e+01   6.84669e-02 DIIS
   @DF-RHF iter   3:  -175.60090174912293   -4.86208e+01   5.10477e-02 DIIS
   @DF-RHF iter   4:  -194.64920303212219   -1.90483e+01   4.75054e-02 DIIS
   @DF-RHF iter   5:  -211.74484832620769   -1.70956e+01   9.95429e-03 DIIS
   @DF-RHF iter   6:  -212.22959945028722   -4.84751e-01   3.22011e-03 DIIS
   @DF-RHF iter   7:  -212.28230021286780   -5.27008e-02   1.25738e-03 DIIS
   @DF-RHF iter   8:  -212.29111086038424   -8.81065e-03   3.43770e-04 DIIS
   @DF-RHF iter   9:  -212.29193503414487   -8.24174e-04   8.18413e-05 DIIS
   @DF-RHF iter  10:  -212.29199168451785   -5.66504e-05   2.88211e-05 DIIS
   @DF-RHF iter  11:  -212.29199865011682   -6.96560e-06   8.08582e-06 DIIS
   @DF-RHF iter  12:  -212.29199911012219   -4.60005e-07   2.48467e-06 DIIS
   @DF-RHF iter  13:  -212.29199915685476   -4.67326e-08   5.55667e-07 DIIS

  ==> Post-Iterations <==

    Orbital Energies (a.u.)
    -----------------------

    Doubly Occupied:                                                      

       1A    -15.525126     2A    -11.241055     3A    -11.221203  
       4A    -11.214603     5A    -11.214541     6A     -1.183253  
       7A     -1.058287     8A     -0.970181     9A     -0.857508  
      10A     -0.789640    11A     -0.684091    12A     -0.625192  
      13A     -0.621357    14A     -0.578003    15A     -0.553609  
      16A     -0.538661    17A     -0.502134    18A     -0.499385  
      19A     -0.472335    20A     -0.462728    21A     -0.365214  

    Virtual:                                                              

      22A      0.219670    23A      0.252040    24A      0.256304  
      25A      0.290408    26A      0.303317    27A      0.312924  
      28A      0.330002    29A      0.339471    30A      0.340323  
      31A      0.352971    32A      0.402735    33A      0.406900  
      34A      0.456397    35A      0.474572    36A      0.495812  
      37A      0.710908    38A      0.730675    39A      0.736240  
      40A      0.764695    41A      0.794845    42A      0.832132  
      43A      0.874603    44A      0.916842    45A      0.943339  
      46A      0.983353    47A      1.008424    48A      1.018018  
      49A      1.084001    50A      1.125491    51A      1.130919  
      52A      1.152163    53A      1.159389    54A      1.177983  
      55A      1.208373    56A      1.218124    57A      1.227575  
      58A      1.242045    59A      1.250623    60A      1.257362  
      61A      1.291035    62A      1.310202    63A      1.375358  
      64A      1.569146    65A      1.630369    66A      1.671988  
      67A      1.747799    68A      1.827131    69A      1.896401  
      70A      1.975814    71A      1.997265    72A      2.122979  
      73A      2.203023    74A      2.235919    75A      2.269849  
      76A      2.305718    77A      2.350519    78A      2.387842  
      79A      2.435900    80A      2.459042    81A      2.552517  
      82A      2.598290    83A      2.672251    84A      2.679631  
      85A      2.727544    86A      2.764424    87A      2.784443  
      88A      2.864086    89A      2.963275    90A      3.008697  
      91A      3.050769    92A      3.116741    93A      4.280357  
      94A      4.600691    95A      4.707349    96A      4.887567  
      97A      4.968357  

    Final Occupation by Irrep:
              A 
    DOCC [    21 ]

  Energy converged.

  @DF-RHF Final Energy:  -212.29199915685476

   => Energetics <=

    Nuclear Repulsion Energy =            197.7587893607659737
    One-Electron Energy =                -677.7451563502481804
    Two-Electron Energy =                 267.6943678326276768
    DFT Exchange-Correlation Energy =       0.0000000000000000
    Empirical Dispersion Energy =           0.0000000000000000
    PCM Polarization Energy =               0.0000000000000000
    EFP Energy =                            0.0000000000000000
    Total Energy =                       -212.2919991568545584

    Alert: EFP and PCM quantities not currently incorporated into SCF psivars.

Properties will be evaluated at   0.000000,   0.000000,   0.000000 Bohr
  ==> Properties <==


Properties computed using the SCF density matrix

  Nuclear Dipole Moment: (a.u.)
     X:    -2.3154      Y:     0.4340      Z:    -0.0005

  Electronic Dipole Moment: (a.u.)
     X:     1.6781      Y:    -0.5254      Z:     0.1249

  Dipole Moment: (a.u.)
     X:    -0.6373      Y:    -0.0914      Z:     0.1244     Total:     0.6557

  Dipole Moment: (Debye)
     X:    -1.6198      Y:    -0.2323      Z:     0.3162     Total:     1.6667


  Saving occupied orbitals to File 180.

*** tstop() called on cx1-3-16-4.cx1.hpc.ic.ac.uk at Tue Jul  5 16:33:05 2016
Module time:
	user time   =       7.50 seconds =       0.13 minutes
	system time =       0.07 seconds =       0.00 minutes
	total time  =          7 seconds =       0.12 minutes
Total time:
	user time   =       7.50 seconds =       0.13 minutes
	system time =       0.07 seconds =       0.00 minutes
	total time  =          7 seconds =       0.12 minutes


Properties will be evaluated at   0.000000,   0.000000,   0.000000 Bohr

Properties computed using the  density matrix

  Nuclear Dipole Moment: (a.u.)
     X:    -2.3154      Y:     0.4340      Z:    -0.0005

  Electronic Dipole Moment: (a.u.)
     X:     1.6781      Y:    -0.5254      Z:     0.1249

  Dipole Moment: (a.u.)
     X:    -0.6373      Y:    -0.0914      Z:     0.1244     Total:     0.6557

  Dipole Moment: (Debye)
     X:    -1.6198      Y:    -0.2323      Z:     0.3162     Total:     1.6667

  Quadrupole Moment: (Debye Ang)
    XX:   -39.9248     YY:   -33.3971     ZZ:   -33.2811
    XY:    -1.4445     XZ:     2.1229     YZ:     0.7441

  Traceless Quadrupole Moment: (Debye Ang)
    XX:    -4.3905     YY:     2.1373     ZZ:     2.2532
    XY:    -1.4445     XZ:     2.1229     YZ:     0.7441

  Mulliken Charges: (a.u.)
   Center  Symbol    Alpha    Beta     Spin     Total
       1     H     0.33407  0.33407  0.00000  0.33186
       2     N     3.92158  3.92158  0.00000 -0.84317
       3     C     3.06362  3.06362  0.00000 -0.12724
       4     H     0.32331  0.32331  0.00000  0.35338
       5     C     3.16471  3.16471  0.00000 -0.32941
       6     H     0.42252  0.42252  0.00000  0.15496
       7     H     0.41578  0.41578  0.00000  0.16845
       8     C     3.15125  3.15125  0.00000 -0.30249
       9     H     0.42527  0.42527  0.00000  0.14947
      10     H     0.42167  0.42167  0.00000  0.15666
      11     C     3.23649  3.23649  0.00000 -0.47297
      12     H     0.42135  0.42135  0.00000  0.15730
      13     H     0.41847  0.41847  0.00000  0.16307
      14     H     0.43849  0.43849  0.00000  0.12303
      15     H     0.41807  0.41807  0.00000  0.16385
      16     H     0.42337  0.42337  0.00000  0.15326

   Total alpha = 21.00000, Total beta = 21.00000, Total charge = -0.00000


*** PSI4 exiting successfully. Buy a developer a beer!
