    -----------------------------------------------------------------------
          Psi4: An Open-Source Ab Initio Electronic Structure Package
                              Psi4 (no tag) Driver

                          Git: Rev {detached?}  

    J. M. Turney, A. C. Simmonett, R. M. Parrish, E. G. Hohenstein,
    F. A. Evangelista, J. T. Fermann, B. J. Mintz, L. A. Burns, J. J. Wilke,
    M. L. Abrams, N. J. Russ, M. L. Leininger, C. L. Janssen, E. T. Seidl,
    W. D. Allen, H. F. Schaefer, R. A. King, E. F. Valeev, C. D. Sherrill,
    and T. D. Crawford, WIREs Comput. Mol. Sci. 2, 556-565 (2012)
    (doi: 10.1002/wcms.93)

                         Additional Contributions by
    A. E. DePrince, M. Saitow, U. Bozkaya, A. Yu. Sokolov
    -----------------------------------------------------------------------


    Psi4 started on: Tue Jul  5 16:22:51 2016

    Process ID:   4731
    PSI4DATADIR: /export131/home/mjharvey/miniconda3/share
    Memory level set to 256.000 MB

  ==> Input File <==

--------------------------------------------------------------------------
set {
	reference rhf
	basis 6-31G*
}


set_num_threads( 1 )
memory 2 gb

molecule MOL {
0 1

H	 -1.070890	 -1.366565	 0.180696
O	 -1.422729	 -0.573567	 -0.196946
C	 -0.731407	 0.539437	 0.309156
C	 0.680193	 0.672443	 -0.251532
H	 -1.319765	 1.404033	 0.030086
H	 -0.700012	 0.506517	 1.397677
C	 0.718456	 1.012342	 -1.741737
H	 1.205369	 1.438339	 0.311709
H	 1.204697	 -0.265077	 -0.079805
H	 0.266271	 1.979581	 -1.939659
H	 1.739635	 1.056084	 -2.105393
H	 0.191239	 0.265962	 -2.330992

	symmetry c1
}
set optking {
	frozen_dihedral = ("
		1 2 3 4
	")
}

ee = energy('scf')
oeprop('DIPOLE', 'QUADRUPOLE', 'MULLIKEN_CHARGES')
f=open( 'psi4out.xyz', 'w' )
f.write( "12  " )
f.write( str(ee) + "\n" )
f.write( MOL.save_string_xyz() )
f.close()
--------------------------------------------------------------------------

  Memory set to   2.000 GiB by Python script.

*** tstart() called on cx1-1-3-4.cx1.hpc.ic.ac.uk
*** at Tue Jul  5 16:22:52 2016


         ---------------------------------------------------------
                                   SCF
            by Justin Turney, Rob Parrish, and Andy Simmonett
                              RHF Reference
                        1 Threads,   2000 MiB Core
         ---------------------------------------------------------

  ==> Geometry <==

    Molecular point group: c1
    Full point group: C1

    Geometry (in Angstrom), charge = 0, multiplicity = 1:

       Center              X                  Y                   Z               Mass       
    ------------   -----------------  -----------------  -----------------  -----------------
           H         -0.850749124980    -1.742448945631     0.645761252226     1.007825032070
           O         -1.202588124980    -0.949450945631     0.268119252226    15.994914619560
           C         -0.511266124980     0.163553054369     0.774221252226    12.000000000000
           C          0.900333875020     0.296559054369     0.213533252226    12.000000000000
           H         -1.099624124980     1.028149054369     0.495151252226     1.007825032070
           H         -0.479871124980     0.130633054369     1.862742252226     1.007825032070
           C          0.938596875020     0.636458054369    -1.276671747774    12.000000000000
           H          1.425509875020     1.062455054369     0.776774252226     1.007825032070
           H          1.424837875020    -0.640960945631     0.385260252226     1.007825032070
           H          0.486411875020     1.603697054369    -1.474593747774     1.007825032070
           H          1.959775875020     0.680200054369    -1.640327747774     1.007825032070
           H          0.411379875020    -0.109921945631    -1.865926747774     1.007825032070

  Running in c1 symmetry.

  Rotational constants: A =      0.50095  B =      0.16203  C =      0.14171 [cm^-1]
  Rotational constants: A =  15017.95716  B =   4857.50261  C =   4248.39983 [MHz]
  Nuclear repulsion =  132.681055256214108

  Charge       = 0
  Multiplicity = 1
  Electrons    = 34
  Nalpha       = 17
  Nbeta        = 17

  ==> Algorithm <==

  SCF Algorithm Type is DF.
  DIIS enabled.
  MOM disabled.
  Fractional occupation disabled.
  Guess Type is CORE.
  Energy threshold   = 1.00e-06
  Density threshold  = 1.00e-06
  Integral threshold = 0.00e+00

  ==> Primary Basis <==

  Basis Set: 6-31G*
    Number of shells: 40
    Number of basis function: 76
    Number of Cartesian functions: 76
    Spherical Harmonics?: false
    Max angular momentum: 2

  ==> Pre-Iterations <==

   -------------------------------------------------------
    Irrep   Nso     Nmo     Nalpha   Nbeta   Ndocc  Nsocc
   -------------------------------------------------------
     A         76      76       0       0       0       0
   -------------------------------------------------------
    Total      76      76      17      17      17       0
   -------------------------------------------------------

 OEINTS: Overlap, kinetic, potential, dipole, and quadrupole integrals
         stored in file 35.

  ==> Integral Setup <==

  ==> DFJK: Density-Fitted J/K Matrices <==

    J tasked:                  Yes
    K tasked:                  Yes
    wK tasked:                  No
    OpenMP threads:              1
    Integrals threads:           1
    Memory (MB):              1430
    Algorithm:                Core
    Integral Cache:           NONE
    Schwarz Cutoff:          1E-12
    Fitting Condition:       1E-12

   => Auxiliary Basis Set <=

  Basis Set: 
    Number of shells: 168
    Number of basis function: 524
    Number of Cartesian functions: 524
    Spherical Harmonics?: false
    Max angular momentum: 3

  Minimum eigenvalue in the overlap matrix is 5.2830200840E-03.
  Using Symmetric Orthogonalization.
  SCF Guess: Core (One-Electron) Hamiltonian.

  ==> Iterations <==

                           Total Energy        Delta E     RMS |[F,P]|

   @DF-RHF iter   1:  -155.94574270657199   -1.55946e+02   8.70979e-02 
   @DF-RHF iter   2:  -119.17487773097054    3.67709e+01   8.21169e-02 DIIS
   @DF-RHF iter   3:  -166.67462888503928   -4.74998e+01   6.02819e-02 DIIS
   @DF-RHF iter   4:  -189.94819898115622   -2.32736e+01   3.29459e-02 DIIS
   @DF-RHF iter   5:  -193.00171681061948   -3.05352e+00   6.20008e-03 DIIS
   @DF-RHF iter   6:  -193.09611070765851   -9.43939e-02   2.32319e-03 DIIS
   @DF-RHF iter   7:  -193.10864419445875   -1.25335e-02   5.94395e-04 DIIS
   @DF-RHF iter   8:  -193.10986425737974   -1.22006e-03   1.67040e-04 DIIS
   @DF-RHF iter   9:  -193.10997703981855   -1.12782e-04   5.86577e-05 DIIS
   @DF-RHF iter  10:  -193.10999315533115   -1.61155e-05   1.39254e-05 DIIS
   @DF-RHF iter  11:  -193.10999419728859   -1.04196e-06   3.33084e-06 DIIS
   @DF-RHF iter  12:  -193.10999426099750   -6.37089e-08   1.01878e-06 DIIS
   @DF-RHF iter  13:  -193.10999426684253   -5.84504e-09   2.32312e-07 DIIS

  ==> Post-Iterations <==

    Orbital Energies (a.u.)
    -----------------------

    Doubly Occupied:                                                      

       1A    -20.553665     2A    -11.268117     3A    -11.218920  
       4A    -11.207977     5A     -1.360483     6A     -1.048422  
       7A     -0.920334     8A     -0.813735     9A     -0.683639  
      10A     -0.637340    11A     -0.619449    12A     -0.566459  
      13A     -0.525755    14A     -0.522900    15A     -0.485591  
      16A     -0.466185    17A     -0.429139  

    Virtual:                                                              

      18A      0.221279    19A      0.262177    20A      0.290388  
      21A      0.298625    22A      0.314838    23A      0.322003  
      24A      0.343781    25A      0.348134    26A      0.400135  
      27A      0.430097    28A      0.453748    29A      0.716471  
      30A      0.725691    31A      0.757508    32A      0.784292  
      33A      0.835625    34A      0.910097    35A      0.950440  
      36A      0.970979    37A      1.034668    38A      1.087525  
      39A      1.142445    40A      1.155320    41A      1.164818  
      42A      1.191055    43A      1.206973    44A      1.213334  
      45A      1.238762    46A      1.256794    47A      1.293530  
      48A      1.337172    49A      1.436308    50A      1.560366  
      51A      1.683470    52A      1.760652    53A      1.828855  
      54A      1.858472    55A      1.988007    56A      2.036292  
      57A      2.101452    58A      2.187451    59A      2.271168  
      60A      2.304006    61A      2.383983    62A      2.467565  
      63A      2.532872    64A      2.572762    65A      2.628932  
      66A      2.699544    67A      2.768728    68A      2.822441  
      69A      2.863140    70A      2.991682    71A      3.050067  
      72A      3.208775    73A      4.174726    74A      4.584604  
      75A      4.752234    76A      4.910001  

    Final Occupation by Irrep:
              A 
    DOCC [    17 ]

  Energy converged.

  @DF-RHF Final Energy:  -193.10999426684253

   => Energetics <=

    Nuclear Repulsion Energy =            132.6810552562141083
    One-Electron Energy =                -524.9258125305195790
    Two-Electron Energy =                 199.1347630074629365
    DFT Exchange-Correlation Energy =       0.0000000000000000
    Empirical Dispersion Energy =           0.0000000000000000
    PCM Polarization Energy =               0.0000000000000000
    EFP Energy =                            0.0000000000000000
    Total Energy =                       -193.1099942668425342

    Alert: EFP and PCM quantities not currently incorporated into SCF psivars.

Properties will be evaluated at   0.000000,   0.000000,   0.000000 Bohr
  ==> Properties <==


Properties computed using the SCF density matrix

  Nuclear Dipole Moment: (a.u.)
     X:     3.0669      Y:     1.8814      Z:    -0.7629

  Electronic Dipole Moment: (a.u.)
     X:    -2.5209      Y:    -1.9341      Z:     1.2076

  Dipole Moment: (a.u.)
     X:     0.5461      Y:    -0.0527      Z:     0.4447     Total:     0.7062

  Dipole Moment: (Debye)
     X:     1.3879      Y:    -0.1339      Z:     1.1303     Total:     1.7949


  Saving occupied orbitals to File 180.

*** tstop() called on cx1-1-3-4.cx1.hpc.ic.ac.uk at Tue Jul  5 16:22:55 2016
Module time:
	user time   =       2.91 seconds =       0.05 minutes
	system time =       0.03 seconds =       0.00 minutes
	total time  =          3 seconds =       0.05 minutes
Total time:
	user time   =       2.91 seconds =       0.05 minutes
	system time =       0.03 seconds =       0.00 minutes
	total time  =          3 seconds =       0.05 minutes


Properties will be evaluated at   0.000000,   0.000000,   0.000000 Bohr

Properties computed using the  density matrix

  Nuclear Dipole Moment: (a.u.)
     X:     3.0669      Y:     1.8814      Z:    -0.7629

  Electronic Dipole Moment: (a.u.)
     X:    -2.5209      Y:    -1.9341      Z:     1.2076

  Dipole Moment: (a.u.)
     X:     0.5461      Y:    -0.0527      Z:     0.4447     Total:     0.7062

  Dipole Moment: (Debye)
     X:     1.3879      Y:    -0.1339      Z:     1.1303     Total:     1.7949

  Quadrupole Moment: (Debye Ang)
    XX:   -29.9396     YY:   -23.5233     ZZ:   -25.9675
    XY:    -1.2794     XZ:    -0.4494     YZ:    -1.3657

  Traceless Quadrupole Moment: (Debye Ang)
    XX:    -3.4628     YY:     2.9535     ZZ:     0.5093
    XY:    -1.2794     XZ:    -0.4494     YZ:    -1.3657

  Mulliken Charges: (a.u.)
   Center  Symbol    Alpha    Beta     Spin     Total
       1     H     0.28268  0.28268  0.00000  0.43464
       2     O     4.36869  4.36869  0.00000 -0.73737
       3     C     2.99770  2.99770  0.00000  0.00461
       4     C     3.16197  3.16197  0.00000 -0.32394
       5     H     0.41676  0.41676  0.00000  0.16649
       6     H     0.42901  0.42901  0.00000  0.14198
       7     C     3.24191  3.24191  0.00000 -0.48382
       8     H     0.42252  0.42252  0.00000  0.15497
       9     H     0.42682  0.42682  0.00000  0.14636
      10     H     0.42159  0.42159  0.00000  0.15681
      11     H     0.42004  0.42004  0.00000  0.15991
      12     H     0.41031  0.41031  0.00000  0.17938

   Total alpha = 17.00000, Total beta = 17.00000, Total charge = -0.00000


*** PSI4 exiting successfully. Buy a developer a beer!
