    -----------------------------------------------------------------------
          Psi4: An Open-Source Ab Initio Electronic Structure Package
                              Psi4 (no tag) Driver

                          Git: Rev {detached?}  

    J. M. Turney, A. C. Simmonett, R. M. Parrish, E. G. Hohenstein,
    F. A. Evangelista, J. T. Fermann, B. J. Mintz, L. A. Burns, J. J. Wilke,
    M. L. Abrams, N. J. Russ, M. L. Leininger, C. L. Janssen, E. T. Seidl,
    W. D. Allen, H. F. Schaefer, R. A. King, E. F. Valeev, C. D. Sherrill,
    and T. D. Crawford, WIREs Comput. Mol. Sci. 2, 556-565 (2012)
    (doi: 10.1002/wcms.93)

                         Additional Contributions by
    A. E. DePrince, M. Saitow, U. Bozkaya, A. Yu. Sokolov
    -----------------------------------------------------------------------


    Psi4 started on: Tue Jul  5 16:46:22 2016

    Process ID:  10984
    PSI4DATADIR: /export131/home/mjharvey/miniconda3/share
    Memory level set to 256.000 MB

  ==> Input File <==

--------------------------------------------------------------------------
set {
	reference rhf
	basis 6-31G*
}


set_num_threads( 1 )
memory 2 gb

molecule MOL {
0 1

H	 -3.161837	 0.500524	 -0.000234
C	 -2.367097	 -0.232926	 -0.000000
O	 -1.158440	 0.455814	 -0.000122
H	 -2.468853	 -0.861886	 -0.882833
H	 -2.468942	 -0.861421	 0.883154
C	 -1.058687	 1.440634	 0.983775
C	 -1.361232	 2.791064	 0.358101
H	 -0.057128	 1.439408	 1.415954
H	 -1.758587	 1.233604	 1.794444
C	 -0.227006	 3.287530	 -0.537406
H	 -2.280715	 2.707563	 -0.213072
H	 -1.550583	 3.504663	 1.154105
H	 -0.037532	 2.598556	 -1.355842
H	 -0.469239	 4.252449	 -0.969958
H	 0.698118	 3.400673	 0.020939

	symmetry c1
}
set optking {
	frozen_dihedral = ("
		6 3 2 4,
		11 7 6 8
	")
}

ee = energy('scf')
oeprop('DIPOLE', 'QUADRUPOLE', 'MULLIKEN_CHARGES')
f=open( 'psi4out.xyz', 'w' )
f.write( "15  " )
f.write( str(ee) + "\n" )
f.write( MOL.save_string_xyz() )
f.close()
--------------------------------------------------------------------------

  Memory set to   2.000 GiB by Python script.

*** tstart() called on cx1-3-16-3.cx1.hpc.ic.ac.uk
*** at Tue Jul  5 16:46:22 2016


         ---------------------------------------------------------
                                   SCF
            by Justin Turney, Rob Parrish, and Andy Simmonett
                              RHF Reference
                        1 Threads,   2000 MiB Core
         ---------------------------------------------------------

  ==> Geometry <==

    Molecular point group: c1
    Full point group: C1

    Geometry (in Angstrom), charge = 0, multiplicity = 1:

       Center              X                  Y                   Z               Mass       
    ------------   -----------------  -----------------  -----------------  -----------------
           H         -1.914978146218    -1.022033349461    -0.155658650478     1.007825032070
           C         -1.120238146218    -1.755483349461    -0.155424650478    12.000000000000
           O          0.088418853782    -1.066743349461    -0.155546650478    15.994914619560
           H         -1.221994146218    -2.384443349461    -1.038257650478     1.007825032070
           H         -1.222083146218    -2.383978349461     0.727729349522     1.007825032070
           C          0.188171853782    -0.081923349461     0.828350349522    12.000000000000
           C         -0.114373146218     1.268506650539     0.202676349522    12.000000000000
           H          1.189730853782    -0.083149349461     1.260529349522     1.007825032070
           H         -0.511728146218    -0.288953349461     1.639019349522     1.007825032070
           C          1.019852853782     1.764972650539    -0.692830650478    12.000000000000
           H         -1.033856146218     1.185005650539    -0.368496650478     1.007825032070
           H         -0.303724146218     1.982105650539     0.998680349522     1.007825032070
           H          1.209326853782     1.075998650539    -1.511266650478     1.007825032070
           H          0.777619853782     2.729891650539    -1.125382650478     1.007825032070
           H          1.944976853782     1.878115650539    -0.134485650478     1.007825032070

  Running in c1 symmetry.

  Rotational constants: A =      0.38231  B =      0.09058  C =      0.08724 [cm^-1]
  Rotational constants: A =  11461.23014  B =   2715.37479  C =   2615.24968 [MHz]
  Nuclear repulsion =  194.374419205559491

  Charge       = 0
  Multiplicity = 1
  Electrons    = 42
  Nalpha       = 21
  Nbeta        = 21

  ==> Algorithm <==

  SCF Algorithm Type is DF.
  DIIS enabled.
  MOM disabled.
  Fractional occupation disabled.
  Guess Type is CORE.
  Energy threshold   = 1.00e-06
  Density threshold  = 1.00e-06
  Integral threshold = 0.00e+00

  ==> Primary Basis <==

  Basis Set: 6-31G*
    Number of shells: 50
    Number of basis function: 95
    Number of Cartesian functions: 95
    Spherical Harmonics?: false
    Max angular momentum: 2

  ==> Pre-Iterations <==

   -------------------------------------------------------
    Irrep   Nso     Nmo     Nalpha   Nbeta   Ndocc  Nsocc
   -------------------------------------------------------
     A         95      95       0       0       0       0
   -------------------------------------------------------
    Total      95      95      21      21      21       0
   -------------------------------------------------------

 OEINTS: Overlap, kinetic, potential, dipole, and quadrupole integrals
         stored in file 35.

  ==> Integral Setup <==

  ==> DFJK: Density-Fitted J/K Matrices <==

    J tasked:                  Yes
    K tasked:                  Yes
    wK tasked:                  No
    OpenMP threads:              1
    Integrals threads:           1
    Memory (MB):              1430
    Algorithm:                Core
    Integral Cache:           NONE
    Schwarz Cutoff:          1E-12
    Fitting Condition:       1E-12

   => Auxiliary Basis Set <=

  Basis Set: 
    Number of shells: 210
    Number of basis function: 655
    Number of Cartesian functions: 655
    Spherical Harmonics?: false
    Max angular momentum: 3

  Minimum eigenvalue in the overlap matrix is 5.1013157181E-03.
  Using Symmetric Orthogonalization.
  SCF Guess: Core (One-Electron) Hamiltonian.

  ==> Iterations <==

                           Total Energy        Delta E     RMS |[F,P]|

   @DF-RHF iter   1:  -182.52189984092217   -1.82522e+02   8.08749e-02 
   @DF-RHF iter   2:  -159.52177674294239    2.30001e+01   6.49087e-02 DIIS
   @DF-RHF iter   3:  -202.10680444202643   -4.25850e+01   5.52491e-02 DIIS
   @DF-RHF iter   4:  -229.69409881889021   -2.75873e+01   2.30723e-02 DIIS
   @DF-RHF iter   5:  -232.03517044385472   -2.34107e+00   4.30991e-03 DIIS
   @DF-RHF iter   6:  -232.11618874821431   -8.10183e-02   1.96397e-03 DIIS
   @DF-RHF iter   7:  -232.13208432610264   -1.58956e-02   3.93043e-04 DIIS
   @DF-RHF iter   8:  -232.13305701535933   -9.72689e-04   1.24331e-04 DIIS
   @DF-RHF iter   9:  -232.13313445805841   -7.74427e-05   3.42221e-05 DIIS
   @DF-RHF iter  10:  -232.13314407711096   -9.61905e-06   8.03350e-06 DIIS
   @DF-RHF iter  11:  -232.13314472148534   -6.44374e-07   2.54507e-06 DIIS
   @DF-RHF iter  12:  -232.13314476633252   -4.48472e-08   9.95267e-07 DIIS

  ==> Post-Iterations <==

    Orbital Energies (a.u.)
    -----------------------

    Doubly Occupied:                                                      

       1A    -20.550191     2A    -11.266587     3A    -11.265914  
       4A    -11.213644     5A    -11.205107     6A     -1.378409  
       7A     -1.052702     8A     -0.952030     9A     -0.889786  
      10A     -0.798353    11A     -0.671701    12A     -0.661847  
      13A     -0.631185    14A     -0.586819    15A     -0.573500  
      16A     -0.541206    17A     -0.505777    18A     -0.493742  
      19A     -0.480580    20A     -0.456623    21A     -0.403771  

    Virtual:                                                              

      22A      0.234334    23A      0.267466    24A      0.287327  
      25A      0.293758    26A      0.300929    27A      0.318596  
      28A      0.324514    29A      0.338514    30A      0.348645  
      31A      0.360248    32A      0.375025    33A      0.404924  
      34A      0.453354    35A      0.466505    36A      0.714146  
      37A      0.731399    38A      0.754521    39A      0.767820  
      40A      0.790164    41A      0.813407    42A      0.824696  
      43A      0.913972    44A      0.921757    45A      0.972553  
      46A      0.989463    47A      1.092843    48A      1.103650  
      49A      1.128969    50A      1.136333    51A      1.165693  
      52A      1.172704    53A      1.188688    54A      1.197307  
      55A      1.216320    56A      1.240568    57A      1.249758  
      58A      1.264210    59A      1.309903    60A      1.410787  
      61A      1.453016    62A      1.529886    63A      1.652507  
      64A      1.701300    65A      1.753412    66A      1.777919  
      67A      1.869856    68A      1.924389    69A      1.998389  
      70A      2.129950    71A      2.174244    72A      2.258890  
      73A      2.274401    74A      2.301741    75A      2.388272  
      76A      2.460155    77A      2.470169    78A      2.496756  
      79A      2.519280    80A      2.551866    81A      2.640895  
      82A      2.701938    83A      2.711515    84A      2.801624  
      85A      2.837934    86A      2.923608    87A      2.998821  
      88A      3.035250    89A      3.153955    90A      3.315358  
      91A      4.384546    92A      4.593058    93A      4.673413  
      94A      4.779934    95A      4.934271  

    Final Occupation by Irrep:
              A 
    DOCC [    21 ]

  Energy converged.

  @DF-RHF Final Energy:  -232.13314476633252

   => Energetics <=

    Nuclear Repulsion Energy =            194.3744192055594908
    One-Electron Energy =                -699.8564043149186773
    Two-Electron Energy =                 273.3488403430274616
    DFT Exchange-Correlation Energy =       0.0000000000000000
    Empirical Dispersion Energy =           0.0000000000000000
    PCM Polarization Energy =               0.0000000000000000
    EFP Energy =                            0.0000000000000000
    Total Energy =                       -232.1331447663317249

    Alert: EFP and PCM quantities not currently incorporated into SCF psivars.

Properties will be evaluated at   0.000000,   0.000000,   0.000000 Bohr
  ==> Properties <==


Properties computed using the SCF density matrix

  Nuclear Dipole Moment: (a.u.)
     X:    -1.0183      Y:     2.5153      Z:     0.2734

  Electronic Dipole Moment: (a.u.)
     X:     0.5631      Y:    -2.4200      Z:     0.0635

  Dipole Moment: (a.u.)
     X:    -0.4552      Y:     0.0953      Z:     0.3369     Total:     0.5743

  Dipole Moment: (Debye)
     X:    -1.1570      Y:     0.2422      Z:     0.8564     Total:     1.4597


  Saving occupied orbitals to File 180.

*** tstop() called on cx1-3-16-3.cx1.hpc.ic.ac.uk at Tue Jul  5 16:46:28 2016
Module time:
	user time   =       5.23 seconds =       0.09 minutes
	system time =       0.03 seconds =       0.00 minutes
	total time  =          6 seconds =       0.10 minutes
Total time:
	user time   =       5.23 seconds =       0.09 minutes
	system time =       0.03 seconds =       0.00 minutes
	total time  =          6 seconds =       0.10 minutes


Properties will be evaluated at   0.000000,   0.000000,   0.000000 Bohr

Properties computed using the  density matrix

  Nuclear Dipole Moment: (a.u.)
     X:    -1.0183      Y:     2.5153      Z:     0.2734

  Electronic Dipole Moment: (a.u.)
     X:     0.5631      Y:    -2.4200      Z:     0.0635

  Dipole Moment: (a.u.)
     X:    -0.4552      Y:     0.0953      Z:     0.3369     Total:     0.5743

  Dipole Moment: (Debye)
     X:    -1.1570      Y:     0.2422      Z:     0.8564     Total:     1.4597

  Quadrupole Moment: (Debye Ang)
    XX:   -32.4464     YY:   -32.8520     ZZ:   -32.6959
    XY:     2.3040     XZ:     0.8784     YZ:     0.0608

  Traceless Quadrupole Moment: (Debye Ang)
    XX:     0.2184     YY:    -0.1873     ZZ:    -0.0311
    XY:     2.3040     XZ:     0.8784     YZ:     0.0608

  Mulliken Charges: (a.u.)
   Center  Symbol    Alpha    Beta     Spin     Total
       1     H     0.43151  0.43151  0.00000  0.13697
       2     C     3.07975  3.07975  0.00000 -0.15951
       3     O     4.30370  4.30370  0.00000 -0.60741
       4     H     0.41285  0.41285  0.00000  0.17430
       5     H     0.42817  0.42817  0.00000  0.14366
       6     C     3.00030  3.00030  0.00000 -0.00061
       7     C     3.15590  3.15590  0.00000 -0.31180
       8     H     0.41817  0.41817  0.00000  0.16365
       9     H     0.42888  0.42888  0.00000  0.14225
      10     C     3.24262  3.24262  0.00000 -0.48525
      11     H     0.41924  0.41924  0.00000  0.16151
      12     H     0.42556  0.42556  0.00000  0.14888
      13     H     0.40967  0.40967  0.00000  0.18066
      14     H     0.42047  0.42047  0.00000  0.15906
      15     H     0.42319  0.42319  0.00000  0.15363

   Total alpha = 21.00000, Total beta = 21.00000, Total charge =  0.00000


*** PSI4 exiting successfully. Buy a developer a beer!
