    -----------------------------------------------------------------------
          Psi4: An Open-Source Ab Initio Electronic Structure Package
                              Psi4 (no tag) Driver

                          Git: Rev {detached?}  

    J. M. Turney, A. C. Simmonett, R. M. Parrish, E. G. Hohenstein,
    F. A. Evangelista, J. T. Fermann, B. J. Mintz, L. A. Burns, J. J. Wilke,
    M. L. Abrams, N. J. Russ, M. L. Leininger, C. L. Janssen, E. T. Seidl,
    W. D. Allen, H. F. Schaefer, R. A. King, E. F. Valeev, C. D. Sherrill,
    and T. D. Crawford, WIREs Comput. Mol. Sci. 2, 556-565 (2012)
    (doi: 10.1002/wcms.93)

                         Additional Contributions by
    A. E. DePrince, M. Saitow, U. Bozkaya, A. Yu. Sokolov
    -----------------------------------------------------------------------


    Psi4 started on: Tue Jul  5 16:23:30 2016

    Process ID:  25919
    PSI4DATADIR: /export131/home/mjharvey/miniconda3/share
    Memory level set to 256.000 MB

  ==> Input File <==

--------------------------------------------------------------------------
set {
	reference rhf
	basis 6-31G*
}


set_num_threads( 1 )
memory 2 gb

molecule MOL {
0 1

H	 1.475160	 0.348539	 -2.031873
O	 0.642323	 0.205129	 -1.606039
C	 0.702312	 0.627605	 -0.264544
C	 -0.714990	 0.596302	 0.266387
H	 1.092479	 1.639581	 -0.197244
H	 1.339183	 -0.029969	 0.323264
O	 -1.405996	 -0.526611	 -0.195820
H	 -1.257453	 1.468809	 -0.075599
H	 -0.688972	 0.618407	 1.353696
H	 -0.890587	 -1.292708	 0.022039

	symmetry c1
}
set optking {
	frozen_dihedral = ("
		10 7 4 3
	")
}

ee = energy('scf')
oeprop('DIPOLE', 'QUADRUPOLE', 'MULLIKEN_CHARGES')
f=open( 'psi4out.xyz', 'w' )
f.write( "10  " )
f.write( str(ee) + "\n" )
f.write( MOL.save_string_xyz() )
f.close()
--------------------------------------------------------------------------

  Memory set to   2.000 GiB by Python script.

*** tstart() called on cx1-49-4-2.cx1.hpc.ic.ac.uk
*** at Tue Jul  5 16:23:30 2016


         ---------------------------------------------------------
                                   SCF
            by Justin Turney, Rob Parrish, and Andy Simmonett
                              RHF Reference
                        1 Threads,   2000 MiB Core
         ---------------------------------------------------------

  ==> Geometry <==

    Molecular point group: c1
    Full point group: C1

    Geometry (in Angstrom), charge = 0, multiplicity = 1:

       Center              X                  Y                   Z               Mass       
    ------------   -----------------  -----------------  -----------------  -----------------
           H          1.657130102867     0.149963161343    -1.557816772615     1.007825032070
           O          0.824293102867     0.006553161343    -1.131982772615    15.994914619560
           C          0.884282102867     0.429029161343     0.209512227385    12.000000000000
           C         -0.533019897133     0.397726161343     0.740443227385    12.000000000000
           H          1.274449102867     1.441005161343     0.276812227385     1.007825032070
           H          1.521153102867    -0.228544838657     0.797320227385     1.007825032070
           O         -1.224025897133    -0.725186838657     0.278236227385    15.994914619560
           H         -1.075482897133     1.270233161343     0.398457227385     1.007825032070
           H         -0.507001897133     0.419831161343     1.827752227385     1.007825032070
           H         -0.708616897133    -1.491283838657     0.496095227385     1.007825032070

  Running in c1 symmetry.

  Rotational constants: A =      0.49720  B =      0.20367  C =      0.16066 [cm^-1]
  Rotational constants: A =  14905.76571  B =   6105.72917  C =   4816.35130 [MHz]
  Nuclear repulsion =  135.118080318538716

  Charge       = 0
  Multiplicity = 1
  Electrons    = 34
  Nalpha       = 17
  Nbeta        = 17

  ==> Algorithm <==

  SCF Algorithm Type is DF.
  DIIS enabled.
  MOM disabled.
  Fractional occupation disabled.
  Guess Type is CORE.
  Energy threshold   = 1.00e-06
  Density threshold  = 1.00e-06
  Integral threshold = 0.00e+00

  ==> Primary Basis <==

  Basis Set: 6-31G*
    Number of shells: 36
    Number of basis function: 72
    Number of Cartesian functions: 72
    Spherical Harmonics?: false
    Max angular momentum: 2

  ==> Pre-Iterations <==

   -------------------------------------------------------
    Irrep   Nso     Nmo     Nalpha   Nbeta   Ndocc  Nsocc
   -------------------------------------------------------
     A         72      72       0       0       0       0
   -------------------------------------------------------
    Total      72      72      17      17      17       0
   -------------------------------------------------------

 OEINTS: Overlap, kinetic, potential, dipole, and quadrupole integrals
         stored in file 35.

  ==> Integral Setup <==

  ==> DFJK: Density-Fitted J/K Matrices <==

    J tasked:                  Yes
    K tasked:                  Yes
    wK tasked:                  No
    OpenMP threads:              1
    Integrals threads:           1
    Memory (MB):              1430
    Algorithm:                Core
    Integral Cache:           NONE
    Schwarz Cutoff:          1E-12
    Fitting Condition:       1E-12

   => Auxiliary Basis Set <=

  Basis Set: 
    Number of shells: 150
    Number of basis function: 474
    Number of Cartesian functions: 474
    Spherical Harmonics?: false
    Max angular momentum: 3

  Minimum eigenvalue in the overlap matrix is 4.5766766627E-03.
  Using Symmetric Orthogonalization.
  SCF Guess: Core (One-Electron) Hamiltonian.

  ==> Iterations <==

                           Total Energy        Delta E     RMS |[F,P]|

   @DF-RHF iter   1:  -200.41998525458990   -2.00420e+02   8.44600e-02 
   @DF-RHF iter   2:  -190.10911256506773    1.03109e+01   7.77200e-02 DIIS
   @DF-RHF iter   3:  -223.45327216123150   -3.33442e+01   4.09967e-02 DIIS
   @DF-RHF iter   4:  -228.36761986924898   -4.91435e+00   1.42644e-02 DIIS
   @DF-RHF iter   5:  -228.84688765359482   -4.79268e-01   5.49220e-03 DIIS
   @DF-RHF iter   6:  -228.90903055652228   -6.21429e-02   1.37503e-03 DIIS
   @DF-RHF iter   7:  -228.91423195504944   -5.20140e-03   5.08339e-04 DIIS
   @DF-RHF iter   8:  -228.91497720315243   -7.45248e-04   1.19736e-04 DIIS
   @DF-RHF iter   9:  -228.91502653452727   -4.93314e-05   4.13198e-05 DIIS
   @DF-RHF iter  10:  -228.91503255031790   -6.01579e-06   1.14299e-05 DIIS
   @DF-RHF iter  11:  -228.91503304581062   -4.95493e-07   1.94288e-06 DIIS
   @DF-RHF iter  12:  -228.91503306583320   -2.00226e-08   6.32359e-07 DIIS

  ==> Post-Iterations <==

    Orbital Energies (a.u.)
    -----------------------

    Doubly Occupied:                                                      

       1A    -20.557814     2A    -20.549104     3A    -11.276483  
       4A    -11.268815     5A     -1.376226     6A     -1.346309  
       7A     -1.001940     8A     -0.843394     9A     -0.717149  
      10A     -0.680166    11A     -0.652807    12A     -0.592499  
      13A     -0.571150    14A     -0.535392    15A     -0.478488  
      16A     -0.444638    17A     -0.434813  

    Virtual:                                                              

      18A      0.212239    19A      0.255625    20A      0.275022  
      21A      0.291988    22A      0.312813    23A      0.355716  
      24A      0.377331    25A      0.430370    26A      0.445951  
      27A      0.750485    28A      0.803097    29A      0.815550  
      30A      0.819616    31A      0.903852    32A      0.926320  
      33A      1.058951    34A      1.087818    35A      1.120255  
      36A      1.132334    37A      1.158129    38A      1.186053  
      39A      1.211833    40A      1.226096    41A      1.274329  
      42A      1.299266    43A      1.321988    44A      1.387674  
      45A      1.459368    46A      1.639376    47A      1.715341  
      48A      1.732116    49A      1.815735    50A      1.886366  
      51A      1.990212    52A      2.023852    53A      2.105583  
      54A      2.161158    55A      2.241310    56A      2.380536  
      57A      2.410327    58A      2.466833    59A      2.490927  
      60A      2.644887    61A      2.725808    62A      2.747102  
      63A      2.780098    64A      2.856171    65A      2.891279  
      66A      3.052543    67A      3.178552    68A      3.248440  
      69A      4.124949    70A      4.258455    71A      4.620746  
      72A      4.860259  

    Final Occupation by Irrep:
              A 
    DOCC [    17 ]

  Energy converged.

  @DF-RHF Final Energy:  -228.91503306583320

   => Energetics <=

    Nuclear Repulsion Energy =            135.1180803185387163
    One-Electron Energy =                -581.4119831539985626
    Two-Electron Energy =                 217.3788697696269026
    DFT Exchange-Correlation Energy =       0.0000000000000000
    Empirical Dispersion Energy =           0.0000000000000000
    PCM Polarization Energy =               0.0000000000000000
    EFP Energy =                            0.0000000000000000
    Total Energy =                       -228.9150330658329437

    Alert: EFP and PCM quantities not currently incorporated into SCF psivars.

Properties will be evaluated at   0.000000,   0.000000,   0.000000 Bohr
  ==> Properties <==


Properties computed using the SCF density matrix

  Nuclear Dipole Moment: (a.u.)
     X:     2.0245      Y:     1.4601      Z:     2.0945

  Electronic Dipole Moment: (a.u.)
     X:    -0.8130      Y:    -1.1927      Z:    -1.5211

  Dipole Moment: (a.u.)
     X:     1.2115      Y:     0.2674      Z:     0.5734     Total:     1.3668

  Dipole Moment: (Debye)
     X:     3.0793      Y:     0.6797      Z:     1.4576     Total:     3.4740


  Saving occupied orbitals to File 180.

*** tstop() called on cx1-49-4-2.cx1.hpc.ic.ac.uk at Tue Jul  5 16:23:33 2016
Module time:
	user time   =       2.25 seconds =       0.04 minutes
	system time =       0.03 seconds =       0.00 minutes
	total time  =          3 seconds =       0.05 minutes
Total time:
	user time   =       2.25 seconds =       0.04 minutes
	system time =       0.03 seconds =       0.00 minutes
	total time  =          3 seconds =       0.05 minutes


Properties will be evaluated at   0.000000,   0.000000,   0.000000 Bohr

Properties computed using the  density matrix

  Nuclear Dipole Moment: (a.u.)
     X:     2.0245      Y:     1.4601      Z:     2.0945

  Electronic Dipole Moment: (a.u.)
     X:    -0.8130      Y:    -1.1927      Z:    -1.5211

  Dipole Moment: (a.u.)
     X:     1.2115      Y:     0.2674      Z:     0.5734     Total:     1.3668

  Dipole Moment: (Debye)
     X:     3.0793      Y:     0.6797      Z:     1.4576     Total:     3.4740

  Quadrupole Moment: (Debye Ang)
    XX:   -24.5603     YY:   -21.9791     ZZ:   -24.2835
    XY:    -0.5844     XZ:    -2.1807     YZ:    -1.2312

  Traceless Quadrupole Moment: (Debye Ang)
    XX:    -0.9527     YY:     1.6285     ZZ:    -0.6758
    XY:    -0.5844     XZ:    -2.1807     YZ:    -1.2312

  Mulliken Charges: (a.u.)
   Center  Symbol    Alpha    Beta     Spin     Total
       1     H     0.28064  0.28064  0.00000  0.43873
       2     O     4.36162  4.36162  0.00000 -0.72324
       3     C     3.02050  3.02050  0.00000 -0.04099
       4     C     2.99515  2.99515  0.00000  0.00969
       5     H     0.42647  0.42647  0.00000  0.14707
       6     H     0.43224  0.43224  0.00000  0.13553
       7     O     4.35795  4.35795  0.00000 -0.71590
       8     H     0.41197  0.41197  0.00000  0.17605
       9     H     0.43105  0.43105  0.00000  0.13790
      10     H     0.28242  0.28242  0.00000  0.43515

   Total alpha = 17.00000, Total beta = 17.00000, Total charge = -0.00000


*** PSI4 exiting successfully. Buy a developer a beer!
