
    -----------------------------------------------------------------------
          Psi4: An Open-Source Ab Initio Electronic Structure Package
                               Psi4 1.1 release

                         Git: Rev {HEAD} add49b9 


    R. M. Parrish, L. A. Burns, D. G. A. Smith, A. C. Simmonett,
    A. E. DePrince III, E. G. Hohenstein, U. Bozkaya, A. Yu. Sokolov,
    R. Di Remigio, R. M. Richard, J. F. Gonthier, A. M. James,
    H. R. McAlexander, A. Kumar, M. Saitow, X. Wang, B. P. Pritchard,
    P. Verma, H. F. Schaefer III, K. Patkowski, R. A. King, E. F. Valeev,
    F. A. Evangelista, J. M. Turney, T. D. Crawford, and C. D. Sherrill,
    J. Chem. Theory Comput. in press (2017).
    (doi: 10.1021/acs.jctc.7b00174)

    -----------------------------------------------------------------------


    Psi4 started on: Friday, 11 August 2017 01:52PM

    Process ID:   4551
    PSIDATADIR: /home/raimis/opt/miniconda3/envs/htmd/share/psi4
    Memory:     500.0 MiB
    Threads:    1
    
  ==> Input File <==

--------------------------------------------------------------------------
set {
	reference rks
	basis cc-pvdz
}


set_num_threads( 8 )
memory 2 gb

molecule MOL {
0 1

O	 1.014300	 -0.002300	 0.060500
O	 2.462400	 -0.107500	 -0.002400
H	 0.832155	 -0.961336	 0.051967
H	 2.655500	 0.713700	 0.488700

	symmetry c1
}
set optking { dynamic_level = 1 }
set optking {
	frozen_dihedral = ("
		3 1 2 4
	")
}

ee,wfn = energy('b3lyp-d3', return_wfn=True)
oeprop( wfn, 'DIPOLE', 'QUADRUPOLE', 'MULLIKEN_CHARGES')
f=open( 'psi4out.xyz', 'w' )
f.write( "4  " )
f.write( str(ee) + "\n" )
f.write( MOL.save_string_xyz() )
f.close()
--------------------------------------------------------------------------
  Threads set to 8 by Python driver.

  Memory set to   1.863 GiB by Python driver.

*** tstart() called on computer03
*** at Fri Aug 11 13:52:00 2017

   => Loading Basis Set <=

    Name: CC-PVDZ
    Role: ORBITAL
    Keyword: BASIS
    atoms 1-2 entry O          line   190 file /home/raimis/opt/miniconda3/envs/htmd/share/psi4/basis/cc-pvdz.gbs 
    atoms 3-4 entry H          line    20 file /home/raimis/opt/miniconda3/envs/htmd/share/psi4/basis/cc-pvdz.gbs 


         ---------------------------------------------------------
                                   SCF
            by Justin Turney, Rob Parrish, and Andy Simmonett
                              RKS Reference
                        8 Threads,   1907 MiB Core
         ---------------------------------------------------------

  ==> Geometry <==

    Molecular point group: c1
    Full point group: C1

    Geometry (in Angstrom), charge = 0, multiplicity = 1:

       Center              X                  Y                   Z               Mass       
    ------------   -----------------  -----------------  -----------------  -----------------
           O         -0.724374674830     0.056685064347     0.017148095948    15.994914619560
           O          0.723725325170    -0.048514935653    -0.045751904052    15.994914619560
           H         -0.906519674830    -0.902350935653     0.008615095948     1.007825032070
           H          0.916825325170     0.772685064347     0.445348095948     1.007825032070

  Running in c1 symmetry.

  Rotational constants: A =      9.69978  B =      0.90745  C =      0.83969 [cm^-1]
  Rotational constants: A = 290791.97846  B =  27204.55450  C =  25173.25198 [MHz]
  Nuclear repulsion =   36.786872082815648

  Charge       = 0
  Multiplicity = 1
  Electrons    = 18
  Nalpha       = 9
  Nbeta        = 9

  ==> Algorithm <==

  SCF Algorithm Type is DF.
  DIIS enabled.
  MOM disabled.
  Fractional occupation disabled.
  Guess Type is SAD.
  Energy threshold   = 1.00e-06
  Density threshold  = 1.00e-06
  Integral threshold = 0.00e+00

  ==> Primary Basis <==

  Basis Set: CC-PVDZ
    Blend: CC-PVDZ
    Number of shells: 18
    Number of basis function: 38
    Number of Cartesian functions: 40
    Spherical Harmonics?: true
    Max angular momentum: 2

  ==> DFT Potential <==

   => B3LYP Composite Functional <= 

    B3LYP Hybrid-GGA Exchange-Correlation Functional (VWN1-RPA)

    P.J. Stephens et. al., J. Phys. Chem., 98, 11623-11627, 1994

    Points   =           5000
    Deriv    =              1
    GGA      =           TRUE
    Meta     =          FALSE

    X_LRC        =          FALSE
    X_Hybrid     =           TRUE
    X_Alpha      =   2.000000E-01
    X_Omega      =   0.000000E+00
    C_LRC        =          FALSE
    C_Hybrid     =          FALSE
    C_Alpha      =   0.000000E+00
    C_Omega      =   0.000000E+00

   => Exchange Functionals <=

    0.8000    B3_X
    0.2000      HF 

   => Correlation Functionals <=

    0.1900 VWN3RPA_C
    0.8100   LYP_C

   => Molecular Quadrature <=

    Radial Scheme    =       TREUTLER
    Pruning Scheme   =           FLAT
    Nuclear Scheme   =       TREUTLER

    BS radius alpha  =              1
    Pruning alpha    =              1
    Radial Points    =             75
    Spherical Points =            302
    Total Points     =          88340
    Total Blocks     =             88
    Max Points       =           4704
    Max Functions    =             38

   => -D3ZERO: Empirical Dispersion <=

    Grimme's -D3 (zero-damping) Dispersion Correction
    Grimme S.; Antony J.; Ehrlich S.; Krieg H. (2010), J. Chem. Phys., 132: 154104

        S6 =   1.000000E+00
        S8 =   1.703000E+00
       SR6 =   1.261000E+00
    ALPHA6 =   1.400000E+01

   => Loading Basis Set <=

    Name: (CC-PVDZ AUX)
    Role: JKFIT
    Keyword: DF_BASIS_SCF
    atoms 1-2 entry O          line   220 file /home/raimis/opt/miniconda3/envs/htmd/share/psi4/basis/cc-pvdz-jkfit.gbs 
    atoms 3-4 entry H          line    50 file /home/raimis/opt/miniconda3/envs/htmd/share/psi4/basis/cc-pvdz-jkfit.gbs 

  ==> Pre-Iterations <==

   -------------------------------------------------------
    Irrep   Nso     Nmo     Nalpha   Nbeta   Ndocc  Nsocc
   -------------------------------------------------------
     A         38      38       0       0       0       0
   -------------------------------------------------------
    Total      38      38       9       9       9       0
   -------------------------------------------------------

  ==> Integral Setup <==

  ==> DFJK: Density-Fitted J/K Matrices <==

    J tasked:                  Yes
    K tasked:                  Yes
    wK tasked:                  No
    OpenMP threads:              8
    Integrals threads:           8
    Memory (MB):              1430
    Algorithm:                Core
    Integral Cache:           NONE
    Schwarz Cutoff:          1E-12
    Fitting Condition:       1E-12

   => Auxiliary Basis Set <=

  Basis Set: (CC-PVDZ AUX)
    Blend: CC-PVDZ-JKFIT
    Number of shells: 66
    Number of basis function: 186
    Number of Cartesian functions: 212
    Spherical Harmonics?: true
    Max angular momentum: 3

  Minimum eigenvalue in the overlap matrix is 2.4279497630E-02.
  Using Symmetric Orthogonalization.

  SCF Guess: Superposition of Atomic Densities via on-the-fly atomic UHF.

  ==> Iterations <==

                           Total Energy        Delta E     RMS |[F,P]|

   @DF-RKS iter   0:  -151.76013192037556   -1.51760e+02   8.08589e-02 
   @DF-RKS iter   1:  -151.53184534447612    2.28287e-01   9.63465e-03 
   @DF-RKS iter   2:  -151.54428081340893   -1.24355e-02   6.94235e-03 DIIS
   @DF-RKS iter   3:  -151.54951779865368   -5.23699e-03   1.42447e-03 DIIS
   @DF-RKS iter   4:  -151.55003463518861   -5.16837e-04   2.50131e-04 DIIS
   @DF-RKS iter   5:  -151.55004759076729   -1.29556e-05   2.61514e-05 DIIS
   @DF-RKS iter   6:  -151.55004763449784   -4.37306e-08   1.95468e-05 DIIS
   @DF-RKS iter   7:  -151.55004770743108   -7.29332e-08   2.07758e-06 DIIS
   @DF-RKS iter   8:  -151.55004770826764   -8.36565e-10   1.57398e-07 DIIS

  ==> Post-Iterations <==

    Orbital Energies (a.u.)
    -----------------------

    Doubly Occupied:                                                      

       1A    -19.185959     2A    -19.185918     3A     -1.109969  
       4A     -0.886391     5A     -0.500623     6A     -0.498253  
       7A     -0.399234     8A     -0.343171     9A     -0.247982  

    Virtual:                                                              

      10A      0.026325    11A      0.051653    12A      0.104960  
      13A      0.573164    14A      0.579288    15A      0.844814  
      16A      0.858176    17A      0.870947    18A      0.964965  
      19A      1.008984    20A      1.068822    21A      1.229467  
      22A      1.306484    23A      1.351001    24A      1.463610  
      25A      1.657171    26A      1.772615    27A      2.050907  
      28A      2.097969    29A      2.327279    30A      2.392240  
      31A      2.633748    32A      2.875748    33A      2.918716  
      34A      3.006591    35A      3.160951    36A      3.511996  
      37A      3.513663    38A      3.837402  

    Final Occupation by Irrep:
              A 
    DOCC [     9 ]

  Energy converged.

  @DF-RKS Final Energy:  -151.55004770826764

   => Energetics <=

    Nuclear Repulsion Energy =             36.7868720828156484
    One-Electron Energy =                -281.5738480159049573
    Two-Electron Energy =                 107.7003251005239122
    DFT Exchange-Correlation Energy =     -14.4630729157022540
    Empirical Dispersion Energy =          -0.0003239600000000
    PCM Polarization Energy =               0.0000000000000000
    EFP Energy =                            0.0000000000000000
    Total Energy =                       -151.5500477082676412



Properties will be evaluated at   0.000000,   0.000000,   0.000000 Bohr

Properties computed using the SCF density matrix

  Nuclear Dipole Moment: (a.u.)
     X:     0.0097      Y:    -0.1215      Z:     0.4254

  Electronic Dipole Moment: (a.u.)
     X:    -0.0022      Y:     0.0271      Z:    -0.0948

  Dipole Moment: (a.u.)
     X:     0.0075      Y:    -0.0944      Z:     0.3306     Total:     0.3439

  Dipole Moment: (Debye)
     X:     0.0191      Y:    -0.2399      Z:     0.8403     Total:     0.8741


*** tstop() called on computer03 at Fri Aug 11 13:52:05 2017
Module time:
	user time   =      17.25 seconds =       0.29 minutes
	system time =       0.56 seconds =       0.01 minutes
	total time  =          5 seconds =       0.08 minutes
Total time:
	user time   =      17.25 seconds =       0.29 minutes
	system time =       0.56 seconds =       0.01 minutes
	total time  =          5 seconds =       0.08 minutes


Properties will be evaluated at   0.000000,   0.000000,   0.000000 Bohr

Properties computed using the  density matrix

  Nuclear Dipole Moment: (a.u.)
     X:     0.0097      Y:    -0.1215      Z:     0.4254

  Electronic Dipole Moment: (a.u.)
     X:    -0.0022      Y:     0.0271      Z:    -0.0948

  Dipole Moment: (a.u.)
     X:     0.0075      Y:    -0.0944      Z:     0.3306     Total:     0.3439

  Dipole Moment: (Debye)
     X:     0.0191      Y:    -0.2399      Z:     0.8403     Total:     0.8741

  Quadrupole Moment: (Debye Ang)
    XX:   -10.8190     YY:    -8.8667     ZZ:   -11.8479
    XY:     3.1756     XZ:     0.8781     YZ:     0.8417

  Traceless Quadrupole Moment: (Debye Ang)
    XX:    -0.3078     YY:     1.6445     ZZ:    -1.3367
    XY:     3.1756     XZ:     0.8781     YZ:     0.8417

  Mulliken Charges: (a.u.)
   Center  Symbol    Alpha    Beta     Spin     Total
       1     O     4.09139  4.09139  0.00000 -0.18279
       2     O     4.09137  4.09137  0.00000 -0.18275
       3     H     0.40861  0.40861  0.00000  0.18279
       4     H     0.40863  0.40863  0.00000  0.18275

   Total alpha =  9.00000, Total beta =  9.00000, Total charge = -0.00000


*** Psi4 exiting successfully. Buy a developer a beer!
