    -----------------------------------------------------------------------
          Psi4: An Open-Source Ab Initio Electronic Structure Package
                              Psi4 (no tag) Driver

                          Git: Rev {detached?}  

    J. M. Turney, A. C. Simmonett, R. M. Parrish, E. G. Hohenstein,
    F. A. Evangelista, J. T. Fermann, B. J. Mintz, L. A. Burns, J. J. Wilke,
    M. L. Abrams, N. J. Russ, M. L. Leininger, C. L. Janssen, E. T. Seidl,
    W. D. Allen, H. F. Schaefer, R. A. King, E. F. Valeev, C. D. Sherrill,
    and T. D. Crawford, WIREs Comput. Mol. Sci. 2, 556-565 (2012)
    (doi: 10.1002/wcms.93)

                         Additional Contributions by
    A. E. DePrince, M. Saitow, U. Bozkaya, A. Yu. Sokolov
    -----------------------------------------------------------------------


    Psi4 started on: Tue Jul  5 16:48:40 2016

    Process ID:   1721
    PSI4DATADIR: /export131/home/mjharvey/miniconda3/share
    Memory level set to 256.000 MB

  ==> Input File <==

--------------------------------------------------------------------------
set {
	reference rhf
	basis 6-31G*
}


set_num_threads( 1 )
memory 2 gb

molecule MOL {
0 1

H	 -3.892951	 0.981613	 -0.358725
C	 -3.196921	 0.361773	 0.172313
C	 -2.076860	 -0.007332	 -0.404944
H	 -3.439953	 0.057760	 1.173024
O	 -1.180634	 -0.819263	 0.215062
H	 -1.811520	 0.292194	 -1.403480
C	 0.051604	 -1.018856	 -0.387932
C	 1.043764	 0.054862	 -0.001873
H	 -0.017620	 -1.041351	 -1.469781
H	 0.437898	 -1.966374	 -0.042284
F	 0.527251	 1.246826	 -0.263105
F	 1.331522	 0.016042	 1.288676
F	 2.174160	 -0.052800	 -0.668960

	symmetry c1
}
set optking {
	frozen_dihedral = ("
		3 5 7 9,
		6 3 2 1,
		6 3 5 7
	")
}

ee = energy('scf')
oeprop('DIPOLE', 'QUADRUPOLE', 'MULLIKEN_CHARGES')
f=open( 'psi4out.xyz', 'w' )
f.write( "13  " )
f.write( str(ee) + "\n" )
f.write( MOL.save_string_xyz() )
f.close()
--------------------------------------------------------------------------

  Memory set to   2.000 GiB by Python script.

*** tstart() called on cx1-3-14-4.cx1.hpc.ic.ac.uk
*** at Tue Jul  5 16:48:40 2016


         ---------------------------------------------------------
                                   SCF
            by Justin Turney, Rob Parrish, and Andy Simmonett
                              RHF Reference
                        1 Threads,   2000 MiB Core
         ---------------------------------------------------------

  ==> Geometry <==

    Molecular point group: c1
    Full point group: C1

    Geometry (in Angstrom), charge = 0, multiplicity = 1:

       Center              X                  Y                   Z               Mass       
    ------------   -----------------  -----------------  -----------------  -----------------
           H         -3.883443513087     0.974619321388    -0.363708109758     1.007825032070
           C         -3.187413513087     0.354779321388     0.167329890242    12.000000000000
           C         -2.067352513087    -0.014325678612    -0.409927109758    12.000000000000
           H         -3.430445513087     0.050766321388     1.168040890242     1.007825032070
           O         -1.171126513087    -0.826256678612     0.210078890242    15.994914619560
           H         -1.802012513087     0.285200321388    -1.408463109758     1.007825032070
           C          0.061111486913    -1.025849678612    -0.392915109758    12.000000000000
           C          1.053271486913     0.047868321388    -0.006856109758    12.000000000000
           H         -0.008112513087    -1.048344678612    -1.474764109758     1.007825032070
           H          0.447405486913    -1.973367678612    -0.047267109758     1.007825032070
           F          0.536758486913     1.239832321388    -0.268088109758    18.998403224000
           F          1.341029486913     0.009048321388     1.283692890242    18.998403224000
           F          2.183667486913    -0.059793678612    -0.673943109758    18.998403224000

  Running in c1 symmetry.

  Rotational constants: A =      0.15027  B =      0.04004  C =      0.03920 [cm^-1]
  Rotational constants: A =   4505.03430  B =   1200.26493  C =   1175.32602 [MHz]
  Nuclear repulsion =  414.240130752360244

  Charge       = 0
  Multiplicity = 1
  Electrons    = 64
  Nalpha       = 32
  Nbeta        = 32

  ==> Algorithm <==

  SCF Algorithm Type is DF.
  DIIS enabled.
  MOM disabled.
  Fractional occupation disabled.
  Guess Type is CORE.
  Energy threshold   = 1.00e-06
  Density threshold  = 1.00e-06
  Integral threshold = 0.00e+00

  ==> Primary Basis <==

  Basis Set: 6-31G*
    Number of shells: 58
    Number of basis function: 130
    Number of Cartesian functions: 130
    Spherical Harmonics?: false
    Max angular momentum: 2

  ==> Pre-Iterations <==

   -------------------------------------------------------
    Irrep   Nso     Nmo     Nalpha   Nbeta   Ndocc  Nsocc
   -------------------------------------------------------
     A        130     130       0       0       0       0
   -------------------------------------------------------
    Total     130     130      32      32      32       0
   -------------------------------------------------------

 OEINTS: Overlap, kinetic, potential, dipole, and quadrupole integrals
         stored in file 35.

  ==> Integral Setup <==

  ==> DFJK: Density-Fitted J/K Matrices <==

    J tasked:                  Yes
    K tasked:                  Yes
    wK tasked:                  No
    OpenMP threads:              1
    Integrals threads:           1
    Memory (MB):              1430
    Algorithm:                Core
    Integral Cache:           NONE
    Schwarz Cutoff:          1E-12
    Fitting Condition:       1E-12

   => Auxiliary Basis Set <=

  Basis Set: 
    Number of shells: 237
    Number of basis function: 773
    Number of Cartesian functions: 773
    Spherical Harmonics?: false
    Max angular momentum: 3

  Minimum eigenvalue in the overlap matrix is 1.8630895382E-03.
  Using Symmetric Orthogonalization.
  SCF Guess: Core (One-Electron) Hamiltonian.

  ==> Iterations <==

                           Total Energy        Delta E     RMS |[F,P]|

   @DF-RHF iter   1:  -440.07695569240371   -4.40077e+02   7.41510e-02 
   @DF-RHF iter   2:  -176.19402460863495    2.63883e+02   9.73474e-02 DIIS
   @DF-RHF iter   3:  -490.84300893599271   -3.14649e+02   3.97026e-02 DIIS
   @DF-RHF iter   4:  -406.99328836874457    8.38497e+01   7.35284e-02 DIIS
   @DF-RHF iter   5:  -519.82728886409927   -1.12834e+02   2.07447e-02 DIIS
   @DF-RHF iter   6:  -526.76023857087216   -6.93295e+00   1.04147e-02 DIIS
   @DF-RHF iter   7:  -527.48010903218596   -7.19870e-01   2.37944e-03 DIIS
   @DF-RHF iter   8:  -527.51919489539773   -3.90859e-02   1.19442e-03 DIIS
   @DF-RHF iter   9:  -527.53116851268328   -1.19736e-02   5.81538e-04 DIIS
   @DF-RHF iter  10:  -527.53408232251536   -2.91381e-03   2.84678e-04 DIIS
   @DF-RHF iter  11:  -527.53502189687015   -9.39574e-04   5.54511e-05 DIIS
   @DF-RHF iter  12:  -527.53505865586476   -3.67590e-05   2.07568e-05 DIIS
   @DF-RHF iter  13:  -527.53506565217072   -6.99631e-06   8.25988e-06 DIIS
   @DF-RHF iter  14:  -527.53506677118776   -1.11902e-06   2.20859e-06 DIIS
   @DF-RHF iter  15:  -527.53506689184223   -1.20654e-07   7.00430e-07 DIIS

  ==> Post-Iterations <==

    Orbital Energies (a.u.)
    -----------------------

    Doubly Occupied:                                                      

       1A    -26.349449     2A    -26.341087     3A    -26.338807  
       4A    -20.608622     5A    -11.503395     6A    -11.318992  
       7A    -11.298868     8A    -11.214820     9A     -1.742241  
      10A     -1.642671    11A     -1.635606    12A     -1.437991  
      13A     -1.084140    14A     -1.016019    15A     -0.925270  
      16A     -0.836615    17A     -0.831794    18A     -0.821702  
      19A     -0.790928    20A     -0.721876    21A     -0.711949  
      22A     -0.698175    23A     -0.674719    24A     -0.662584  
      25A     -0.653509    26A     -0.642998    27A     -0.631007  
      28A     -0.584642    29A     -0.562561    30A     -0.523840  
      31A     -0.513877    32A     -0.350800  

    Virtual:                                                              

      33A      0.192158    34A      0.235858    35A      0.271664  
      36A      0.281315    37A      0.296326    38A      0.314636  
      39A      0.344690    40A      0.406044    41A      0.418727  
      42A      0.451070    43A      0.474892    44A      0.509762  
      45A      0.519998    46A      0.690700    47A      0.701778  
      48A      0.718339    49A      0.739972    50A      0.756934  
      51A      0.769337    52A      0.809701    53A      0.827935  
      54A      0.876029    55A      0.909579    56A      0.922533  
      57A      0.978173    58A      1.079114    59A      1.098995  
      60A      1.128912    61A      1.149043    62A      1.160483  
      63A      1.204188    64A      1.238523    65A      1.276008  
      66A      1.327764    67A      1.362027    68A      1.371699  
      69A      1.414818    70A      1.428465    71A      1.451576  
      72A      1.464875    73A      1.595577    74A      1.612566  
      75A      1.633174    76A      1.644761    77A      1.666220  
      78A      1.673099    79A      1.690132    80A      1.713750  
      81A      1.745960    82A      1.824214    83A      1.846077  
      84A      1.905675    85A      1.936268    86A      1.966714  
      87A      2.020348    88A      2.034925    89A      2.107382  
      90A      2.122669    91A      2.137249    92A      2.147806  
      93A      2.229787    94A      2.250531    95A      2.281383  
      96A      2.297653    97A      2.313187    98A      2.326326  
      99A      2.367377   100A      2.396275   101A      2.411393  
     102A      2.424973   103A      2.498229   104A      2.529985  
     105A      2.555473   106A      2.592360   107A      2.665798  
     108A      2.685058   109A      2.733761   110A      2.808853  
     111A      2.851006   112A      2.914665   113A      2.998358  
     114A      3.100879   115A      3.147508   116A      3.175032  
     117A      3.219389   118A      3.293620   119A      3.420321  
     120A      3.428079   121A      3.442577   122A      3.484769  
     123A      4.365452   124A      4.540868   125A      4.613925  
     126A      4.698697   127A      4.877462   128A      4.946199  
     129A      5.177777   130A      5.772270  

    Final Occupation by Irrep:
              A 
    DOCC [    32 ]

  Energy converged.

  @DF-RHF Final Energy:  -527.53506689184223

   => Energetics <=

    Nuclear Repulsion Energy =            414.2401307523602441
    One-Electron Energy =               -1552.2072763500432302
    Two-Electron Energy =                 610.4320787058411497
    DFT Exchange-Correlation Energy =       0.0000000000000000
    Empirical Dispersion Energy =           0.0000000000000000
    PCM Polarization Energy =               0.0000000000000000
    EFP Energy =                            0.0000000000000000
    Total Energy =                       -527.5350668918417796

    Alert: EFP and PCM quantities not currently incorporated into SCF psivars.

Properties will be evaluated at   0.000000,   0.000000,   0.000000 Bohr
  ==> Properties <==


Properties computed using the SCF density matrix

  Nuclear Dipole Moment: (a.u.)
     X:   -11.9711      Y:    -2.7298      Z:    -2.3145

  Electronic Dipole Moment: (a.u.)
     X:    11.7737      Y:     2.3207      Z:     1.5912

  Dipole Moment: (a.u.)
     X:    -0.1973      Y:    -0.4092      Z:    -0.7234     Total:     0.8542

  Dipole Moment: (Debye)
     X:    -0.5016      Y:    -1.0400      Z:    -1.8386     Total:     2.1711


  Saving occupied orbitals to File 180.

*** tstop() called on cx1-3-14-4.cx1.hpc.ic.ac.uk at Tue Jul  5 16:48:50 2016
Module time:
	user time   =       9.38 seconds =       0.16 minutes
	system time =       0.05 seconds =       0.00 minutes
	total time  =         10 seconds =       0.17 minutes
Total time:
	user time   =       9.38 seconds =       0.16 minutes
	system time =       0.05 seconds =       0.00 minutes
	total time  =         10 seconds =       0.17 minutes


Properties will be evaluated at   0.000000,   0.000000,   0.000000 Bohr

Properties computed using the  density matrix

  Nuclear Dipole Moment: (a.u.)
     X:   -11.9711      Y:    -2.7298      Z:    -2.3145

  Electronic Dipole Moment: (a.u.)
     X:    11.7737      Y:     2.3207      Z:     1.5912

  Dipole Moment: (a.u.)
     X:    -0.1973      Y:    -0.4092      Z:    -0.7234     Total:     0.8542

  Dipole Moment: (Debye)
     X:    -0.5016      Y:    -1.0400      Z:    -1.8386     Total:     2.1711

  Quadrupole Moment: (Debye Ang)
    XX:   -45.7469     YY:   -44.3481     ZZ:   -43.4133
    XY:    -3.2265     XZ:     0.8787     YZ:     0.5462

  Traceless Quadrupole Moment: (Debye Ang)
    XX:    -1.2442     YY:     0.1547     ZZ:     1.0895
    XY:    -3.2265     XZ:     0.8787     YZ:     0.5462

  Mulliken Charges: (a.u.)
   Center  Symbol    Alpha    Beta     Spin     Total
       1     H     0.40728  0.40728  0.00000  0.18543
       2     C     3.23657  3.23657  0.00000 -0.47314
       3     C     2.89287  2.89287  0.00000  0.21426
       4     H     0.40206  0.40206  0.00000  0.19588
       5     O     4.30132  4.30132  0.00000 -0.60263
       6     H     0.40724  0.40724  0.00000  0.18552
       7     C     3.06473  3.06473  0.00000 -0.12945
       8     C     2.45448  2.45448  0.00000  1.09105
       9     H     0.40601  0.40601  0.00000  0.18798
      10     H     0.39072  0.39072  0.00000  0.21856
      11     F     4.68136  4.68136  0.00000 -0.36272
      12     F     4.67759  4.67759  0.00000 -0.35518
      13     F     4.67778  4.67778  0.00000 -0.35556

   Total alpha = 32.00000, Total beta = 32.00000, Total charge = -0.00000


*** PSI4 exiting successfully. Buy a developer a beer!
