    -----------------------------------------------------------------------
          Psi4: An Open-Source Ab Initio Electronic Structure Package
                              Psi4 (no tag) Driver

                          Git: Rev {detached?}  

    J. M. Turney, A. C. Simmonett, R. M. Parrish, E. G. Hohenstein,
    F. A. Evangelista, J. T. Fermann, B. J. Mintz, L. A. Burns, J. J. Wilke,
    M. L. Abrams, N. J. Russ, M. L. Leininger, C. L. Janssen, E. T. Seidl,
    W. D. Allen, H. F. Schaefer, R. A. King, E. F. Valeev, C. D. Sherrill,
    and T. D. Crawford, WIREs Comput. Mol. Sci. 2, 556-565 (2012)
    (doi: 10.1002/wcms.93)

                         Additional Contributions by
    A. E. DePrince, M. Saitow, U. Bozkaya, A. Yu. Sokolov
    -----------------------------------------------------------------------


    Psi4 started on: Tue Jul  5 17:11:38 2016

    Process ID:   8251
    PSI4DATADIR: /export131/home/mjharvey/miniconda3/share
    Memory level set to 256.000 MB

  ==> Input File <==

--------------------------------------------------------------------------
set {
	reference rhf
	basis 6-31G*
}


set_num_threads( 1 )
memory 2 gb

molecule MOL {
0 1

O	 2.544561	 1.850230	 -0.436504
C	 1.838777	 1.723109	 -1.389639
C	 0.569680	 0.890692	 -1.352025
C	 2.167518	 2.390316	 -2.709457
C	 0.291004	 0.242674	 0.000989
H	 -0.258633	 1.532446	 -1.649411
H	 0.643551	 0.134968	 -2.132938
C	 -0.994322	 -0.586602	 0.000262
H	 0.231019	 1.016052	 0.760210
H	 1.134073	 -0.383189	 0.276087
C	 -2.259874	 0.272531	 0.000494
H	 -1.004862	 -1.240012	 -0.870939
H	 -1.005220	 -1.241071	 0.870675
C	 -2.702815	 0.697512	 1.401639
H	 -3.067378	 -0.276896	 -0.480221
H	 -2.092138	 1.159687	 -0.607631
C	 -3.967724	 1.555198	 1.393659
H	 -2.871944	 -0.188482	 2.010107
H	 -1.896996	 1.248126	 1.882615
H	 -4.801727	 1.019487	 0.949134
H	 -4.256774	 1.840006	 2.400652
H	 -3.819533	 2.466828	 0.821719
H	 1.363265	 3.056339	 -3.008133
H	 3.085857	 2.952964	 -2.615040
H	 2.277291	 1.646185	 -3.492945

	symmetry c1
}
set optking {
	frozen_dihedral = ("
		9 5 8 12,
		15 11 14 18,
		1 2 3 6,
		9 5 3 6
	")
}

ee = energy('scf')
oeprop('DIPOLE', 'QUADRUPOLE', 'MULLIKEN_CHARGES')
f=open( 'psi4out.xyz', 'w' )
f.write( "25  " )
f.write( str(ee) + "\n" )
f.write( MOL.save_string_xyz() )
f.close()
--------------------------------------------------------------------------

  Memory set to   2.000 GiB by Python script.

*** tstart() called on cx1-1-2-1.cx1.hpc.ic.ac.uk
*** at Tue Jul  5 17:11:38 2016


         ---------------------------------------------------------
                                   SCF
            by Justin Turney, Rob Parrish, and Andy Simmonett
                              RHF Reference
                        1 Threads,   2000 MiB Core
         ---------------------------------------------------------

  ==> Geometry <==

    Molecular point group: c1
    Full point group: C1

    Geometry (in Angstrom), charge = 0, multiplicity = 1:

       Center              X                  Y                   Z               Mass       
    ------------   -----------------  -----------------  -----------------  -----------------
           O          2.829145877347     0.830263411487    -0.094987972371    15.994914619560
           C          2.123361877347     0.703142411487    -1.048122972371    12.000000000000
           C          0.854264877347    -0.129274588513    -1.010508972371    12.000000000000
           C          2.452102877347     1.370349411487    -2.367940972371    12.000000000000
           C          0.575588877347    -0.777292588513     0.342505027629    12.000000000000
           H          0.025951877347     0.512479411487    -1.307894972371     1.007825032070
           H          0.928135877347    -0.884998588513    -1.791421972371     1.007825032070
           C         -0.709737122653    -1.606568588513     0.341778027629    12.000000000000
           H          0.515603877347    -0.003914588513     1.101726027629     1.007825032070
           H          1.418657877347    -1.403155588513     0.617603027629     1.007825032070
           C         -1.975289122653    -0.747435588513     0.342010027629    12.000000000000
           H         -0.720277122653    -2.259978588513    -0.529422972371     1.007825032070
           H         -0.720635122653    -2.261037588513     1.212191027629     1.007825032070
           C         -2.418230122653    -0.322454588513     1.743155027629    12.000000000000
           H         -2.782793122653    -1.296862588513    -0.138704972371     1.007825032070
           H         -1.807553122653     0.139720411487    -0.266114972371     1.007825032070
           C         -3.683139122653     0.535231411487     1.735175027629    12.000000000000
           H         -2.587359122653    -1.208448588513     2.351623027629     1.007825032070
           H         -1.612411122653     0.228159411487     2.224131027629     1.007825032070
           H         -4.517142122653    -0.000479588513     1.290650027629     1.007825032070
           H         -3.972189122653     0.820039411487     2.742168027629     1.007825032070
           H         -3.534948122653     1.446861411487     1.163235027629     1.007825032070
           H          1.647849877347     2.036372411487    -2.666616972371     1.007825032070
           H          3.370441877347     1.932997411487    -2.273523972371     1.007825032070
           H          2.561875877347     0.626218411487    -3.151428972371     1.007825032070

  Running in c1 symmetry.

  Rotational constants: A =      0.10531  B =      0.01889  C =      0.01833 [cm^-1]
  Rotational constants: A =   3157.24643  B =    566.26599  C =    549.59802 [MHz]
  Nuclear repulsion =  450.607199783475778

  Charge       = 0
  Multiplicity = 1
  Electrons    = 72
  Nalpha       = 36
  Nbeta        = 36

  ==> Algorithm <==

  SCF Algorithm Type is DF.
  DIIS enabled.
  MOM disabled.
  Fractional occupation disabled.
  Guess Type is CORE.
  Energy threshold   = 1.00e-06
  Density threshold  = 1.00e-06
  Integral threshold = 0.00e+00

  ==> Primary Basis <==

  Basis Set: 6-31G*
    Number of shells: 86
    Number of basis function: 167
    Number of Cartesian functions: 167
    Spherical Harmonics?: false
    Max angular momentum: 2

  ==> Pre-Iterations <==

   -------------------------------------------------------
    Irrep   Nso     Nmo     Nalpha   Nbeta   Ndocc  Nsocc
   -------------------------------------------------------
     A        167     167       0       0       0       0
   -------------------------------------------------------
    Total     167     167      36      36      36       0
   -------------------------------------------------------

 OEINTS: Overlap, kinetic, potential, dipole, and quadrupole integrals
         stored in file 35.

  ==> Integral Setup <==

  ==> DFJK: Density-Fitted J/K Matrices <==

    J tasked:                  Yes
    K tasked:                  Yes
    wK tasked:                  No
    OpenMP threads:              1
    Integrals threads:           1
    Memory (MB):              1430
    Algorithm:                Core
    Integral Cache:           NONE
    Schwarz Cutoff:          1E-12
    Fitting Condition:       1E-12

   => Auxiliary Basis Set <=

  Basis Set: 
    Number of shells: 360
    Number of basis function: 1129
    Number of Cartesian functions: 1129
    Spherical Harmonics?: false
    Max angular momentum: 3

  Minimum eigenvalue in the overlap matrix is 3.0256564236E-03.
  Using Symmetric Orthogonalization.
  SCF Guess: Core (One-Electron) Hamiltonian.

  ==> Iterations <==

                           Total Energy        Delta E     RMS |[F,P]|

   @DF-RHF iter   1:  -286.33885165994678   -2.86339e+02   6.13793e-02 
   @DF-RHF iter   2:  -172.02613175261735    1.14313e+02   7.03210e-02 DIIS
   @DF-RHF iter   3:  -350.08337094374605   -1.78057e+02   2.49899e-02 DIIS
   @DF-RHF iter   4:  -134.34119595616886    2.15742e+02   7.49583e-02 DIIS
   @DF-RHF iter   5:  -244.13657939862918   -1.09795e+02   6.14393e-02 DIIS
   @DF-RHF iter   6:  -270.08960850251339   -2.59530e+01   5.70095e-02 DIIS
   @DF-RHF iter   7:  -287.73010244481264   -1.76405e+01   5.29074e-02 DIIS
   @DF-RHF iter   8:  -299.02584534935619   -1.12957e+01   5.77907e-02 DIIS
   @DF-RHF iter   9:  -302.57625720031007   -3.55041e+00   5.58748e-02 DIIS
   @DF-RHF iter  10:  -307.95538183661625   -5.37912e+00   5.03824e-02 DIIS
   @DF-RHF iter  11:  -309.70413592374808   -1.74875e+00   5.04464e-02 DIIS
   @DF-RHF iter  12:  -308.59928407264357    1.10485e+00   5.05232e-02 DIIS
   @DF-RHF iter  13:  -284.85401865086538    2.37453e+01   5.37198e-02 DIIS
   @DF-RHF iter  14:  -284.30213846088640    5.51880e-01   5.40153e-02 DIIS
   @DF-RHF iter  15:  -310.32823204660173   -2.60261e+01   5.23528e-02 DIIS
   @DF-RHF iter  16:  -311.24020398951865   -9.11972e-01   5.23644e-02 DIIS
   @DF-RHF iter  17:  -309.58165216696688    1.65855e+00   5.20441e-02 DIIS
   @DF-RHF iter  18:  -308.98492706050121    5.96725e-01   5.18466e-02 DIIS
   @DF-RHF iter  19:  -309.07288627864688   -8.79592e-02   5.18307e-02 DIIS
   @DF-RHF iter  20:  -308.35871857195406    7.14168e-01   5.15450e-02 DIIS
   @DF-RHF iter  21:  -306.00785984778230    2.35086e+00   5.10963e-02 DIIS
   @DF-RHF iter  22:  -315.08540401680710   -9.07754e+00   5.18319e-02 DIIS
   @DF-RHF iter  23:  -317.44932087880790   -2.36392e+00   5.04876e-02 DIIS
   @DF-RHF iter  24:  -334.10249502143580   -1.66532e+01   4.31668e-02 DIIS
   @DF-RHF iter  25:  -338.99914078751925   -4.89665e+00   4.27886e-02 DIIS
   @DF-RHF iter  26:  -343.54845453791012   -4.54931e+00   4.37377e-02 DIIS
   @DF-RHF iter  27:  -347.17528862222360   -3.62683e+00   3.92311e-02 DIIS
   @DF-RHF iter  28:  -355.16914154794591   -7.99385e+00   3.71593e-02 DIIS
   @DF-RHF iter  29:  -356.81805667159682   -1.64892e+00   3.59217e-02 DIIS
   @DF-RHF iter  30:  -361.90553904587574   -5.08748e+00   3.01886e-02 DIIS
   @DF-RHF iter  31:  -367.75742629522534   -5.85189e+00   2.67098e-02 DIIS
   @DF-RHF iter  32:  -377.91265195675470   -1.01552e+01   1.95251e-02 DIIS
   @DF-RHF iter  33:  -386.27000556065178   -8.35735e+00   6.61347e-03 DIIS
   @DF-RHF iter  34:  -386.96559590421072   -6.95590e-01   3.30506e-03 DIIS
   @DF-RHF iter  35:  -387.09275388555676   -1.27158e-01   1.33015e-03 DIIS
   @DF-RHF iter  36:  -387.12669593507263   -3.39420e-02   4.65076e-04 DIIS
   @DF-RHF iter  37:  -387.13057976375711   -3.88383e-03   1.88859e-04 DIIS
   @DF-RHF iter  38:  -387.13141935853054   -8.39595e-04   4.15158e-05 DIIS
   @DF-RHF iter  39:  -387.13146530458351   -4.59461e-05   1.11079e-05 DIIS
   @DF-RHF iter  40:  -387.13146881567724   -3.51109e-06   3.27858e-06 DIIS
   @DF-RHF iter  41:  -387.13146930472050   -4.89043e-07   1.46528e-06 DIIS
   @DF-RHF iter  42:  -387.13146943246960   -1.27749e-07   7.08611e-07 DIIS

  ==> Post-Iterations <==

    Orbital Energies (a.u.)
    -----------------------

    Doubly Occupied:                                                      

       1A    -20.550435     2A    -11.326347     3A    -11.231428  
       4A    -11.228401     5A    -11.216650     6A    -11.216120  
       7A    -11.215899     8A    -11.214917     9A    -11.209483  
      10A     -1.395762    11A     -1.097085    12A     -1.054329  
      13A     -1.013961    14A     -0.967958    15A     -0.895120  
      16A     -0.825479    17A     -0.779642    18A     -0.730902  
      19A     -0.661809    20A     -0.650744    21A     -0.626614  
      22A     -0.624440    23A     -0.597468    24A     -0.587351  
      25A     -0.569750    26A     -0.561442    27A     -0.544132  
      28A     -0.534698    29A     -0.504385    30A     -0.494892  
      31A     -0.487447    32A     -0.485472    33A     -0.459396  
      34A     -0.452899    35A     -0.447640    36A     -0.400857  

    Virtual:                                                              

      37A      0.169954    38A      0.218740    39A      0.238162  
      40A      0.253044    41A      0.266205    42A      0.270400  
      43A      0.294730    44A      0.306591    45A      0.312867  
      46A      0.315941    47A      0.322494    48A      0.326475  
      49A      0.331078    50A      0.344220    51A      0.365154  
      52A      0.380111    53A      0.382697    54A      0.394689  
      55A      0.410791    56A      0.419894    57A      0.447521  
      58A      0.462011    59A      0.478733    60A      0.505668  
      61A      0.526459    62A      0.697952    63A      0.709813  
      64A      0.722651    65A      0.743630    66A      0.757061  
      67A      0.760732    68A      0.765070    69A      0.786836  
      70A      0.809468    71A      0.833232    72A      0.856031  
      73A      0.893437    74A      0.927170    75A      0.946743  
      76A      0.961795    77A      0.968250    78A      0.972494  
      79A      0.994012    80A      1.019098    81A      1.032363  
      82A      1.075596    83A      1.104715    84A      1.112921  
      85A      1.121631    86A      1.129711    87A      1.142384  
      88A      1.148422    89A      1.164404    90A      1.178535  
      91A      1.181031    92A      1.191820    93A      1.201946  
      94A      1.207888    95A      1.210379    96A      1.219154  
      97A      1.233616    98A      1.245242    99A      1.248184  
     100A      1.266381   101A      1.283071   102A      1.302583  
     103A      1.334911   104A      1.366039   105A      1.402307  
     106A      1.430007   107A      1.437071   108A      1.624603  
     109A      1.668010   110A      1.689506   111A      1.702768  
     112A      1.743393   113A      1.802640   114A      1.827595  
     115A      1.851302   116A      1.914332   117A      1.936912  
     118A      2.026186   119A      2.043776   120A      2.075729  
     121A      2.102394   122A      2.134773   123A      2.142932  
     124A      2.160056   125A      2.203590   126A      2.212645  
     127A      2.238766   128A      2.245979   129A      2.281266  
     130A      2.288258   131A      2.291594   132A      2.319401  
     133A      2.350017   134A      2.405974   135A      2.430563  
     136A      2.456652   137A      2.504139   138A      2.513065  
     139A      2.578253   140A      2.597650   141A      2.616407  
     142A      2.662392   143A      2.682991   144A      2.702924  
     145A      2.711994   146A      2.769511   147A      2.816229  
     148A      2.830580   149A      2.902500   150A      2.918548  
     151A      2.957237   152A      2.975315   153A      3.015185  
     154A      3.048818   155A      3.128475   156A      3.203426  
     157A      3.374345   158A      3.412070   159A      4.404397  
     160A      4.531087   161A      4.584165   162A      4.678951  
     163A      4.753564   164A      4.828551   165A      4.874716  
     166A      4.978487   167A      5.005899  

    Final Occupation by Irrep:
              A 
    DOCC [    36 ]

  Energy converged.

  @DF-RHF Final Energy:  -387.13146943246960

   => Energetics <=

    Nuclear Repulsion Energy =            450.6071997834757781
    One-Electron Energy =               -1417.7546363500193820
    Two-Electron Energy =                 580.0159671340728664
    DFT Exchange-Correlation Energy =       0.0000000000000000
    Empirical Dispersion Energy =           0.0000000000000000
    PCM Polarization Energy =               0.0000000000000000
    EFP Energy =                            0.0000000000000000
    Total Energy =                       -387.1314694324706807

    Alert: EFP and PCM quantities not currently incorporated into SCF psivars.

Properties will be evaluated at   0.000000,   0.000000,   0.000000 Bohr
  ==> Properties <==


Properties computed using the SCF density matrix

  Nuclear Dipole Moment: (a.u.)
     X:   -11.0362      Y:    -1.4735      Z:     0.5416

  Electronic Dipole Moment: (a.u.)
     X:    10.3263      Y:     1.3061      Z:    -1.4155

  Dipole Moment: (a.u.)
     X:    -0.7098      Y:    -0.1674      Z:    -0.8739     Total:     1.1383

  Dipole Moment: (Debye)
     X:    -1.8042      Y:    -0.4254      Z:    -2.2213     Total:     2.8932


  Saving occupied orbitals to File 180.

*** tstop() called on cx1-1-2-1.cx1.hpc.ic.ac.uk at Tue Jul  5 17:12:28 2016
Module time:
	user time   =      48.19 seconds =       0.80 minutes
	system time =       0.60 seconds =       0.01 minutes
	total time  =         50 seconds =       0.83 minutes
Total time:
	user time   =      48.19 seconds =       0.80 minutes
	system time =       0.60 seconds =       0.01 minutes
	total time  =         50 seconds =       0.83 minutes


Properties will be evaluated at   0.000000,   0.000000,   0.000000 Bohr

Properties computed using the  density matrix

  Nuclear Dipole Moment: (a.u.)
     X:   -11.0362      Y:    -1.4735      Z:     0.5416

  Electronic Dipole Moment: (a.u.)
     X:    10.3263      Y:     1.3061      Z:    -1.4155

  Dipole Moment: (a.u.)
     X:    -0.7098      Y:    -0.1674      Z:    -0.8739     Total:     1.1383

  Dipole Moment: (Debye)
     X:    -1.8042      Y:    -0.4254      Z:    -2.2213     Total:     2.8932

  Quadrupole Moment: (Debye Ang)
    XX:   -67.2715     YY:   -57.8371     ZZ:   -54.7440
    XY:    -1.7969     XZ:    -5.2423     YZ:    -1.9626

  Traceless Quadrupole Moment: (Debye Ang)
    XX:    -7.3206     YY:     2.1138     ZZ:     5.2069
    XY:    -1.7969     XZ:    -5.2423     YZ:    -1.9626

  Mulliken Charges: (a.u.)
   Center  Symbol    Alpha    Beta     Spin     Total
       1     O     4.26100  4.26100  0.00000 -0.52200
       2     C     2.73528  2.73528  0.00000  0.52945
       3     C     3.21158  3.21158  0.00000 -0.42316
       4     C     3.28670  3.28670  0.00000 -0.57340
       5     C     3.15183  3.15183  0.00000 -0.30366
       6     H     0.40926  0.40926  0.00000  0.18148
       7     H     0.40991  0.40991  0.00000  0.18017
       8     C     3.15951  3.15951  0.00000 -0.31902
       9     H     0.41133  0.41133  0.00000  0.17733
      10     H     0.41010  0.41010  0.00000  0.17980
      11     C     3.15491  3.15491  0.00000 -0.30982
      12     H     0.42294  0.42294  0.00000  0.15413
      13     H     0.41748  0.41748  0.00000  0.16504
      14     C     3.15262  3.15262  0.00000 -0.30524
      15     H     0.42122  0.42122  0.00000  0.15756
      16     H     0.42548  0.42548  0.00000  0.14905
      17     C     3.23911  3.23911  0.00000 -0.47823
      18     H     0.42207  0.42207  0.00000  0.15585
      19     H     0.42064  0.42064  0.00000  0.15872
      20     H     0.42189  0.42189  0.00000  0.15621
      21     H     0.41867  0.41867  0.00000  0.16266
      22     H     0.42254  0.42254  0.00000  0.15492
      23     H     0.40879  0.40879  0.00000  0.18243
      24     H     0.39649  0.39649  0.00000  0.20703
      25     H     0.40865  0.40865  0.00000  0.18270

   Total alpha = 36.00000, Total beta = 36.00000, Total charge = -0.00000


*** PSI4 exiting successfully. Buy a developer a beer!
