    -----------------------------------------------------------------------
          Psi4: An Open-Source Ab Initio Electronic Structure Package
                              Psi4 (no tag) Driver

                          Git: Rev {detached?}  

    J. M. Turney, A. C. Simmonett, R. M. Parrish, E. G. Hohenstein,
    F. A. Evangelista, J. T. Fermann, B. J. Mintz, L. A. Burns, J. J. Wilke,
    M. L. Abrams, N. J. Russ, M. L. Leininger, C. L. Janssen, E. T. Seidl,
    W. D. Allen, H. F. Schaefer, R. A. King, E. F. Valeev, C. D. Sherrill,
    and T. D. Crawford, WIREs Comput. Mol. Sci. 2, 556-565 (2012)
    (doi: 10.1002/wcms.93)

                         Additional Contributions by
    A. E. DePrince, M. Saitow, U. Bozkaya, A. Yu. Sokolov
    -----------------------------------------------------------------------


    Psi4 started on: Tue Jul  5 16:30:46 2016

    Process ID:  12831
    PSI4DATADIR: /export131/home/mjharvey/miniconda3/share
    Memory level set to 256.000 MB

  ==> Input File <==

--------------------------------------------------------------------------
set {
	reference rhf
	basis 6-31G*
}


set_num_threads( 1 )
memory 2 gb

molecule MOL {
0 1

H	 1.444142	 -1.987024	 -2.234712
O	 1.170125	 -1.809243	 -1.340231
C	 0.179993	 -0.918359	 -1.380153
C	 -0.318135	 -0.576402	 0.000164
O	 -0.229526	 -0.473517	 -2.402604
C	 -1.454360	 0.441875	 -0.000474
H	 -0.621751	 -1.505724	 0.474697
H	 0.533129	 -0.216904	 0.572103
C	 -2.826123	 -0.230780	 0.000056
H	 -1.357605	 1.085198	 -0.868380
H	 -1.357504	 1.086451	 0.866496
H	 -2.959731	 -0.858053	 -0.876869
H	 -3.619374	 0.509403	 -0.000080
H	 -2.959371	 -0.857318	 0.877556

	symmetry c1
}
set optking {
	frozen_dihedral = ("
		2 3 4 7,
		1 2 3 5
	")
}

ee = energy('scf')
oeprop('DIPOLE', 'QUADRUPOLE', 'MULLIKEN_CHARGES')
f=open( 'psi4out.xyz', 'w' )
f.write( "14  " )
f.write( str(ee) + "\n" )
f.write( MOL.save_string_xyz() )
f.close()
--------------------------------------------------------------------------

  Memory set to   2.000 GiB by Python script.

*** tstart() called on cx1-3-16-4.cx1.hpc.ic.ac.uk
*** at Tue Jul  5 16:30:47 2016


         ---------------------------------------------------------
                                   SCF
            by Justin Turney, Rob Parrish, and Andy Simmonett
                              RHF Reference
                        1 Threads,   2000 MiB Core
         ---------------------------------------------------------

  ==> Geometry <==

    Molecular point group: c1
    Full point group: C1

    Geometry (in Angstrom), charge = 0, multiplicity = 1:

       Center              X                  Y                   Z               Mass       
    ------------   -----------------  -----------------  -----------------  -----------------
           H          2.000197548862    -1.366007791007    -1.353081531122     1.007825032070
           O          1.726180548862    -1.188226791007    -0.458600531122    15.994914619560
           C          0.736048548862    -0.297342791007    -0.498522531122    12.000000000000
           C          0.237920548862     0.044614208993     0.881794468878    12.000000000000
           O          0.326529548862     0.147499208993    -1.520973531122    15.994914619560
           C         -0.898304451138     1.062891208993     0.881156468878    12.000000000000
           H         -0.065695451138    -0.884707791007     1.356327468878     1.007825032070
           H          1.089184548862     0.404112208993     1.453733468878     1.007825032070
           C         -2.270067451138     0.390236208993     0.881686468878    12.000000000000
           H         -0.801549451138     1.706214208993     0.013250468878     1.007825032070
           H         -0.801448451138     1.707467208993     1.748126468878     1.007825032070
           H         -2.403675451138    -0.237036791007     0.004761468878     1.007825032070
           H         -3.063318451138     1.130419208993     0.881550468878     1.007825032070
           H         -2.403315451138    -0.236301791007     1.759186468878     1.007825032070

  Running in c1 symmetry.

  Rotational constants: A =      0.25175  B =      0.06978  C =      0.06241 [cm^-1]
  Rotational constants: A =   7547.13842  B =   2091.86020  C =   1870.92936 [MHz]
  Nuclear repulsion =  243.329860801324600

  Charge       = 0
  Multiplicity = 1
  Electrons    = 48
  Nalpha       = 24
  Nbeta        = 24

  ==> Algorithm <==

  SCF Algorithm Type is DF.
  DIIS enabled.
  MOM disabled.
  Fractional occupation disabled.
  Guess Type is CORE.
  Energy threshold   = 1.00e-06
  Density threshold  = 1.00e-06
  Integral threshold = 0.00e+00

  ==> Primary Basis <==

  Basis Set: 6-31G*
    Number of shells: 52
    Number of basis function: 106
    Number of Cartesian functions: 106
    Spherical Harmonics?: false
    Max angular momentum: 2

  ==> Pre-Iterations <==

   -------------------------------------------------------
    Irrep   Nso     Nmo     Nalpha   Nbeta   Ndocc  Nsocc
   -------------------------------------------------------
     A        106     106       0       0       0       0
   -------------------------------------------------------
    Total     106     106      24      24      24       0
   -------------------------------------------------------

 OEINTS: Overlap, kinetic, potential, dipole, and quadrupole integrals
         stored in file 35.

  ==> Integral Setup <==

  ==> DFJK: Density-Fitted J/K Matrices <==

    J tasked:                  Yes
    K tasked:                  Yes
    wK tasked:                  No
    OpenMP threads:              1
    Integrals threads:           1
    Memory (MB):              1430
    Algorithm:                Core
    Integral Cache:           NONE
    Schwarz Cutoff:          1E-12
    Fitting Condition:       1E-12

   => Auxiliary Basis Set <=

  Basis Set: 
    Number of shells: 216
    Number of basis function: 686
    Number of Cartesian functions: 686
    Spherical Harmonics?: false
    Max angular momentum: 3

  Minimum eigenvalue in the overlap matrix is 3.5897492507E-03.
  Using Symmetric Orthogonalization.
  SCF Guess: Core (One-Electron) Hamiltonian.

  ==> Iterations <==

                           Total Energy        Delta E     RMS |[F,P]|

   @DF-RHF iter   1:  -243.26664676280015   -2.43267e+02   7.43371e-02 
   @DF-RHF iter   2:  -149.66252049505746    9.36041e+01   9.30115e-02 DIIS
   @DF-RHF iter   3:  -282.42545590786222   -1.32763e+02   3.45677e-02 DIIS
   @DF-RHF iter   4:  -213.16522568758157    6.92602e+01   8.95976e-02 DIIS
   @DF-RHF iter   5:  -243.64423870197507   -3.04790e+01   7.13632e-02 DIIS
   @DF-RHF iter   6:  -264.94519628599403   -2.13010e+01   5.68261e-02 DIIS
   @DF-RHF iter   7:  -281.09209644649252   -1.61469e+01   4.41055e-02 DIIS
   @DF-RHF iter   8:  -290.57887063398618   -9.48677e+00   3.52212e-02 DIIS
   @DF-RHF iter   9:  -305.03204169920480   -1.44532e+01   1.14641e-02 DIIS
   @DF-RHF iter  10:  -305.63315967450183   -6.01118e-01   6.82627e-03 DIIS
   @DF-RHF iter  11:  -305.83830886900932   -2.05149e-01   2.13719e-03 DIIS
   @DF-RHF iter  12:  -305.87135759579189   -3.30487e-02   8.81775e-04 DIIS
   @DF-RHF iter  13:  -305.87728088819620   -5.92329e-03   3.69947e-04 DIIS
   @DF-RHF iter  14:  -305.87807115246926   -7.90264e-04   1.07262e-04 DIIS
   @DF-RHF iter  15:  -305.87818184753507   -1.10695e-04   2.53893e-05 DIIS
   @DF-RHF iter  16:  -305.87818653147212   -4.68394e-06   8.75506e-06 DIIS
   @DF-RHF iter  17:  -305.87818724216856   -7.10696e-07   1.67803e-06 DIIS
   @DF-RHF iter  18:  -305.87818727427293   -3.21044e-08   3.73576e-07 DIIS

  ==> Post-Iterations <==

    Orbital Energies (a.u.)
    -----------------------

    Doubly Occupied:                                                      

       1A    -20.613856     2A    -20.553127     3A    -11.382476  
       4A    -11.240305     5A    -11.223321     6A    -11.212772  
       7A     -1.475970     8A     -1.367292     9A     -1.082233  
      10A     -0.976196    11A     -0.859585    12A     -0.788719  
      13A     -0.702309    14A     -0.694749    15A     -0.658227  
      16A     -0.609836    17A     -0.598130    18A     -0.563647  
      19A     -0.559235    20A     -0.492959    21A     -0.488661  
      22A     -0.487074    23A     -0.475783    24A     -0.446416  

    Virtual:                                                              

      25A      0.194038    26A      0.230830    27A      0.236911  
      28A      0.280992    29A      0.294946    30A      0.314035  
      31A      0.323370    32A      0.331592    33A      0.351753  
      34A      0.403904    35A      0.437239    36A      0.458255  
      37A      0.498745    38A      0.540384    39A      0.699266  
      40A      0.724085    41A      0.753974    42A      0.776204  
      43A      0.809582    44A      0.849942    45A      0.857125  
      46A      0.921623    47A      0.953088    48A      0.969295  
      49A      1.017834    50A      1.053019    51A      1.095715  
      52A      1.104001    53A      1.110332    54A      1.142285  
      55A      1.150561    56A      1.179149    57A      1.202643  
      58A      1.210990    59A      1.217218    60A      1.230704  
      61A      1.249968    62A      1.262086    63A      1.282214  
      64A      1.363696    65A      1.407185    66A      1.515778  
      67A      1.610330    68A      1.662553    69A      1.678144  
      70A      1.739706    71A      1.836209    72A      1.888527  
      73A      1.965172    74A      2.005850    75A      2.044076  
      76A      2.077272    77A      2.095327    78A      2.123233  
      79A      2.190732    80A      2.204782    81A      2.264621  
      82A      2.280669    83A      2.320579    84A      2.377285  
      85A      2.406568    86A      2.446321    87A      2.574676  
      88A      2.633137    89A      2.683194    90A      2.712469  
      91A      2.746637    92A      2.814517    93A      2.847925  
      94A      2.909153    95A      2.993246    96A      3.034053  
      97A      3.119518    98A      3.275587    99A      3.385943  
     100A      3.503478   101A      4.262786   102A      4.509007  
     103A      4.613191   104A      4.672012   105A      4.901622  
     106A      4.965326  

    Final Occupation by Irrep:
              A 
    DOCC [    24 ]

  Energy converged.

  @DF-RHF Final Energy:  -305.87818727427293

   => Energetics <=

    Nuclear Repulsion Energy =            243.3298608013245996
    One-Electron Energy =                -899.3104117037107699
    Two-Electron Energy =                 350.1023636281129257
    DFT Exchange-Correlation Energy =       0.0000000000000000
    Empirical Dispersion Energy =           0.0000000000000000
    PCM Polarization Energy =               0.0000000000000000
    EFP Energy =                            0.0000000000000000
    Total Energy =                       -305.8781872742732730

    Alert: EFP and PCM quantities not currently incorporated into SCF psivars.

Properties will be evaluated at   0.000000,   0.000000,   0.000000 Bohr
  ==> Properties <==


Properties computed using the SCF density matrix

  Nuclear Dipole Moment: (a.u.)
     X:    -6.0365      Y:     2.0801      Z:     5.4877

  Electronic Dipole Moment: (a.u.)
     X:     6.2699      Y:    -2.3055      Z:    -4.9567

  Dipole Moment: (a.u.)
     X:     0.2335      Y:    -0.2254      Z:     0.5310     Total:     0.6223

  Dipole Moment: (Debye)
     X:     0.5934      Y:    -0.5730      Z:     1.3497     Total:     1.5818


  Saving occupied orbitals to File 180.

*** tstop() called on cx1-3-16-4.cx1.hpc.ic.ac.uk at Tue Jul  5 16:30:57 2016
Module time:
	user time   =       9.23 seconds =       0.15 minutes
	system time =       0.06 seconds =       0.00 minutes
	total time  =         10 seconds =       0.17 minutes
Total time:
	user time   =       9.23 seconds =       0.15 minutes
	system time =       0.06 seconds =       0.00 minutes
	total time  =         10 seconds =       0.17 minutes


Properties will be evaluated at   0.000000,   0.000000,   0.000000 Bohr

Properties computed using the  density matrix

  Nuclear Dipole Moment: (a.u.)
     X:    -6.0365      Y:     2.0801      Z:     5.4877

  Electronic Dipole Moment: (a.u.)
     X:     6.2699      Y:    -2.3055      Z:    -4.9567

  Dipole Moment: (a.u.)
     X:     0.2335      Y:    -0.2254      Z:     0.5310     Total:     0.6223

  Dipole Moment: (Debye)
     X:     0.5934      Y:    -0.5730      Z:     1.3497     Total:     1.5818

  Quadrupole Moment: (Debye Ang)
    XX:   -35.4059     YY:   -36.0647     ZZ:   -38.0882
    XY:    -0.5293     XZ:    -2.9985     YZ:     3.4623

  Traceless Quadrupole Moment: (Debye Ang)
    XX:     1.1137     YY:     0.4549     ZZ:    -1.5686
    XY:    -0.5293     XZ:    -2.9985     YZ:     3.4623

  Mulliken Charges: (a.u.)
   Center  Symbol    Alpha    Beta     Spin     Total
       1     H     0.26765  0.26765  0.00000  0.46471
       2     O     4.35029  4.35029  0.00000 -0.70057
       3     C     2.62578  2.62578  0.00000  0.74845
       4     C     3.21219  3.21219  0.00000 -0.42439
       5     O     4.27901  4.27901  0.00000 -0.55801
       6     C     3.15888  3.15888  0.00000 -0.31776
       7     H     0.39716  0.39716  0.00000  0.20568
       8     H     0.39569  0.39569  0.00000  0.20862
       9     C     3.24360  3.24360  0.00000 -0.48720
      10     H     0.39886  0.39886  0.00000  0.20228
      11     H     0.41749  0.41749  0.00000  0.16502
      12     H     0.41389  0.41389  0.00000  0.17222
      13     H     0.41664  0.41664  0.00000  0.16672
      14     H     0.42288  0.42288  0.00000  0.15424

   Total alpha = 24.00000, Total beta = 24.00000, Total charge = -0.00000


*** PSI4 exiting successfully. Buy a developer a beer!
