    -----------------------------------------------------------------------
          Psi4: An Open-Source Ab Initio Electronic Structure Package
                              Psi4 (no tag) Driver

                          Git: Rev {detached?}  

    J. M. Turney, A. C. Simmonett, R. M. Parrish, E. G. Hohenstein,
    F. A. Evangelista, J. T. Fermann, B. J. Mintz, L. A. Burns, J. J. Wilke,
    M. L. Abrams, N. J. Russ, M. L. Leininger, C. L. Janssen, E. T. Seidl,
    W. D. Allen, H. F. Schaefer, R. A. King, E. F. Valeev, C. D. Sherrill,
    and T. D. Crawford, WIREs Comput. Mol. Sci. 2, 556-565 (2012)
    (doi: 10.1002/wcms.93)

                         Additional Contributions by
    A. E. DePrince, M. Saitow, U. Bozkaya, A. Yu. Sokolov
    -----------------------------------------------------------------------


    Psi4 started on: Tue Jul  5 16:40:27 2016

    Process ID:  23903
    PSI4DATADIR: /export131/home/mjharvey/miniconda3/share
    Memory level set to 256.000 MB

  ==> Input File <==

--------------------------------------------------------------------------
set {
	reference rhf
	basis 6-31G*
}


set_num_threads( 1 )
memory 2 gb

molecule MOL {
0 1

O	 -0.923021	 -0.796155	 2.173702
C	 -0.336095	 -0.970337	 1.154427
C	 0.900818	 -1.821691	 0.994713
O	 -0.698257	 -0.426125	 0.001050
C	 1.354038	 -2.467474	 2.297987
H	 1.678204	 -1.189997	 0.575333
H	 0.685306	 -2.569258	 0.237110
H	 1.583730	 -1.717688	 3.045268
H	 2.243013	 -3.065913	 2.129439
H	 0.581955	 -3.109714	 2.703869
C	 -1.853104	 0.406779	 0.000512
C	 -3.066105	 -0.499277	 -0.000959
H	 -1.828410	 1.043074	 -0.873618
H	 -1.829857	 1.042383	 0.875188
H	 -3.071820	 -1.133106	 -0.880383
H	 -3.972708	 0.097145	 -0.001528
H	 -3.073405	 -1.133813	 0.877999

	symmetry c1
}
set optking {
	frozen_dihedral = ("
		4 2 3 6,
		11 4 2 3
	")
}

ee = energy('scf')
oeprop('DIPOLE', 'QUADRUPOLE', 'MULLIKEN_CHARGES')
f=open( 'psi4out.xyz', 'w' )
f.write( "17  " )
f.write( str(ee) + "\n" )
f.write( MOL.save_string_xyz() )
f.close()
--------------------------------------------------------------------------

  Memory set to   2.000 GiB by Python script.

*** tstart() called on cx1-3-16-4.cx1.hpc.ic.ac.uk
*** at Tue Jul  5 16:40:28 2016


         ---------------------------------------------------------
                                   SCF
            by Justin Turney, Rob Parrish, and Andy Simmonett
                              RHF Reference
                        1 Threads,   2000 MiB Core
         ---------------------------------------------------------

  ==> Geometry <==

    Molecular point group: c1
    Full point group: C1

    Geometry (in Angstrom), charge = 0, multiplicity = 1:

       Center              X                  Y                   Z               Mass       
    ------------   -----------------  -----------------  -----------------  -----------------
           O         -0.247037108228     0.140504072755     1.224318028510    15.994914619560
           C          0.339888891772    -0.033677927245     0.205043028510    12.000000000000
           C          1.576801891772    -0.885031927245     0.045329028510    12.000000000000
           O         -0.022273108228     0.510534072755    -0.948333971490    15.994914619560
           C          2.030021891772    -1.530814927245     1.348603028510    12.000000000000
           H          2.354187891772    -0.253337927245    -0.374050971490     1.007825032070
           H          1.361289891772    -1.632598927245    -0.712273971490     1.007825032070
           H          2.259713891772    -0.781028927245     2.095884028510     1.007825032070
           H          2.918996891772    -2.129253927245     1.180055028510     1.007825032070
           H          1.257938891772    -2.173054927245     1.754485028510     1.007825032070
           C         -1.177120108228     1.343438072755    -0.948871971490    12.000000000000
           C         -2.390121108228     0.437382072755    -0.950342971490    12.000000000000
           H         -1.152426108228     1.979733072755    -1.823001971490     1.007825032070
           H         -1.153873108228     1.979042072755    -0.074195971490     1.007825032070
           H         -2.395836108228    -0.196446927245    -1.829766971490     1.007825032070
           H         -3.296724108228     1.033804072755    -0.950911971490     1.007825032070
           H         -2.397421108228    -0.197153927245    -0.071384971490     1.007825032070

  Running in c1 symmetry.

  Rotational constants: A =      0.22522  B =      0.04804  C =      0.04454 [cm^-1]
  Rotational constants: A =   6751.84397  B =   1440.14062  C =   1335.22301 [MHz]
  Nuclear repulsion =  320.556894466838571

  Charge       = 0
  Multiplicity = 1
  Electrons    = 56
  Nalpha       = 28
  Nbeta        = 28

  ==> Algorithm <==

  SCF Algorithm Type is DF.
  DIIS enabled.
  MOM disabled.
  Fractional occupation disabled.
  Guess Type is CORE.
  Energy threshold   = 1.00e-06
  Density threshold  = 1.00e-06
  Integral threshold = 0.00e+00

  ==> Primary Basis <==

  Basis Set: 6-31G*
    Number of shells: 62
    Number of basis function: 125
    Number of Cartesian functions: 125
    Spherical Harmonics?: false
    Max angular momentum: 2

  ==> Pre-Iterations <==

   -------------------------------------------------------
    Irrep   Nso     Nmo     Nalpha   Nbeta   Ndocc  Nsocc
   -------------------------------------------------------
     A        125     125       0       0       0       0
   -------------------------------------------------------
    Total     125     125      28      28      28       0
   -------------------------------------------------------

 OEINTS: Overlap, kinetic, potential, dipole, and quadrupole integrals
         stored in file 35.

  ==> Integral Setup <==

  ==> DFJK: Density-Fitted J/K Matrices <==

    J tasked:                  Yes
    K tasked:                  Yes
    wK tasked:                  No
    OpenMP threads:              1
    Integrals threads:           1
    Memory (MB):              1430
    Algorithm:                Core
    Integral Cache:           NONE
    Schwarz Cutoff:          1E-12
    Fitting Condition:       1E-12

   => Auxiliary Basis Set <=

  Basis Set: 
    Number of shells: 258
    Number of basis function: 817
    Number of Cartesian functions: 817
    Spherical Harmonics?: false
    Max angular momentum: 3

  Minimum eigenvalue in the overlap matrix is 3.2509548943E-03.
  Using Symmetric Orthogonalization.
  SCF Guess: Core (One-Electron) Hamiltonian.

  ==> Iterations <==

                           Total Energy        Delta E     RMS |[F,P]|

   @DF-RHF iter   1:  -235.97066973407425   -2.35971e+02   8.30808e-02 
   @DF-RHF iter   2:  -225.74771182097288    1.02230e+01   6.63826e-02 DIIS
   @DF-RHF iter   3:  -306.97418473076345   -8.12265e+01   4.72237e-02 DIIS
   @DF-RHF iter   4:  -336.47769243046127   -2.95035e+01   2.55586e-02 DIIS
   @DF-RHF iter   5:  -331.55774367177708    4.91995e+00   3.11644e-02 DIIS
   @DF-RHF iter   6:  -344.79852312643698   -1.32408e+01   3.60174e-03 DIIS
   @DF-RHF iter   7:  -344.89348612135859   -9.49630e-02   1.33967e-03 DIIS
   @DF-RHF iter   8:  -344.90668264404201   -1.31965e-02   4.46961e-04 DIIS
   @DF-RHF iter   9:  -344.90877194592053   -2.08930e-03   1.60561e-04 DIIS
   @DF-RHF iter  10:  -344.90905671201790   -2.84766e-04   4.91405e-05 DIIS
   @DF-RHF iter  11:  -344.90909278313075   -3.60711e-05   2.29984e-05 DIIS
   @DF-RHF iter  12:  -344.90909936421053   -6.58108e-06   7.94617e-06 DIIS
   @DF-RHF iter  13:  -344.90910030471684   -9.40506e-07   2.68838e-06 DIIS
   @DF-RHF iter  14:  -344.90910041853078   -1.13814e-07   9.68962e-07 DIIS

  ==> Post-Iterations <==

    Orbital Energies (a.u.)
    -----------------------

    Doubly Occupied:                                                      

       1A    -20.600525     2A    -20.544861     3A    -11.373123  
       4A    -11.284531     5A    -11.238199     6A    -11.216374  
       7A    -11.213926     8A     -1.468867     9A     -1.362871  
      10A     -1.069603    11A     -1.026950    12A     -0.913604  
      13A     -0.853856    14A     -0.760510    15A     -0.704189  
      16A     -0.682811    17A     -0.660303    18A     -0.619640  
      19A     -0.610995    20A     -0.566515    21A     -0.545011  
      22A     -0.534971    23A     -0.521319    24A     -0.514421  
      25A     -0.496426    26A     -0.489340    27A     -0.449056  
      28A     -0.436880  

    Virtual:                                                              

      29A      0.198385    30A      0.237909    31A      0.262513  
      32A      0.294758    33A      0.298486    34A      0.300847  
      35A      0.311031    36A      0.317636    37A      0.324605  
      38A      0.339509    39A      0.354821    40A      0.357280  
      41A      0.403225    42A      0.421176    43A      0.449289  
      44A      0.523346    45A      0.558829    46A      0.706464  
      47A      0.722026    48A      0.729857    49A      0.746823  
      50A      0.758415    51A      0.787637    52A      0.794989  
      53A      0.858644    54A      0.868181    55A      0.905700  
      56A      0.937703    57A      0.944535    58A      0.993989  
      59A      1.018957    60A      1.045796    61A      1.083394  
      62A      1.110819    63A      1.129577    64A      1.130360  
      65A      1.165097    66A      1.171666    67A      1.177140  
      68A      1.196553    69A      1.201462    70A      1.217773  
      71A      1.241928    72A      1.244508    73A      1.255197  
      74A      1.319370    75A      1.350911    76A      1.387997  
      77A      1.422061    78A      1.488633    79A      1.630646  
      80A      1.637822    81A      1.687603    82A      1.739852  
      83A      1.771198    84A      1.796512    85A      1.822891  
      86A      1.897305    87A      2.004895    88A      2.055715  
      89A      2.075799    90A      2.112443    91A      2.132108  
      92A      2.191650    93A      2.196086    94A      2.238515  
      95A      2.268088    96A      2.278979    97A      2.325273  
      98A      2.340526    99A      2.379300   100A      2.435473  
     101A      2.490779   102A      2.551932   103A      2.597925  
     104A      2.654677   105A      2.668400   106A      2.679223  
     107A      2.692827   108A      2.765483   109A      2.777752  
     110A      2.838720   111A      2.867604   112A      2.934090  
     113A      3.051234   114A      3.099867   115A      3.169632  
     116A      3.361409   117A      3.451727   118A      3.575822  
     119A      4.426201   120A      4.561261   121A      4.618829  
     122A      4.679857   123A      4.782384   124A      4.855813  
     125A      4.969069  

    Final Occupation by Irrep:
              A 
    DOCC [    28 ]

  Energy converged.

  @DF-RHF Final Energy:  -344.90910041853078

   => Energetics <=

    Nuclear Repulsion Energy =            320.5568944668385711
    One-Electron Energy =               -1105.4128485230537535
    Two-Electron Energy =                 439.9468536376841143
    DFT Exchange-Correlation Energy =       0.0000000000000000
    Empirical Dispersion Energy =           0.0000000000000000
    PCM Polarization Energy =               0.0000000000000000
    EFP Energy =                            0.0000000000000000
    Total Energy =                       -344.9091004185310680

    Alert: EFP and PCM quantities not currently incorporated into SCF psivars.

Properties will be evaluated at   0.000000,   0.000000,   0.000000 Bohr
  ==> Properties <==


Properties computed using the SCF density matrix

  Nuclear Dipole Moment: (a.u.)
     X:    -0.2302      Y:    -2.2190      Z:    -0.7535

  Electronic Dipole Moment: (a.u.)
     X:     0.4033      Y:     2.2355      Z:     0.0745

  Dipole Moment: (a.u.)
     X:     0.1732      Y:     0.0165      Z:    -0.6789     Total:     0.7009

  Dipole Moment: (Debye)
     X:     0.4401      Y:     0.0420      Z:    -1.7257     Total:     1.7814


  Saving occupied orbitals to File 180.

*** tstop() called on cx1-3-16-4.cx1.hpc.ic.ac.uk at Tue Jul  5 16:40:43 2016
Module time:
	user time   =      14.25 seconds =       0.24 minutes
	system time =       0.10 seconds =       0.00 minutes
	total time  =         15 seconds =       0.25 minutes
Total time:
	user time   =      14.25 seconds =       0.24 minutes
	system time =       0.10 seconds =       0.00 minutes
	total time  =         15 seconds =       0.25 minutes


Properties will be evaluated at   0.000000,   0.000000,   0.000000 Bohr

Properties computed using the  density matrix

  Nuclear Dipole Moment: (a.u.)
     X:    -0.2302      Y:    -2.2190      Z:    -0.7535

  Electronic Dipole Moment: (a.u.)
     X:     0.4033      Y:     2.2355      Z:     0.0745

  Dipole Moment: (a.u.)
     X:     0.1732      Y:     0.0165      Z:    -0.6789     Total:     0.7009

  Dipole Moment: (Debye)
     X:     0.4401      Y:     0.0420      Z:    -1.7257     Total:     1.7814

  Quadrupole Moment: (Debye Ang)
    XX:   -39.8329     YY:   -40.0514     ZZ:   -47.4297
    XY:    -2.2959     XZ:     2.5445     YZ:    -1.0993

  Traceless Quadrupole Moment: (Debye Ang)
    XX:     2.6051     YY:     2.3866     ZZ:    -4.9917
    XY:    -2.2959     XZ:     2.5445     YZ:    -1.0993

  Mulliken Charges: (a.u.)
   Center  Symbol    Alpha    Beta     Spin     Total
       1     O     4.28761  4.28761  0.00000 -0.57522
       2     C     2.60577  2.60577  0.00000  0.78846
       3     C     3.20491  3.20491  0.00000 -0.40982
       4     O     4.31200  4.31200  0.00000 -0.62399
       5     C     3.23893  3.23893  0.00000 -0.47786
       6     H     0.40014  0.40014  0.00000  0.19971
       7     H     0.40055  0.40055  0.00000  0.19889
       8     H     0.40986  0.40986  0.00000  0.18028
       9     H     0.41797  0.41797  0.00000  0.16405
      10     H     0.41022  0.41022  0.00000  0.17956
      11     C     3.00953  3.00953  0.00000 -0.01905
      12     C     3.25599  3.25599  0.00000 -0.51198
      13     H     0.40831  0.40831  0.00000  0.18338
      14     H     0.40376  0.40376  0.00000  0.19247
      15     H     0.41551  0.41551  0.00000  0.16897
      16     H     0.41973  0.41973  0.00000  0.16054
      17     H     0.39920  0.39920  0.00000  0.20161

   Total alpha = 28.00000, Total beta = 28.00000, Total charge = -0.00000


*** PSI4 exiting successfully. Buy a developer a beer!
