    -----------------------------------------------------------------------
          Psi4: An Open-Source Ab Initio Electronic Structure Package
                              Psi4 (no tag) Driver

                          Git: Rev {detached?}  

    J. M. Turney, A. C. Simmonett, R. M. Parrish, E. G. Hohenstein,
    F. A. Evangelista, J. T. Fermann, B. J. Mintz, L. A. Burns, J. J. Wilke,
    M. L. Abrams, N. J. Russ, M. L. Leininger, C. L. Janssen, E. T. Seidl,
    W. D. Allen, H. F. Schaefer, R. A. King, E. F. Valeev, C. D. Sherrill,
    and T. D. Crawford, WIREs Comput. Mol. Sci. 2, 556-565 (2012)
    (doi: 10.1002/wcms.93)

                         Additional Contributions by
    A. E. DePrince, M. Saitow, U. Bozkaya, A. Yu. Sokolov
    -----------------------------------------------------------------------


    Psi4 started on: Tue Jul  5 16:53:57 2016

    Process ID:  20609
    PSI4DATADIR: /export131/home/mjharvey/miniconda3/share
    Memory level set to 256.000 MB

  ==> Input File <==

--------------------------------------------------------------------------
set {
	reference rhf
	basis 6-31G*
}


set_num_threads( 1 )
memory 2 gb

molecule MOL {
0 1

H	 2.546437	 -6.710226	 0.125252
C	 2.333431	 -5.666732	 0.275362
C	 1.576233	 -5.265660	 1.365748
C	 2.816779	 -4.727407	 -0.621843
H	 1.201983	 -5.995171	 2.060813
C	 1.302766	 -3.923758	 1.558092
H	 3.403567	 -5.040184	 -1.466506
C	 2.544287	 -3.383599	 -0.431313
H	 0.718536	 -3.595218	 2.396191
C	 1.785688	 -2.978410	 0.660526
H	 2.916303	 -2.653287	 -1.123099
C	 1.463013	 -1.545621	 0.912827
O	 1.970282	 -0.730723	 0.000018
O	 0.816573	 -1.161677	 1.836711
C	 3.377318	 -0.566646	 -0.000065
H	 3.695437	 -0.028981	 -0.881264
H	 3.789299	 -1.563704	 0.000236
H	 3.695516	 -0.028316	 0.880770

	symmetry c1
}
set optking {
	frozen_dihedral = ("
		12 13 15 16,
		13 12 10 6
	")
}

ee = energy('scf')
oeprop('DIPOLE', 'QUADRUPOLE', 'MULLIKEN_CHARGES')
f=open( 'psi4out.xyz', 'w' )
f.write( "18  " )
f.write( str(ee) + "\n" )
f.write( MOL.save_string_xyz() )
f.close()
--------------------------------------------------------------------------

  Memory set to   2.000 GiB by Python script.

*** tstart() called on cx1-3-5-2.cx1.hpc.ic.ac.uk
*** at Tue Jul  5 16:53:58 2016


         ---------------------------------------------------------
                                   SCF
            by Justin Turney, Rob Parrish, and Andy Simmonett
                              RHF Reference
                        1 Threads,   2000 MiB Core
         ---------------------------------------------------------

  ==> Geometry <==

    Molecular point group: c1
    Full point group: C1

    Geometry (in Angstrom), charge = 0, multiplicity = 1:

       Center              X                  Y                   Z               Mass       
    ------------   -----------------  -----------------  -----------------  -----------------
           H          0.539058962840    -3.823263233078    -0.433490797576     1.007825032070
           C          0.326052962840    -2.779769233078    -0.283380797576    12.000000000000
           C         -0.431145037160    -2.378697233078     0.807005202424    12.000000000000
           C          0.809400962840    -1.840444233078    -1.180585797576    12.000000000000
           H         -0.805395037160    -3.108208233078     1.502070202424     1.007825032070
           C         -0.704612037160    -1.036795233078     0.999349202424    12.000000000000
           H          1.396188962840    -2.153221233078    -2.025248797576     1.007825032070
           C          0.536908962840    -0.496636233078    -0.990055797576    12.000000000000
           H         -1.288842037160    -0.708255233078     1.837448202424     1.007825032070
           C         -0.221690037160    -0.091447233078     0.101783202424    12.000000000000
           H          0.908924962840     0.233675766922    -1.681841797576     1.007825032070
           C         -0.544365037160     1.341341766922     0.354084202424    12.000000000000
           O         -0.037096037160     2.156239766922    -0.558724797576    15.994914619560
           O         -1.190805037160     1.725285766922     1.277968202424    15.994914619560
           C          1.369939962840     2.320316766922    -0.558807797576    12.000000000000
           H          1.688058962840     2.857981766922    -1.440006797576     1.007825032070
           H          1.781920962840     1.323258766922    -0.558506797576     1.007825032070
           H          1.688137962840     2.858646766922     0.322027202424     1.007825032070

  Running in c1 symmetry.

  Rotational constants: A =      0.09095  B =      0.03458  C =      0.02613 [cm^-1]
  Rotational constants: A =   2726.58583  B =   1036.72802  C =    783.42908 [MHz]
  Nuclear repulsion =  500.943480474505236

  Charge       = 0
  Multiplicity = 1
  Electrons    = 72
  Nalpha       = 36
  Nbeta        = 36

  ==> Algorithm <==

  SCF Algorithm Type is DF.
  DIIS enabled.
  MOM disabled.
  Fractional occupation disabled.
  Guess Type is CORE.
  Energy threshold   = 1.00e-06
  Density threshold  = 1.00e-06
  Integral threshold = 0.00e+00

  ==> Primary Basis <==

  Basis Set: 6-31G*
    Number of shells: 76
    Number of basis function: 166
    Number of Cartesian functions: 166
    Spherical Harmonics?: false
    Max angular momentum: 2

  ==> Pre-Iterations <==

   -------------------------------------------------------
    Irrep   Nso     Nmo     Nalpha   Nbeta   Ndocc  Nsocc
   -------------------------------------------------------
     A        166     166       0       0       0       0
   -------------------------------------------------------
    Total     166     166      36      36      36       0
   -------------------------------------------------------

 OEINTS: Overlap, kinetic, potential, dipole, and quadrupole integrals
         stored in file 35.

  ==> Integral Setup <==

  ==> DFJK: Density-Fitted J/K Matrices <==

    J tasked:                  Yes
    K tasked:                  Yes
    wK tasked:                  No
    OpenMP threads:              1
    Integrals threads:           1
    Memory (MB):              1430
    Algorithm:                Core
    Integral Cache:           NONE
    Schwarz Cutoff:          1E-12
    Fitting Condition:       1E-12

   => Auxiliary Basis Set <=

  Basis Set: 
    Number of shells: 312
    Number of basis function: 1010
    Number of Cartesian functions: 1010
    Spherical Harmonics?: false
    Max angular momentum: 3

  Minimum eigenvalue in the overlap matrix is 4.3126955346E-04.
  Using Symmetric Orthogonalization.
  SCF Guess: Core (One-Electron) Hamiltonian.

  ==> Iterations <==

                           Total Energy        Delta E     RMS |[F,P]|

   @DF-RHF iter   1:  -347.74573298957773   -3.47746e+02   6.51385e-02 
   @DF-RHF iter   2:  -299.56922794175159    4.81765e+01   5.76618e-02 DIIS
   @DF-RHF iter   3:  -380.81343212536729   -8.12442e+01   5.30147e-02 DIIS
   @DF-RHF iter   4:  -423.22484138786683   -4.24114e+01   3.97977e-02 DIIS
   @DF-RHF iter   5:  -432.79409190113586   -9.56925e+00   3.27513e-02 DIIS
   @DF-RHF iter   6:  -455.94142112965437   -2.31473e+01   8.95920e-03 DIIS
   @DF-RHF iter   7:  -456.96240656108478   -1.02099e+00   4.45418e-03 DIIS
   @DF-RHF iter   8:  -457.25872410868567   -2.96318e-01   1.55194e-03 DIIS
   @DF-RHF iter   9:  -457.31159265112763   -5.28685e-02   4.12994e-04 DIIS
   @DF-RHF iter  10:  -457.31670913647406   -5.11649e-03   2.26939e-04 DIIS
   @DF-RHF iter  11:  -457.31822462288073   -1.51549e-03   1.22652e-04 DIIS
   @DF-RHF iter  12:  -457.31865591560074   -4.31293e-04   4.47214e-05 DIIS
   @DF-RHF iter  13:  -457.31872817844589   -7.22628e-05   1.55303e-05 DIIS
   @DF-RHF iter  14:  -457.31873786343374   -9.68499e-06   6.37507e-06 DIIS
   @DF-RHF iter  15:  -457.31874072439723   -2.86096e-06   3.04242e-06 DIIS
   @DF-RHF iter  16:  -457.31874142943741   -7.05040e-07   9.52547e-07 DIIS

  ==> Post-Iterations <==

    Orbital Energies (a.u.)
    -----------------------

    Doubly Occupied:                                                      

       1A    -20.591883     2A    -20.552873     3A    -11.379531  
       4A    -11.293529     5A    -11.252809     6A    -11.251375  
       7A    -11.248790     8A    -11.246491     9A    -11.245069  
      10A    -11.242469    11A     -1.466652    12A     -1.369184  
      13A     -1.171450    14A     -1.047137    15A     -1.032110  
      16A     -0.985154    17A     -0.874406    18A     -0.845656  
      19A     -0.783543    20A     -0.739881    21A     -0.690923  
      22A     -0.676620    23A     -0.670556    24A     -0.647352  
      25A     -0.628508    26A     -0.611483    27A     -0.591236  
      28A     -0.562831    29A     -0.537108    30A     -0.522758  
      31A     -0.507143    32A     -0.488206    33A     -0.463164  
      34A     -0.442881    35A     -0.349708    36A     -0.347301  

    Virtual:                                                              

      37A      0.090000    38A      0.132061    39A      0.224187  
      40A      0.231352    41A      0.261754    42A      0.287779  
      43A      0.300967    44A      0.307751    45A      0.312206  
      46A      0.332865    47A      0.334204    48A      0.345053  
      49A      0.389503    50A      0.439915    51A      0.461044  
      52A      0.472978    53A      0.482289    54A      0.496862  
      55A      0.560519    56A      0.590454    57A      0.704697  
      58A      0.711000    59A      0.734286    60A      0.751954  
      61A      0.759369    62A      0.769575    63A      0.789099  
      64A      0.793347    65A      0.808231    66A      0.811374  
      67A      0.820377    68A      0.828961    69A      0.837235  
      70A      0.850259    71A      0.870741    72A      0.915463  
      73A      0.944490    74A      0.973332    75A      0.986030  
      76A      0.999981    77A      1.026687    78A      1.082123  
      79A      1.090125    80A      1.105494    81A      1.108702  
      82A      1.127052    83A      1.133313    84A      1.152128  
      85A      1.166497    86A      1.185593    87A      1.202619  
      88A      1.213220    89A      1.237084    90A      1.263190  
      91A      1.292854    92A      1.315069    93A      1.354208  
      94A      1.360210    95A      1.375634    96A      1.397035  
      97A      1.446018    98A      1.485999    99A      1.506674  
     100A      1.535855   101A      1.589251   102A      1.611181  
     103A      1.650552   104A      1.695863   105A      1.700960  
     106A      1.704515   107A      1.743082   108A      1.752520  
     109A      1.766264   110A      1.784190   111A      1.790743  
     112A      1.860333   113A      1.997689   114A      2.041840  
     115A      2.054440   116A      2.075772   117A      2.114437  
     118A      2.132025   119A      2.162455   120A      2.199966  
     121A      2.229688   122A      2.242210   123A      2.281068  
     124A      2.318121   125A      2.364409   126A      2.384559  
     127A      2.402647   128A      2.419116   129A      2.453841  
     130A      2.460795   131A      2.480564   132A      2.484804  
     133A      2.533348   134A      2.545542   135A      2.614215  
     136A      2.632342   137A      2.639190   138A      2.666797  
     139A      2.701759   140A      2.815421   141A      2.856574  
     142A      2.931980   143A      2.951766   144A      2.982024  
     145A      3.047841   146A      3.049232   147A      3.109603  
     148A      3.114964   149A      3.128167   150A      3.190330  
     151A      3.265610   152A      3.310511   153A      3.373137  
     154A      3.512971   155A      3.584012   156A      3.843620  
     157A      4.384021   158A      4.514251   159A      4.536905  
     160A      4.550533   161A      4.658157   162A      4.728875  
     163A      4.751482   164A      4.839707   165A      4.975651  
     166A      5.155133  

    Final Occupation by Irrep:
              A 
    DOCC [    36 ]

  Energy converged.

  @DF-RHF Final Energy:  -457.31874142943741

   => Energetics <=

    Nuclear Repulsion Energy =            500.9434804745052361
    One-Electron Energy =               -1615.8088952227537902
    Two-Electron Energy =                 657.5466733188098942
    DFT Exchange-Correlation Energy =       0.0000000000000000
    Empirical Dispersion Energy =           0.0000000000000000
    PCM Polarization Energy =               0.0000000000000000
    EFP Energy =                            0.0000000000000000
    Total Energy =                       -457.3187414294385462

    Alert: EFP and PCM quantities not currently incorporated into SCF psivars.

Properties will be evaluated at   0.000000,   0.000000,   0.000000 Bohr
  ==> Properties <==


Properties computed using the SCF density matrix

  Nuclear Dipole Moment: (a.u.)
     X:     5.5327      Y:    -2.3432      Z:    -2.3192

  Electronic Dipole Moment: (a.u.)
     X:    -4.2507      Y:     1.3825      Z:     1.6719

  Dipole Moment: (a.u.)
     X:     1.2820      Y:    -0.9607      Z:    -0.6473     Total:     1.7279

  Dipole Moment: (Debye)
     X:     3.2586      Y:    -2.4419      Z:    -1.6452     Total:     4.3918


  Saving occupied orbitals to File 180.

*** tstop() called on cx1-3-5-2.cx1.hpc.ic.ac.uk at Tue Jul  5 16:54:22 2016
Module time:
	user time   =      23.33 seconds =       0.39 minutes
	system time =       0.25 seconds =       0.00 minutes
	total time  =         24 seconds =       0.40 minutes
Total time:
	user time   =      23.33 seconds =       0.39 minutes
	system time =       0.25 seconds =       0.00 minutes
	total time  =         24 seconds =       0.40 minutes


Properties will be evaluated at   0.000000,   0.000000,   0.000000 Bohr

Properties computed using the  density matrix

  Nuclear Dipole Moment: (a.u.)
     X:     5.5327      Y:    -2.3432      Z:    -2.3192

  Electronic Dipole Moment: (a.u.)
     X:    -4.2507      Y:     1.3825      Z:     1.6719

  Dipole Moment: (a.u.)
     X:     1.2820      Y:    -0.9607      Z:    -0.6473     Total:     1.7279

  Dipole Moment: (Debye)
     X:     3.2586      Y:    -2.4419      Z:    -1.6452     Total:     4.3918

  Quadrupole Moment: (Debye Ang)
    XX:   -58.0635     YY:   -55.3413     ZZ:   -57.9678
    XY:     7.3984     XZ:    -2.1501     YZ:    -3.9855

  Traceless Quadrupole Moment: (Debye Ang)
    XX:    -0.9393     YY:     1.7829     ZZ:    -0.8436
    XY:     7.3984     XZ:    -2.1501     YZ:    -3.9855

  Mulliken Charges: (a.u.)
   Center  Symbol    Alpha    Beta     Spin     Total
       1     H     0.39402  0.39402  0.00000  0.21196
       2     C     3.09066  3.09066  0.00000 -0.18132
       3     C     3.10610  3.10610  0.00000 -0.21221
       4     C     3.10686  3.10686  0.00000 -0.21371
       5     H     0.39392  0.39392  0.00000  0.21216
       6     C     3.08441  3.08441  0.00000 -0.16882
       7     H     0.39527  0.39527  0.00000  0.20947
       8     C     3.10238  3.10238  0.00000 -0.20476
       9     H     0.37457  0.37457  0.00000  0.25087
      10     C     3.07744  3.07744  0.00000 -0.15488
      11     H     0.37925  0.37925  0.00000  0.24150
      12     C     2.59026  2.59026  0.00000  0.81947
      13     O     4.31434  4.31434  0.00000 -0.62868
      14     O     4.26434  4.26434  0.00000 -0.52869
      15     C     3.10253  3.10253  0.00000 -0.20507
      16     H     0.40150  0.40150  0.00000  0.19699
      17     H     0.41657  0.41657  0.00000  0.16686
      18     H     0.40558  0.40558  0.00000  0.18884

   Total alpha = 36.00000, Total beta = 36.00000, Total charge =  0.00000


*** PSI4 exiting successfully. Buy a developer a beer!
