    -----------------------------------------------------------------------
          Psi4: An Open-Source Ab Initio Electronic Structure Package
                              Psi4 (no tag) Driver

                          Git: Rev {detached?}  

    J. M. Turney, A. C. Simmonett, R. M. Parrish, E. G. Hohenstein,
    F. A. Evangelista, J. T. Fermann, B. J. Mintz, L. A. Burns, J. J. Wilke,
    M. L. Abrams, N. J. Russ, M. L. Leininger, C. L. Janssen, E. T. Seidl,
    W. D. Allen, H. F. Schaefer, R. A. King, E. F. Valeev, C. D. Sherrill,
    and T. D. Crawford, WIREs Comput. Mol. Sci. 2, 556-565 (2012)
    (doi: 10.1002/wcms.93)

                         Additional Contributions by
    A. E. DePrince, M. Saitow, U. Bozkaya, A. Yu. Sokolov
    -----------------------------------------------------------------------


    Psi4 started on: Tue Jul  5 16:55:40 2016

    Process ID:  15104
    PSI4DATADIR: /export131/home/mjharvey/miniconda3/share
    Memory level set to 256.000 MB

  ==> Input File <==

--------------------------------------------------------------------------
set {
	reference rhf
	basis 6-31G*
}


set_num_threads( 1 )
memory 2 gb

molecule MOL {
0 1

H	 5.268524	 0.192471	 1.070992
C	 4.673736	 -0.214914	 0.259335
C	 3.185378	 -0.203514	 0.605509
H	 4.871837	 0.380453	 -0.627026
H	 5.025590	 -1.224632	 0.065769
C	 2.317601	 -0.778379	 -0.516234
H	 2.874655	 0.814325	 0.817774
H	 3.023650	 -0.778480	 1.515976
C	 0.827776	 -0.830009	 -0.177082
H	 2.453452	 -0.191913	 -1.418036
H	 2.651941	 -1.788503	 -0.741860
C	 0.147815	 0.530439	 -0.131509
H	 0.299943	 -1.415194	 -0.928561
H	 0.661586	 -1.345071	 0.766457
C	 -1.198138	 0.619760	 0.566450
O	 0.639467	 1.493008	 -0.639587
C	 -2.293322	 -0.232785	 -0.091501
H	 -1.486144	 1.664158	 0.566688
H	 -1.072303	 0.308035	 1.601669
C	 -3.656660	 -0.043709	 0.576458
H	 -2.369154	 0.031203	 -1.144200
H	 -2.021617	 -1.284534	 -0.053151
C	 -4.755047	 -0.887028	 -0.069503
H	 -3.934178	 1.006639	 0.533847
H	 -3.578182	 -0.297517	 1.631360
H	 -4.879091	 -0.632564	 -1.118114
H	 -4.522423	 -1.946577	 -0.011591
H	 -5.709135	 -0.730799	 0.423638

	symmetry c1
}
set optking {
	frozen_dihedral = ("
		12 15 17 21,
		16 12 15 17
	")
}

ee = energy('scf')
oeprop('DIPOLE', 'QUADRUPOLE', 'MULLIKEN_CHARGES')
f=open( 'psi4out.xyz', 'w' )
f.write( "28  " )
f.write( str(ee) + "\n" )
f.write( MOL.save_string_xyz() )
f.close()
--------------------------------------------------------------------------

  Memory set to   2.000 GiB by Python script.

*** tstart() called on cx1-3-4-4.cx1.hpc.ic.ac.uk
*** at Tue Jul  5 16:55:41 2016


         ---------------------------------------------------------
                                   SCF
            by Justin Turney, Rob Parrish, and Andy Simmonett
                              RHF Reference
                        1 Threads,   2000 MiB Core
         ---------------------------------------------------------

  ==> Geometry <==

    Molecular point group: c1
    Full point group: C1

    Geometry (in Angstrom), charge = 0, multiplicity = 1:

       Center              X                  Y                   Z               Mass       
    ------------   -----------------  -----------------  -----------------  -----------------
           H          5.277263969268     0.248025448223     1.035760444146     1.007825032070
           C          4.682475969268    -0.159359551777     0.224103444146    12.000000000000
           C          3.194117969268    -0.147959551777     0.570277444146    12.000000000000
           H          4.880576969268     0.436007448223    -0.662257555854     1.007825032070
           H          5.034329969268    -1.169077551777     0.030537444146     1.007825032070
           C          2.326340969268    -0.722824551777    -0.551465555854    12.000000000000
           H          2.883394969268     0.869879448223     0.782542444146     1.007825032070
           H          3.032389969268    -0.722925551777     1.480744444146     1.007825032070
           C          0.836515969268    -0.774454551777    -0.212313555854    12.000000000000
           H          2.462191969268    -0.136358551777    -1.453267555854     1.007825032070
           H          2.660680969268    -1.732948551777    -0.777091555854     1.007825032070
           C          0.156554969268     0.585993448223    -0.166740555854    12.000000000000
           H          0.308682969268    -1.359639551777    -0.963792555854     1.007825032070
           H          0.670325969268    -1.289516551777     0.731225444146     1.007825032070
           C         -1.189398030732     0.675314448223     0.531218444146    12.000000000000
           O          0.648206969268     1.548562448223    -0.674818555854    15.994914619560
           C         -2.284582030732    -0.177230551777    -0.126732555854    12.000000000000
           H         -1.477404030732     1.719712448223     0.531456444146     1.007825032070
           H         -1.063563030732     0.363589448223     1.566437444146     1.007825032070
           C         -3.647920030732     0.011845448223     0.541226444146    12.000000000000
           H         -2.360414030732     0.086757448223    -1.179431555854     1.007825032070
           H         -2.012877030732    -1.228979551777    -0.088382555854     1.007825032070
           C         -4.746307030732    -0.831473551777    -0.104734555854    12.000000000000
           H         -3.925438030732     1.062193448223     0.498615444146     1.007825032070
           H         -3.569442030732    -0.241962551777     1.596128444146     1.007825032070
           H         -4.870351030732    -0.577009551777    -1.153345555854     1.007825032070
           H         -4.513683030732    -1.891022551777    -0.046822555854     1.007825032070
           H         -5.700395030732    -0.675244551777     0.388406444146     1.007825032070

  Running in c1 symmetry.

  Rotational constants: A =      0.12916  B =      0.01355  C =      0.01303 [cm^-1]
  Rotational constants: A =   3872.16465  B =    406.28440  C =    390.59087 [MHz]
  Nuclear repulsion =  531.112077708224092

  Charge       = 0
  Multiplicity = 1
  Electrons    = 80
  Nalpha       = 40
  Nbeta        = 40

  ==> Algorithm <==

  SCF Algorithm Type is DF.
  DIIS enabled.
  MOM disabled.
  Fractional occupation disabled.
  Guess Type is CORE.
  Energy threshold   = 1.00e-06
  Density threshold  = 1.00e-06
  Integral threshold = 0.00e+00

  ==> Primary Basis <==

  Basis Set: 6-31G*
    Number of shells: 96
    Number of basis function: 186
    Number of Cartesian functions: 186
    Spherical Harmonics?: false
    Max angular momentum: 2

  ==> Pre-Iterations <==

   -------------------------------------------------------
    Irrep   Nso     Nmo     Nalpha   Nbeta   Ndocc  Nsocc
   -------------------------------------------------------
     A        186     186       0       0       0       0
   -------------------------------------------------------
    Total     186     186      40      40      40       0
   -------------------------------------------------------

 OEINTS: Overlap, kinetic, potential, dipole, and quadrupole integrals
         stored in file 35.

  ==> Integral Setup <==

  ==> DFJK: Density-Fitted J/K Matrices <==

    J tasked:                  Yes
    K tasked:                  Yes
    wK tasked:                  No
    OpenMP threads:              1
    Integrals threads:           1
    Memory (MB):              1430
    Algorithm:                Core
    Integral Cache:           NONE
    Schwarz Cutoff:          1E-12
    Fitting Condition:       1E-12

   => Auxiliary Basis Set <=

  Basis Set: 
    Number of shells: 402
    Number of basis function: 1260
    Number of Cartesian functions: 1260
    Spherical Harmonics?: false
    Max angular momentum: 3

  Minimum eigenvalue in the overlap matrix is 2.9794847947E-03.
  Using Symmetric Orthogonalization.
  SCF Guess: Core (One-Electron) Hamiltonian.

  ==> Iterations <==

                           Total Energy        Delta E     RMS |[F,P]|

   @DF-RHF iter   1:  -239.01130244244803   -2.39011e+02   7.17985e-02 
   @DF-RHF iter   2:  -124.23594839275904    1.14775e+02   7.66122e-02 DIIS
   @DF-RHF iter   3:  -372.39345541566979   -2.48158e+02   3.11396e-02 DIIS
   @DF-RHF iter   4:  -241.86367591383203    1.30530e+02   5.99048e-02 DIIS
   @DF-RHF iter   5:  -377.23183757221170   -1.35368e+02   3.29634e-02 DIIS
   @DF-RHF iter   6:  -425.29590689473639   -4.80641e+01   6.91904e-03 DIIS
   @DF-RHF iter   7:  -426.00354375926145   -7.07637e-01   3.15102e-03 DIIS
   @DF-RHF iter   8:  -426.15955172599058   -1.56008e-01   6.07245e-04 DIIS
   @DF-RHF iter   9:  -426.16715176255423   -7.60004e-03   3.04305e-04 DIIS
   @DF-RHF iter  10:  -426.16896763672423   -1.81587e-03   8.09092e-05 DIIS
   @DF-RHF iter  11:  -426.16917061244737   -2.02976e-04   2.17906e-05 DIIS
   @DF-RHF iter  12:  -426.16918967998515   -1.90675e-05   1.01491e-05 DIIS
   @DF-RHF iter  13:  -426.16919419797125   -4.51799e-06   3.26794e-06 DIIS
   @DF-RHF iter  14:  -426.16919499363269   -7.95661e-07   1.34178e-06 DIIS
   @DF-RHF iter  15:  -426.16919515955351   -1.65921e-07   6.74124e-07 DIIS

  ==> Post-Iterations <==

    Orbital Energies (a.u.)
    -----------------------

    Doubly Occupied:                                                      

       1A    -20.548068     2A    -11.322107     3A    -11.232465  
       4A    -11.229904     5A    -11.228826     6A    -11.226137  
       7A    -11.216462     8A    -11.216355     9A    -11.212333  
      10A    -11.205816    11A     -1.393170    12A     -1.095215  
      13A     -1.077405    14A     -1.022638    15A     -0.990750  
      16A     -0.907343    17A     -0.873247    18A     -0.809281  
      19A     -0.799727    20A     -0.722979    21A     -0.668925  
      22A     -0.653111    23A     -0.627717    24A     -0.619861  
      25A     -0.609318    26A     -0.587956    27A     -0.576975  
      28A     -0.575288    29A     -0.542765    30A     -0.532740  
      31A     -0.520279    32A     -0.506125    33A     -0.499854  
      34A     -0.484925    35A     -0.478863    36A     -0.475893  
      37A     -0.471744    38A     -0.465059    39A     -0.455172  
      40A     -0.392234  

    Virtual:                                                              

      41A      0.168978    42A      0.219609    43A      0.235339  
      44A      0.248738    45A      0.270632    46A      0.271407  
      47A      0.284048    48A      0.293628    49A      0.300343  
      50A      0.312738    51A      0.320356    52A      0.324777  
      53A      0.332761    54A      0.338150    55A      0.342361  
      56A      0.343172    57A      0.351471    58A      0.353602  
      59A      0.362923    60A      0.384868    61A      0.409522  
      62A      0.414472    63A      0.436530    64A      0.450720  
      65A      0.452314    66A      0.457671    67A      0.526089  
      68A      0.545176    69A      0.690980    70A      0.698247  
      71A      0.709938    72A      0.736409    73A      0.743781  
      74A      0.750724    75A      0.760764    76A      0.763854  
      77A      0.798982    78A      0.814319    79A      0.838988  
      80A      0.856698    81A      0.877598    82A      0.915289  
      83A      0.935326    84A      0.940587    85A      0.958908  
      86A      0.972331    87A      0.990397    88A      1.015066  
      89A      1.022889    90A      1.040219    91A      1.085923  
      92A      1.106588    93A      1.110890    94A      1.117424  
      95A      1.125949    96A      1.133854    97A      1.141482  
      98A      1.157810    99A      1.169945   100A      1.179695  
     101A      1.185340   102A      1.189424   103A      1.191268  
     104A      1.202792   105A      1.207067   106A      1.210694  
     107A      1.212470   108A      1.220951   109A      1.233683  
     110A      1.240583   111A      1.257433   112A      1.270549  
     113A      1.285102   114A      1.295551   115A      1.331845  
     116A      1.397402   117A      1.421355   118A      1.460082  
     119A      1.495412   120A      1.589268   121A      1.642598  
     122A      1.661880   123A      1.693412   124A      1.728044  
     125A      1.745784   126A      1.780146   127A      1.811461  
     128A      1.831962   129A      1.866174   130A      1.951566  
     131A      2.001506   132A      2.022664   133A      2.039960  
     134A      2.092595   135A      2.101445   136A      2.144156  
     137A      2.153571   138A      2.168293   139A      2.191755  
     140A      2.211643   141A      2.231965   142A      2.243544  
     143A      2.256411   144A      2.282688   145A      2.285909  
     146A      2.300836   147A      2.316675   148A      2.329555  
     149A      2.375428   150A      2.392091   151A      2.419434  
     152A      2.460578   153A      2.526921   154A      2.563702  
     155A      2.604510   156A      2.611308   157A      2.630272  
     158A      2.662212   159A      2.701503   160A      2.709647  
     161A      2.719539   162A      2.748580   163A      2.771767  
     164A      2.783058   165A      2.793792   166A      2.868826  
     167A      2.903125   168A      2.924016   169A      2.973668  
     170A      2.998457   171A      3.071567   172A      3.105377  
     173A      3.114826   174A      3.218725   175A      3.390499  
     176A      3.416080   177A      4.464141   178A      4.539391  
     179A      4.589219   180A      4.640867   181A      4.727532  
     182A      4.776475   183A      4.833110   184A      4.907471  
     185A      4.974622   186A      5.014431  

    Final Occupation by Irrep:
              A 
    DOCC [    40 ]

  Energy converged.

  @DF-RHF Final Energy:  -426.16919515955351

   => Energetics <=

    Nuclear Repulsion Energy =            531.1120777082240920
    One-Electron Energy =               -1630.4122920055299346
    Two-Electron Energy =                 673.1310191377506271
    DFT Exchange-Correlation Energy =       0.0000000000000000
    Empirical Dispersion Energy =           0.0000000000000000
    PCM Polarization Energy =               0.0000000000000000
    EFP Energy =                            0.0000000000000000
    Total Energy =                       -426.1691951595553292

    Alert: EFP and PCM quantities not currently incorporated into SCF psivars.

Properties will be evaluated at   0.000000,   0.000000,   0.000000 Bohr
  ==> Properties <==


Properties computed using the SCF density matrix

  Nuclear Dipole Moment: (a.u.)
     X:    -2.1378      Y:    -5.8410      Z:     2.1693

  Electronic Dipole Moment: (a.u.)
     X:     1.5460      Y:     4.9290      Z:    -1.7208

  Dipole Moment: (a.u.)
     X:    -0.5918      Y:    -0.9119      Z:     0.4485     Total:     1.1760

  Dipole Moment: (Debye)
     X:    -1.5043      Y:    -2.3179      Z:     1.1400     Total:     2.9892


  Saving occupied orbitals to File 180.

*** tstop() called on cx1-3-4-4.cx1.hpc.ic.ac.uk at Tue Jul  5 16:56:17 2016
Module time:
	user time   =      35.43 seconds =       0.59 minutes
	system time =       0.32 seconds =       0.01 minutes
	total time  =         36 seconds =       0.60 minutes
Total time:
	user time   =      35.43 seconds =       0.59 minutes
	system time =       0.32 seconds =       0.01 minutes
	total time  =         36 seconds =       0.60 minutes


Properties will be evaluated at   0.000000,   0.000000,   0.000000 Bohr

Properties computed using the  density matrix

  Nuclear Dipole Moment: (a.u.)
     X:    -2.1378      Y:    -5.8410      Z:     2.1693

  Electronic Dipole Moment: (a.u.)
     X:     1.5460      Y:     4.9290      Z:    -1.7208

  Dipole Moment: (a.u.)
     X:    -0.5918      Y:    -0.9119      Z:     0.4485     Total:     1.1760

  Dipole Moment: (Debye)
     X:    -1.5043      Y:    -2.3179      Z:     1.1400     Total:     2.9892

  Quadrupole Moment: (Debye Ang)
    XX:   -64.5164     YY:   -69.4031     ZZ:   -65.2681
    XY:    -2.5016     XZ:     0.6613     YZ:     2.2025

  Traceless Quadrupole Moment: (Debye Ang)
    XX:     1.8795     YY:    -3.0073     ZZ:     1.1278
    XY:    -2.5016     XZ:     0.6613     YZ:     2.2025

  Mulliken Charges: (a.u.)
   Center  Symbol    Alpha    Beta     Spin     Total
       1     H     0.41932  0.41932  0.00000  0.16137
       2     C     3.24009  3.24009  0.00000 -0.48018
       3     C     3.15661  3.15661  0.00000 -0.31322
       4     H     0.41845  0.41845  0.00000  0.16309
       5     H     0.42361  0.42361  0.00000  0.15278
       6     C     3.14914  3.14914  0.00000 -0.29828
       7     H     0.41011  0.41011  0.00000  0.17977
       8     H     0.42779  0.42779  0.00000  0.14442
       9     C     3.21205  3.21205  0.00000 -0.42410
      10     H     0.40654  0.40654  0.00000  0.18691
      11     H     0.42196  0.42196  0.00000  0.15607
      12     C     2.73136  2.73136  0.00000  0.53728
      13     H     0.40282  0.40282  0.00000  0.19435
      14     H     0.41323  0.41323  0.00000  0.17354
      15     C     3.20159  3.20159  0.00000 -0.40318
      16     O     4.26679  4.26679  0.00000 -0.53358
      17     C     3.16383  3.16383  0.00000 -0.32766
      18     H     0.39981  0.39981  0.00000  0.20037
      19     H     0.41287  0.41287  0.00000  0.17426
      20     C     3.15182  3.15182  0.00000 -0.30363
      21     H     0.41379  0.41379  0.00000  0.17242
      22     H     0.41860  0.41860  0.00000  0.16280
      23     C     3.24033  3.24033  0.00000 -0.48066
      24     H     0.41838  0.41838  0.00000  0.16325
      25     H     0.42143  0.42143  0.00000  0.15714
      26     H     0.41960  0.41960  0.00000  0.16079
      27     H     0.42120  0.42120  0.00000  0.15760
      28     H     0.41687  0.41687  0.00000  0.16626

   Total alpha = 40.00000, Total beta = 40.00000, Total charge = -0.00000


*** PSI4 exiting successfully. Buy a developer a beer!
