    -----------------------------------------------------------------------
          Psi4: An Open-Source Ab Initio Electronic Structure Package
                              Psi4 (no tag) Driver

                          Git: Rev {detached?}  

    J. M. Turney, A. C. Simmonett, R. M. Parrish, E. G. Hohenstein,
    F. A. Evangelista, J. T. Fermann, B. J. Mintz, L. A. Burns, J. J. Wilke,
    M. L. Abrams, N. J. Russ, M. L. Leininger, C. L. Janssen, E. T. Seidl,
    W. D. Allen, H. F. Schaefer, R. A. King, E. F. Valeev, C. D. Sherrill,
    and T. D. Crawford, WIREs Comput. Mol. Sci. 2, 556-565 (2012)
    (doi: 10.1002/wcms.93)

                         Additional Contributions by
    A. E. DePrince, M. Saitow, U. Bozkaya, A. Yu. Sokolov
    -----------------------------------------------------------------------


    Psi4 started on: Tue Jul  5 16:21:49 2016

    Process ID:  19337
    PSI4DATADIR: /export131/home/mjharvey/miniconda3/share
    Memory level set to 256.000 MB

  ==> Input File <==

--------------------------------------------------------------------------
set {
	reference rhf
	basis 6-31G*
}


set_num_threads( 1 )
memory 2 gb

molecule MOL {
0 1

H	 -0.923598	 -1.264880	 0.096107
N	 -1.172117	 -0.314371	 -0.100254
C	 -0.024542	 0.565565	 0.069209
H	 -1.496233	 -0.289328	 -1.048620
C	 1.271298	 -0.229563	 -0.014192
H	 -0.049409	 1.297310	 -0.731596
H	 -0.046881	 1.125219	 1.006750
H	 1.332152	 -0.753033	 -0.961461
H	 2.134169	 0.422483	 0.080702
H	 1.326077	 -0.968298	 0.781395

	symmetry c1
}
ee = energy('scf')
oeprop('DIPOLE', 'QUADRUPOLE', 'MULLIKEN_CHARGES')
f=open( 'psi4out.xyz', 'w' )
f.write( "10  " )
f.write( str(ee) + "\n" )
f.write( MOL.save_string_xyz() )
f.close()
--------------------------------------------------------------------------

  Memory set to   2.000 GiB by Python script.

*** tstart() called on cx1-3-15-2.cx1.hpc.ic.ac.uk
*** at Tue Jul  5 16:21:49 2016


         ---------------------------------------------------------
                                   SCF
            by Justin Turney, Rob Parrish, and Andy Simmonett
                              RHF Reference
                        1 Threads,   2000 MiB Core
         ---------------------------------------------------------

  ==> Geometry <==

    Molecular point group: c1
    Full point group: C1

    Geometry (in Angstrom), charge = 0, multiplicity = 1:

       Center              X                  Y                   Z               Mass       
    ------------   -----------------  -----------------  -----------------  -----------------
           H         -0.942283309256    -1.247035556040     0.129984805749     1.007825032070
           N         -1.190802309256    -0.296526556040    -0.066376194251    14.003074004780
           C         -0.043227309256     0.583409443960     0.103086805749    12.000000000000
           H         -1.514918309256    -0.271483556040    -1.014742194251     1.007825032070
           C          1.252612690744    -0.211718556040     0.019685805749    12.000000000000
           H         -0.068094309256     1.315154443960    -0.697718194251     1.007825032070
           H         -0.065566309256     1.143063443960     1.040627805749     1.007825032070
           H          1.313466690744    -0.735188556040    -0.927583194251     1.007825032070
           H          2.115483690744     0.440327443960     0.114579805749     1.007825032070
           H          1.307391690744    -0.950453556040     0.815272805749     1.007825032070

  Running in c1 symmetry.

  Rotational constants: A =      1.03201  B =      0.31116  C =      0.26992 [cm^-1]
  Rotational constants: A =  30938.93453  B =   9328.33524  C =   8092.11838 [MHz]
  Nuclear repulsion =   83.685753738621059

  Charge       = 0
  Multiplicity = 1
  Electrons    = 26
  Nalpha       = 13
  Nbeta        = 13

  ==> Algorithm <==

  SCF Algorithm Type is DF.
  DIIS enabled.
  MOM disabled.
  Fractional occupation disabled.
  Guess Type is CORE.
  Energy threshold   = 1.00e-06
  Density threshold  = 1.00e-06
  Integral threshold = 0.00e+00

  ==> Primary Basis <==

  Basis Set: 6-31G*
    Number of shells: 32
    Number of basis function: 59
    Number of Cartesian functions: 59
    Spherical Harmonics?: false
    Max angular momentum: 2

  ==> Pre-Iterations <==

   -------------------------------------------------------
    Irrep   Nso     Nmo     Nalpha   Nbeta   Ndocc  Nsocc
   -------------------------------------------------------
     A         59      59       0       0       0       0
   -------------------------------------------------------
    Total      59      59      13      13      13       0
   -------------------------------------------------------

 OEINTS: Overlap, kinetic, potential, dipole, and quadrupole integrals
         stored in file 35.

  ==> Integral Setup <==

  ==> DFJK: Density-Fitted J/K Matrices <==

    J tasked:                  Yes
    K tasked:                  Yes
    wK tasked:                  No
    OpenMP threads:              1
    Integrals threads:           1
    Memory (MB):              1430
    Algorithm:                Core
    Integral Cache:           NONE
    Schwarz Cutoff:          1E-12
    Fitting Condition:       1E-12

   => Auxiliary Basis Set <=

  Basis Set: 
    Number of shells: 135
    Number of basis function: 418
    Number of Cartesian functions: 418
    Spherical Harmonics?: false
    Max angular momentum: 3

  Minimum eigenvalue in the overlap matrix is 5.7063200259E-03.
  Using Symmetric Orthogonalization.
  SCF Guess: Core (One-Electron) Hamiltonian.

  ==> Iterations <==

                           Total Energy        Delta E     RMS |[F,P]|

   @DF-RHF iter   1:  -108.77492748164829   -1.08775e+02   9.47168e-02 
   @DF-RHF iter   2:  -108.90570358443492   -1.30776e-01   6.45880e-02 DIIS
   @DF-RHF iter   3:  -117.70387534554638   -8.79817e+00   6.84459e-02 DIIS
   @DF-RHF iter   4:  -133.64803305150835   -1.59442e+01   1.74753e-02 DIIS
   @DF-RHF iter   5:  -134.14885384307104   -5.00821e-01   6.88379e-03 DIIS
   @DF-RHF iter   6:  -134.22985214314045   -8.09983e-02   2.15666e-03 DIIS
   @DF-RHF iter   7:  -134.24210592320341   -1.22538e-02   4.56898e-04 DIIS
   @DF-RHF iter   8:  -134.24281885747396   -7.12934e-04   9.57413e-05 DIIS
   @DF-RHF iter   9:  -134.24285594582119   -3.70883e-05   3.03279e-05 DIIS
   @DF-RHF iter  10:  -134.24285860807117   -2.66225e-06   8.89545e-06 DIIS
   @DF-RHF iter  11:  -134.24285880243906   -1.94368e-07   2.30002e-06 DIIS
   @DF-RHF iter  12:  -134.24285881781424   -1.53752e-08   3.80092e-07 DIIS

  ==> Post-Iterations <==

    Orbital Energies (a.u.)
    -----------------------

    Doubly Occupied:                                                      

       1A    -15.530883     2A    -11.243391     3A    -11.211566  
       4A     -1.177906     5A     -0.987892     6A     -0.831829  
       7A     -0.669961     8A     -0.607031     9A     -0.588494  
      10A     -0.539968    11A     -0.511490    12A     -0.487722  
      13A     -0.376888  

    Virtual:                                                              

      14A      0.223999    15A      0.275929    16A      0.282615  
      17A      0.307721    18A      0.322178    19A      0.337694  
      20A      0.357470    21A      0.427285    22A      0.448006  
      23A      0.729985    24A      0.749900    25A      0.797416  
      26A      0.815779    27A      0.881047    28A      0.931524  
      29A      1.011412    30A      1.071056    31A      1.100059  
      32A      1.151785    33A      1.175298    34A      1.197297  
      35A      1.222929    36A      1.234218    37A      1.238854  
      38A      1.253057    39A      1.277451    40A      1.612356  
      41A      1.679834    42A      1.738190    43A      1.811585  
      44A      2.080667    45A      2.218464    46A      2.250872  
      47A      2.335860    48A      2.389905    49A      2.454428  
      50A      2.536841    51A      2.671267    52A      2.691990  
      53A      2.784209    54A      2.822683    55A      2.986533  
      56A      3.084942    57A      4.212985    58A      4.624119  
      59A      4.846358  

    Final Occupation by Irrep:
              A 
    DOCC [    13 ]

  Energy converged.

  @DF-RHF Final Energy:  -134.24285881781424

   => Energetics <=

    Nuclear Repulsion Energy =             83.6857537386210595
    One-Electron Energy =                -346.3271790407977733
    Two-Electron Energy =                 128.3985664843623908
    DFT Exchange-Correlation Energy =       0.0000000000000000
    Empirical Dispersion Energy =           0.0000000000000000
    PCM Polarization Energy =               0.0000000000000000
    EFP Energy =                            0.0000000000000000
    Total Energy =                       -134.2428588178142945

    Alert: EFP and PCM quantities not currently incorporated into SCF psivars.

Properties will be evaluated at   0.000000,   0.000000,   0.000000 Bohr
  ==> Properties <==


Properties computed using the SCF density matrix

  Nuclear Dipole Moment: (a.u.)
     X:     2.0148      Y:    -0.2856      Z:    -0.5056

  Electronic Dipole Moment: (a.u.)
     X:    -1.5807      Y:     0.1030      Z:     0.0922

  Dipole Moment: (a.u.)
     X:     0.4341      Y:    -0.1826      Z:    -0.4134     Total:     0.6267

  Dipole Moment: (Debye)
     X:     1.1033      Y:    -0.4642      Z:    -1.0508     Total:     1.5928


  Saving occupied orbitals to File 180.

*** tstop() called on cx1-3-15-2.cx1.hpc.ic.ac.uk at Tue Jul  5 16:21:51 2016
Module time:
	user time   =       1.63 seconds =       0.03 minutes
	system time =       0.02 seconds =       0.00 minutes
	total time  =          2 seconds =       0.03 minutes
Total time:
	user time   =       1.63 seconds =       0.03 minutes
	system time =       0.02 seconds =       0.00 minutes
	total time  =          2 seconds =       0.03 minutes


Properties will be evaluated at   0.000000,   0.000000,   0.000000 Bohr

Properties computed using the  density matrix

  Nuclear Dipole Moment: (a.u.)
     X:     2.0148      Y:    -0.2856      Z:    -0.5056

  Electronic Dipole Moment: (a.u.)
     X:    -1.5807      Y:     0.1030      Z:     0.0922

  Dipole Moment: (a.u.)
     X:     0.4341      Y:    -0.1826      Z:    -0.4134     Total:     0.6267

  Dipole Moment: (Debye)
     X:     1.1033      Y:    -0.4642      Z:    -1.0508     Total:     1.5928

  Quadrupole Moment: (Debye Ang)
    XX:   -24.2063     YY:   -19.2389     ZZ:   -19.7592
    XY:     0.8476     XZ:     2.3540     YZ:    -0.0357

  Traceless Quadrupole Moment: (Debye Ang)
    XX:    -3.1382     YY:     1.8293     ZZ:     1.3089
    XY:     0.8476     XZ:     2.3540     YZ:    -0.0357

  Mulliken Charges: (a.u.)
   Center  Symbol    Alpha    Beta     Spin     Total
       1     H     0.33282  0.33282  0.00000  0.33436
       2     N     3.92258  3.92258  0.00000 -0.84515
       3     C     3.05516  3.05516  0.00000 -0.11032
       4     H     0.33258  0.33258  0.00000  0.33484
       5     C     3.25018  3.25018  0.00000 -0.50036
       6     H     0.42342  0.42342  0.00000  0.15317
       7     H     0.41907  0.41907  0.00000  0.16185
       8     H     0.42283  0.42283  0.00000  0.15434
       9     H     0.42043  0.42043  0.00000  0.15913
      10     H     0.42093  0.42093  0.00000  0.15814

   Total alpha = 13.00000, Total beta = 13.00000, Total charge = -0.00000


*** PSI4 exiting successfully. Buy a developer a beer!
