    -----------------------------------------------------------------------
          Psi4: An Open-Source Ab Initio Electronic Structure Package
                              Psi4 (no tag) Driver

                          Git: Rev {detached?}  

    J. M. Turney, A. C. Simmonett, R. M. Parrish, E. G. Hohenstein,
    F. A. Evangelista, J. T. Fermann, B. J. Mintz, L. A. Burns, J. J. Wilke,
    M. L. Abrams, N. J. Russ, M. L. Leininger, C. L. Janssen, E. T. Seidl,
    W. D. Allen, H. F. Schaefer, R. A. King, E. F. Valeev, C. D. Sherrill,
    and T. D. Crawford, WIREs Comput. Mol. Sci. 2, 556-565 (2012)
    (doi: 10.1002/wcms.93)

                         Additional Contributions by
    A. E. DePrince, M. Saitow, U. Bozkaya, A. Yu. Sokolov
    -----------------------------------------------------------------------


    Psi4 started on: Tue Jul  5 17:15:48 2016

    Process ID:  26973
    PSI4DATADIR: /export131/home/mjharvey/miniconda3/share
    Memory level set to 256.000 MB

  ==> Input File <==

--------------------------------------------------------------------------
set {
	reference rhf
	basis 6-31G*
}


set_num_threads( 1 )
memory 2 gb

molecule MOL {
0 1

H	 -3.855507	 -1.396950	 1.310901
C	 -2.783801	 -1.419700	 1.223082
C	 -2.041380	 -2.263260	 2.035710
C	 -2.149469	 -0.605652	 0.297942
H	 -2.534578	 -2.894075	 2.752784
C	 -0.663419	 -2.291954	 1.922209
H	 -2.726631	 0.047612	 -0.331134
C	 -0.770219	 -0.632700	 0.182570
H	 -0.072895	 -2.938422	 2.542720
C	 -0.023295	 -1.477045	 0.995556
H	 -0.275185	 -0.004460	 -0.531977
C	 1.463013	 -1.545621	 0.912827
O	 1.895209	 -2.111674	 -0.204041
O	 2.196204	 -1.136759	 1.757884
C	 3.283916	 -2.024493	 -0.469680
H	 3.550659	 -2.660232	 -1.301232
H	 3.776615	 -2.357579	 0.430407
H	 3.562683	 -1.005590	 -0.695609

	symmetry c1
}
set optking {
	frozen_dihedral = ("
		12 13 15 16,
		10 12 13 15
	")
}

ee = energy('scf')
oeprop('DIPOLE', 'QUADRUPOLE', 'MULLIKEN_CHARGES')
f=open( 'psi4out.xyz', 'w' )
f.write( "18  " )
f.write( str(ee) + "\n" )
f.write( MOL.save_string_xyz() )
f.close()
--------------------------------------------------------------------------

  Memory set to   2.000 GiB by Python script.

*** tstart() called on cx1-3-5-2.cx1.hpc.ic.ac.uk
*** at Tue Jul  5 17:15:48 2016


         ---------------------------------------------------------
                                   SCF
            by Justin Turney, Rob Parrish, and Andy Simmonett
                              RHF Reference
                        1 Threads,   2000 MiB Core
         ---------------------------------------------------------

  ==> Geometry <==

    Molecular point group: c1
    Full point group: C1

    Geometry (in Angstrom), charge = 0, multiplicity = 1:

       Center              X                  Y                   Z               Mass       
    ------------   -----------------  -----------------  -----------------  -----------------
           H         -4.022077098181     0.164187655274     0.471035643650     1.007825032070
           C         -2.950371098181     0.141437655274     0.383216643650    12.000000000000
           C         -2.207950098181    -0.702122344726     1.195844643650    12.000000000000
           C         -2.316039098181     0.955485655274    -0.541923356350    12.000000000000
           H         -2.701148098181    -1.332937344726     1.912918643650     1.007825032070
           C         -0.829989098181    -0.730816344726     1.082343643650    12.000000000000
           H         -2.893201098181     1.608749655274    -1.170999356350     1.007825032070
           C         -0.936789098181     0.928437655274    -0.657295356350    12.000000000000
           H         -0.239465098181    -1.377284344726     1.702854643650     1.007825032070
           C         -0.189865098181     0.084092655274     0.155690643650    12.000000000000
           H         -0.441755098181     1.556677655274    -1.371842356350     1.007825032070
           C          1.296442901819     0.015516655274     0.072961643650    12.000000000000
           O          1.728638901819    -0.550536344726    -1.043906356350    15.994914619560
           O          2.029633901819     0.424378655274     0.918018643650    15.994914619560
           C          3.117345901819    -0.463355344726    -1.309545356350    12.000000000000
           H          3.384088901819    -1.099094344726    -2.141097356350     1.007825032070
           H          3.610044901819    -0.796441344726    -0.409458356350     1.007825032070
           H          3.396112901819     0.555547655274    -1.535474356350     1.007825032070

  Running in c1 symmetry.

  Rotational constants: A =      0.11788  B =      0.02680  C =      0.02439 [cm^-1]
  Rotational constants: A =   3533.93109  B =    803.36778  C =    731.06539 [MHz]
  Nuclear repulsion =  491.813279307543269

  Charge       = 0
  Multiplicity = 1
  Electrons    = 72
  Nalpha       = 36
  Nbeta        = 36

  ==> Algorithm <==

  SCF Algorithm Type is DF.
  DIIS enabled.
  MOM disabled.
  Fractional occupation disabled.
  Guess Type is CORE.
  Energy threshold   = 1.00e-06
  Density threshold  = 1.00e-06
  Integral threshold = 0.00e+00

  ==> Primary Basis <==

  Basis Set: 6-31G*
    Number of shells: 76
    Number of basis function: 166
    Number of Cartesian functions: 166
    Spherical Harmonics?: false
    Max angular momentum: 2

  ==> Pre-Iterations <==

   -------------------------------------------------------
    Irrep   Nso     Nmo     Nalpha   Nbeta   Ndocc  Nsocc
   -------------------------------------------------------
     A        166     166       0       0       0       0
   -------------------------------------------------------
    Total     166     166      36      36      36       0
   -------------------------------------------------------

 OEINTS: Overlap, kinetic, potential, dipole, and quadrupole integrals
         stored in file 35.

  ==> Integral Setup <==

  ==> DFJK: Density-Fitted J/K Matrices <==

    J tasked:                  Yes
    K tasked:                  Yes
    wK tasked:                  No
    OpenMP threads:              1
    Integrals threads:           1
    Memory (MB):              1430
    Algorithm:                Core
    Integral Cache:           NONE
    Schwarz Cutoff:          1E-12
    Fitting Condition:       1E-12

   => Auxiliary Basis Set <=

  Basis Set: 
    Number of shells: 312
    Number of basis function: 1010
    Number of Cartesian functions: 1010
    Spherical Harmonics?: false
    Max angular momentum: 3

  Minimum eigenvalue in the overlap matrix is 4.3577130145E-04.
  Using Symmetric Orthogonalization.
  SCF Guess: Core (One-Electron) Hamiltonian.

  ==> Iterations <==

                           Total Energy        Delta E     RMS |[F,P]|

   @DF-RHF iter   1:  -346.12210727935741   -3.46122e+02   6.61844e-02 
   @DF-RHF iter   2:  -303.07730237325637    4.30448e+01   5.66518e-02 DIIS
   @DF-RHF iter   3:  -393.10380988959417   -9.00265e+01   4.88134e-02 DIIS
   @DF-RHF iter   4:  -418.81926186249683   -2.57155e+01   4.16754e-02 DIIS
   @DF-RHF iter   5:  -418.89452270595422   -7.52608e-02   3.50843e-02 DIIS
   @DF-RHF iter   6:  -456.75627791623657   -3.78618e+01   6.41548e-03 DIIS
   @DF-RHF iter   7:  -457.16756093108523   -4.11283e-01   3.81518e-03 DIIS
   @DF-RHF iter   8:  -457.32796019128904   -1.60399e-01   6.92008e-04 DIIS
   @DF-RHF iter   9:  -457.33472081290330   -6.76062e-03   3.22724e-04 DIIS
   @DF-RHF iter  10:  -457.33648221382333   -1.76140e-03   1.03224e-04 DIIS
   @DF-RHF iter  11:  -457.33679309786186   -3.10884e-04   4.38948e-05 DIIS
   @DF-RHF iter  12:  -457.33684622493621   -5.31271e-05   1.40215e-05 DIIS
   @DF-RHF iter  13:  -457.33685319167256   -6.96674e-06   4.08236e-06 DIIS
   @DF-RHF iter  14:  -457.33685404823876   -8.56566e-07   2.02672e-06 DIIS
   @DF-RHF iter  15:  -457.33685423826370   -1.90025e-07   9.16709e-07 DIIS

  ==> Post-Iterations <==

    Orbital Energies (a.u.)
    -----------------------

    Doubly Occupied:                                                      

       1A    -20.608000     2A    -20.549721     3A    -11.381013  
       4A    -11.282557     5A    -11.251669     6A    -11.245715  
       7A    -11.243686     8A    -11.241635     9A    -11.240231  
      10A    -11.239458    11A     -1.474329    12A     -1.365697  
      13A     -1.166727    14A     -1.049223    15A     -1.026659  
      16A     -0.978723    17A     -0.861394    18A     -0.838862  
      19A     -0.779349    20A     -0.737791    21A     -0.686366  
      22A     -0.680524    23A     -0.675708    24A     -0.632900  
      25A     -0.629908    26A     -0.598451    27A     -0.594454  
      28A     -0.548757    29A     -0.532146    30A     -0.514059  
      31A     -0.507971    32A     -0.501552    33A     -0.458269  
      34A     -0.445406    35A     -0.343451    36A     -0.342056  

    Virtual:                                                              

      37A      0.127089    38A      0.137841    39A      0.201207  
      40A      0.232042    41A      0.261014    42A      0.286947  
      43A      0.293147    44A      0.312329    45A      0.326363  
      46A      0.328179    47A      0.332346    48A      0.338346  
      49A      0.363651    50A      0.418957    51A      0.463597  
      52A      0.472812    53A      0.517444    54A      0.523058  
      55A      0.551435    56A      0.589386    57A      0.649251  
      58A      0.728541    59A      0.736694    60A      0.740816  
      61A      0.747361    62A      0.766899    63A      0.774164  
      64A      0.784653    65A      0.804700    66A      0.814659  
      67A      0.819680    68A      0.833148    69A      0.838347  
      70A      0.869054    71A      0.877581    72A      0.899080  
      73A      0.904982    74A      0.940171    75A      0.972905  
      76A      0.996241    77A      1.007863    78A      1.077901  
      79A      1.101693    80A      1.108748    81A      1.112489  
      82A      1.117598    83A      1.125883    84A      1.131974  
      85A      1.142980    86A      1.170843    87A      1.203309  
      88A      1.209760    89A      1.213988    90A      1.236977  
      91A      1.261780    92A      1.291530    93A      1.310024  
      94A      1.345669    95A      1.371628    96A      1.377202  
      97A      1.401927    98A      1.444992    99A      1.463164  
     100A      1.489326   101A      1.506129   102A      1.640331  
     103A      1.662792   104A      1.667811   105A      1.701007  
     106A      1.748175   107A      1.758246   108A      1.777490  
     109A      1.782716   110A      1.788917   111A      1.831398  
     112A      1.929419   113A      1.970961   114A      1.991848  
     115A      2.056406   116A      2.084806   117A      2.108480  
     118A      2.162742   119A      2.172136   120A      2.184442  
     121A      2.203629   122A      2.249862   123A      2.316585  
     124A      2.344678   125A      2.360877   126A      2.397083  
     127A      2.409015   128A      2.422216   129A      2.434011  
     130A      2.461244   131A      2.470184   132A      2.485620  
     133A      2.516456   134A      2.598228   135A      2.608712  
     136A      2.634835   137A      2.643620   138A      2.674395  
     139A      2.708150   140A      2.793136   141A      2.865466  
     142A      2.917205   143A      2.935563   144A      2.979814  
     145A      3.048770   146A      3.067350   147A      3.099233  
     148A      3.108221   149A      3.133006   150A      3.178586  
     151A      3.189816   152A      3.346770   153A      3.386428  
     154A      3.491405   155A      3.565152   156A      3.829683  
     157A      4.442620   158A      4.519126   159A      4.525122  
     160A      4.538588   161A      4.613865   162A      4.651674  
     163A      4.737841   164A      4.780213   165A      4.885918  
     166A      5.162996  

    Final Occupation by Irrep:
              A 
    DOCC [    36 ]

  Energy converged.

  @DF-RHF Final Energy:  -457.33685423826370

   => Energetics <=

    Nuclear Repulsion Energy =            491.8132793075432687
    One-Electron Energy =               -1597.7918523661141990
    Two-Electron Energy =                 648.6417188203072328
    DFT Exchange-Correlation Energy =       0.0000000000000000
    Empirical Dispersion Energy =           0.0000000000000000
    PCM Polarization Energy =               0.0000000000000000
    EFP Energy =                            0.0000000000000000
    Total Energy =                       -457.3368542382636406

    Alert: EFP and PCM quantities not currently incorporated into SCF psivars.

Properties will be evaluated at   0.000000,   0.000000,   0.000000 Bohr
  ==> Properties <==


Properties computed using the SCF density matrix

  Nuclear Dipole Moment: (a.u.)
     X:     0.1049      Y:    -0.6761      Z:    -2.3837

  Electronic Dipole Moment: (a.u.)
     X:    -0.4986      Y:     0.4458      Z:     1.7108

  Dipole Moment: (a.u.)
     X:    -0.3937      Y:    -0.2304      Z:    -0.6730     Total:     0.8130

  Dipole Moment: (Debye)
     X:    -1.0008      Y:    -0.5856      Z:    -1.7105     Total:     2.0665


  Saving occupied orbitals to File 180.

*** tstop() called on cx1-3-5-2.cx1.hpc.ic.ac.uk at Tue Jul  5 17:16:11 2016
Module time:
	user time   =      22.21 seconds =       0.37 minutes
	system time =       0.22 seconds =       0.00 minutes
	total time  =         23 seconds =       0.38 minutes
Total time:
	user time   =      22.21 seconds =       0.37 minutes
	system time =       0.22 seconds =       0.00 minutes
	total time  =         23 seconds =       0.38 minutes


Properties will be evaluated at   0.000000,   0.000000,   0.000000 Bohr

Properties computed using the  density matrix

  Nuclear Dipole Moment: (a.u.)
     X:     0.1049      Y:    -0.6761      Z:    -2.3837

  Electronic Dipole Moment: (a.u.)
     X:    -0.4986      Y:     0.4458      Z:     1.7108

  Dipole Moment: (a.u.)
     X:    -0.3937      Y:    -0.2304      Z:    -0.6730     Total:     0.8130

  Dipole Moment: (Debye)
     X:    -1.0008      Y:    -0.5856      Z:    -1.7105     Total:     2.0665

  Quadrupole Moment: (Debye Ang)
    XX:   -49.1765     YY:   -56.9825     ZZ:   -58.0896
    XY:    -3.0672     XZ:    -7.4025     YZ:    -6.1016

  Traceless Quadrupole Moment: (Debye Ang)
    XX:     5.5731     YY:    -2.2330     ZZ:    -3.3401
    XY:    -3.0672     XZ:    -7.4025     YZ:    -6.1016

  Mulliken Charges: (a.u.)
   Center  Symbol    Alpha    Beta     Spin     Total
       1     H     0.39640  0.39640  0.00000  0.20719
       2     C     3.09669  3.09669  0.00000 -0.19338
       3     C     3.10023  3.10023  0.00000 -0.20047
       4     C     3.10102  3.10102  0.00000 -0.20205
       5     H     0.39528  0.39528  0.00000  0.20944
       6     C     3.09766  3.09766  0.00000 -0.19533
       7     H     0.39552  0.39552  0.00000  0.20896
       8     C     3.09470  3.09470  0.00000 -0.18940
       9     H     0.38838  0.38838  0.00000  0.22324
      10     C     3.01251  3.01251  0.00000 -0.02502
      11     H     0.39160  0.39160  0.00000  0.21681
      12     C     2.63844  2.63844  0.00000  0.72312
      13     O     4.29769  4.29769  0.00000 -0.59537
      14     O     4.27711  4.27711  0.00000 -0.55422
      15     C     3.09625  3.09625  0.00000 -0.19250
      16     H     0.40582  0.40582  0.00000  0.18837
      17     H     0.40259  0.40259  0.00000  0.19482
      18     H     0.41211  0.41211  0.00000  0.17577

   Total alpha = 36.00000, Total beta = 36.00000, Total charge =  0.00000


*** PSI4 exiting successfully. Buy a developer a beer!
