    -----------------------------------------------------------------------
          Psi4: An Open-Source Ab Initio Electronic Structure Package
                              Psi4 (no tag) Driver

                          Git: Rev {detached?}  

    J. M. Turney, A. C. Simmonett, R. M. Parrish, E. G. Hohenstein,
    F. A. Evangelista, J. T. Fermann, B. J. Mintz, L. A. Burns, J. J. Wilke,
    M. L. Abrams, N. J. Russ, M. L. Leininger, C. L. Janssen, E. T. Seidl,
    W. D. Allen, H. F. Schaefer, R. A. King, E. F. Valeev, C. D. Sherrill,
    and T. D. Crawford, WIREs Comput. Mol. Sci. 2, 556-565 (2012)
    (doi: 10.1002/wcms.93)

                         Additional Contributions by
    A. E. DePrince, M. Saitow, U. Bozkaya, A. Yu. Sokolov
    -----------------------------------------------------------------------


    Psi4 started on: Tue Jul 26 13:33:20 2016

    Process ID:  12020
    PSI4DATADIR: /export131/home/mjharvey/miniconda3/share
    Memory level set to 256.000 MB

  ==> Input File <==

--------------------------------------------------------------------------
set {
	reference rhf
	basis 6-31G*
}


set_num_threads( 24 )
memory 2 gb

molecule MOL {
0 1

H	 -2.463887	 -1.404751	 3.174456
C	 -2.393282	 -1.145213	 2.135980
C	 -1.224516	 -1.150904	 1.538115
H	 -3.292956	 -0.884230	 1.609638
O	 -0.096546	 -0.714635	 2.157723
H	 -1.086834	 -1.516482	 0.536303
C	 1.059934	 -0.588664	 1.403988
C	 1.723089	 -1.927340	 1.170093
H	 1.785271	 0.070290	 1.868354
H	 0.783538	 -0.183582	 0.442201
F	 0.793509	 -2.859452	 1.018346
F	 2.467106	 -1.921847	 0.076787
F	 2.492098	 -2.281472	 2.178322

	symmetry c1
}
set optking {
	frozen_dihedral = ("
		11 8 7 9,
		3 5 7 9,
		6 3 5 7
	")
}

ee = energy('scf')
oeprop('DIPOLE', 'QUADRUPOLE', 'MULLIKEN_CHARGES')
f=open( 'psi4out.xyz', 'w' )
f.write( "13  " )
f.write( str(ee) + "\n" )
f.write( MOL.save_string_xyz() )
f.close()
--------------------------------------------------------------------------

  Memory set to   2.000 GiB by Python script.

*** tstart() called on cx1b.hpc.ic.ac.uk
*** at Tue Jul 26 13:33:20 2016


         ---------------------------------------------------------
                                   SCF
            by Justin Turney, Rob Parrish, and Andy Simmonett
                              RHF Reference
                       24 Threads,   2000 MiB Core
         ---------------------------------------------------------

  ==> Geometry <==

    Molecular point group: c1
    Full point group: C1

    Geometry (in Angstrom), charge = 0, multiplicity = 1:

       Center              X                  Y                   Z               Mass       
    ------------   -----------------  -----------------  -----------------  -----------------
           H         -3.205163311699     0.240158966782     1.751200760383     1.007825032070
           C         -3.134558311699     0.499696966782     0.712724760383    12.000000000000
           C         -1.965792311699     0.494005966782     0.114859760383    12.000000000000
           H         -4.034232311699     0.760679966782     0.186382760383     1.007825032070
           O         -0.837822311699     0.930274966782     0.734467760383    15.994914619560
           H         -1.828110311699     0.128427966782    -0.886952239617     1.007825032070
           C          0.318657688301     1.056245966782    -0.019267239617    12.000000000000
           C          0.981812688301    -0.282430033218    -0.253162239617    12.000000000000
           H          1.043994688301     1.715199966782     0.445098760383     1.007825032070
           H          0.042261688301     1.461327966782    -0.981054239617     1.007825032070
           F          0.052232688301    -1.214542033218    -0.404909239617    18.998403224000
           F          1.725829688301    -0.276937033218    -1.346468239617    18.998403224000
           F          1.750821688301    -0.636562033218     0.755066760383    18.998403224000

  Running in c1 symmetry.

  Rotational constants: A =      0.15433  B =      0.04009  C =      0.03907 [cm^-1]
  Rotational constants: A =   4626.79446  B =   1201.76280  C =   1171.41896 [MHz]
  Nuclear repulsion =  415.650492899040842

  Charge       = 0
  Multiplicity = 1
  Electrons    = 64
  Nalpha       = 32
  Nbeta        = 32

  ==> Algorithm <==

  SCF Algorithm Type is DF.
  DIIS enabled.
  MOM disabled.
  Fractional occupation disabled.
  Guess Type is CORE.
  Energy threshold   = 1.00e-06
  Density threshold  = 1.00e-06
  Integral threshold = 0.00e+00

  ==> Primary Basis <==

  Basis Set: 6-31G*
    Number of shells: 58
    Number of basis function: 130
    Number of Cartesian functions: 130
    Spherical Harmonics?: false
    Max angular momentum: 2

  ==> Pre-Iterations <==

   -------------------------------------------------------
    Irrep   Nso     Nmo     Nalpha   Nbeta   Ndocc  Nsocc
   -------------------------------------------------------
     A        130     130       0       0       0       0
   -------------------------------------------------------
    Total     130     130      32      32      32       0
   -------------------------------------------------------

 OEINTS: Overlap, kinetic, potential, dipole, and quadrupole integrals
         stored in file 35.

  ==> Integral Setup <==

  ==> DFJK: Density-Fitted J/K Matrices <==

    J tasked:                  Yes
    K tasked:                  Yes
    wK tasked:                  No
    OpenMP threads:             24
    Integrals threads:          24
    Memory (MB):              1430
    Algorithm:                Core
    Integral Cache:           NONE
    Schwarz Cutoff:          1E-12
    Fitting Condition:       1E-12

   => Auxiliary Basis Set <=

  Basis Set: 
    Number of shells: 237
    Number of basis function: 773
    Number of Cartesian functions: 773
    Spherical Harmonics?: false
    Max angular momentum: 3

  Minimum eigenvalue in the overlap matrix is 1.7075778706E-03.
  Using Symmetric Orthogonalization.
  SCF Guess: Core (One-Electron) Hamiltonian.

  ==> Iterations <==

                           Total Energy        Delta E     RMS |[F,P]|

   @DF-RHF iter   1:  -440.74382732399624   -4.40744e+02   7.42721e-02 
   @DF-RHF iter   2:  -174.96133461616262    2.65782e+02   9.71962e-02 DIIS
   @DF-RHF iter   3:  -491.10996194418055   -3.16149e+02   3.98060e-02 DIIS
   @DF-RHF iter   4:  -422.79317076036989    6.83168e+01   6.64490e-02 DIIS
   @DF-RHF iter   5:  -524.17776406871656   -1.01385e+02   1.52482e-02 DIIS
   @DF-RHF iter   6:  -527.05585961832253   -2.87810e+00   7.96894e-03 DIIS
   @DF-RHF iter   7:  -527.46650404477566   -4.10644e-01   1.67703e-03 DIIS
   @DF-RHF iter   8:  -527.48791490911253   -2.14109e-02   8.36825e-04 DIIS
   @DF-RHF iter   9:  -527.49434107215643   -6.42616e-03   3.97999e-04 DIIS
   @DF-RHF iter  10:  -527.49572999247789   -1.38892e-03   2.05423e-04 DIIS
   @DF-RHF iter  11:  -527.49624278572389   -5.12793e-04   4.05875e-05 DIIS
   @DF-RHF iter  12:  -527.49626944933550   -2.66636e-05   1.55447e-05 DIIS
   @DF-RHF iter  13:  -527.49627494240781   -5.49307e-06   7.35011e-06 DIIS
   @DF-RHF iter  14:  -527.49627597992765   -1.03752e-06   2.33166e-06 DIIS
   @DF-RHF iter  15:  -527.49627612919505   -1.49267e-07   9.31120e-07 DIIS

  ==> Post-Iterations <==

    Orbital Energies (a.u.)
    -----------------------

    Doubly Occupied:                                                      

       1A    -26.349089     2A    -26.346697     3A    -26.345336  
       4A    -20.608019     5A    -11.506517     6A    -11.319626  
       7A    -11.303456     8A    -11.209575     9A     -1.746380  
      10A     -1.644112    11A     -1.643339    12A     -1.438483  
      13A     -1.084773    14A     -1.016471    15A     -0.928087  
      16A     -0.840628    17A     -0.835192    18A     -0.828188  
      19A     -0.784861    20A     -0.730246    21A     -0.717014  
      22A     -0.696838    23A     -0.677027    24A     -0.663661  
      25A     -0.658140    26A     -0.647594    27A     -0.629417  
      28A     -0.591135    29A     -0.570185    30A     -0.526453  
      31A     -0.501070    32A     -0.328240  

    Virtual:                                                              

      33A      0.157641    34A      0.237989    35A      0.266263  
      36A      0.288131    37A      0.300603    38A      0.313002  
      39A      0.348197    40A      0.408647    41A      0.424453  
      42A      0.452391    43A      0.473120    44A      0.510676  
      45A      0.522624    46A      0.688948    47A      0.697172  
      48A      0.730806    49A      0.751015    50A      0.762203  
      51A      0.779741    52A      0.812514    53A      0.832823  
      54A      0.871853    55A      0.901103    56A      0.924061  
      57A      0.959921    58A      1.072694    59A      1.111711  
      60A      1.117563    61A      1.141630    62A      1.156022  
      63A      1.206508    64A      1.226531    65A      1.249119  
      66A      1.277932    67A      1.335689    68A      1.354247  
      69A      1.379853    70A      1.411381    71A      1.433442  
      72A      1.459163    73A      1.595837    74A      1.608255  
      75A      1.637073    76A      1.656660    77A      1.669580  
      78A      1.674372    79A      1.679599    80A      1.743111  
      81A      1.799063    82A      1.821731    83A      1.875521  
      84A      1.931403    85A      1.941194    86A      1.967917  
      87A      2.011306    88A      2.062033    89A      2.111545  
      90A      2.132128    91A      2.137397    92A      2.146591  
      93A      2.230889    94A      2.264501    95A      2.269602  
      96A      2.280846    97A      2.314577    98A      2.344013  
      99A      2.364472   100A      2.397927   101A      2.405658  
     102A      2.421614   103A      2.484343   104A      2.497471  
     105A      2.531985   106A      2.590767   107A      2.697639  
     108A      2.699601   109A      2.753107   110A      2.821312  
     111A      2.880195   112A      2.894113   113A      2.999784  
     114A      3.087278   115A      3.139503   116A      3.168888  
     117A      3.195602   118A      3.301957   119A      3.416707  
     120A      3.422347   121A      3.437590   122A      3.471243  
     123A      4.343055   124A      4.535830   125A      4.602243  
     126A      4.728064   127A      4.885322   128A      4.980116  
     129A      5.134832   130A      5.891389  

    Final Occupation by Irrep:
              A 
    DOCC [    32 ]

  Energy converged.

  @DF-RHF Final Energy:  -527.49627612919505

   => Energetics <=

    Nuclear Repulsion Energy =            415.6504928990408416
    One-Electron Energy =               -1554.8619329944440324
    Two-Electron Energy =                 611.7151639662083653
    DFT Exchange-Correlation Energy =       0.0000000000000000
    Empirical Dispersion Energy =           0.0000000000000000
    PCM Polarization Energy =               0.0000000000000000
    EFP Energy =                            0.0000000000000000
    Total Energy =                       -527.4962761291949391

    Alert: EFP and PCM quantities not currently incorporated into SCF psivars.

Properties will be evaluated at   0.000000,   0.000000,   0.000000 Bohr
  ==> Properties <==


Properties computed using the SCF density matrix

  Nuclear Dipole Moment: (a.u.)
     X:   -10.8152      Y:     6.0485      Z:     1.4259

  Electronic Dipole Moment: (a.u.)
     X:    10.7747      Y:    -5.4999      Z:    -1.8867

  Dipole Moment: (a.u.)
     X:    -0.0405      Y:     0.5486      Z:    -0.4609     Total:     0.7177

  Dipole Moment: (Debye)
     X:    -0.1028      Y:     1.3945      Z:    -1.1714     Total:     1.8241


  Saving occupied orbitals to File 180.

*** tstop() called on cx1b.hpc.ic.ac.uk at Tue Jul 26 13:33:26 2016
Module time:
	user time   =      63.60 seconds =       1.06 minutes
	system time =       2.50 seconds =       0.04 minutes
	total time  =          6 seconds =       0.10 minutes
Total time:
	user time   =      63.60 seconds =       1.06 minutes
	system time =       2.50 seconds =       0.04 minutes
	total time  =          6 seconds =       0.10 minutes


Properties will be evaluated at   0.000000,   0.000000,   0.000000 Bohr

Properties computed using the  density matrix

  Nuclear Dipole Moment: (a.u.)
     X:   -10.8152      Y:     6.0485      Z:     1.4259

  Electronic Dipole Moment: (a.u.)
     X:    10.7747      Y:    -5.4999      Z:    -1.8867

  Dipole Moment: (a.u.)
     X:    -0.0405      Y:     0.5486      Z:    -0.4609     Total:     0.7177

  Dipole Moment: (Debye)
     X:    -0.1028      Y:     1.3945      Z:    -1.1714     Total:     1.8241

  Quadrupole Moment: (Debye Ang)
    XX:   -44.3795     YY:   -45.1815     ZZ:   -45.4522
    XY:     2.3947     XZ:     1.9650     YZ:    -1.7986

  Traceless Quadrupole Moment: (Debye Ang)
    XX:     0.6249     YY:    -0.1771     ZZ:    -0.4478
    XY:     2.3947     XZ:     1.9650     YZ:    -1.7986

  Mulliken Charges: (a.u.)
   Center  Symbol    Alpha    Beta     Spin     Total
       1     H     0.40386  0.40386  0.00000  0.19229
       2     C     3.24849  3.24849  0.00000 -0.49698
       3     C     2.89390  2.89390  0.00000  0.21220
       4     H     0.40435  0.40435  0.00000  0.19131
       5     O     4.29548  4.29548  0.00000 -0.59097
       6     H     0.40277  0.40277  0.00000  0.19447
       7     C     3.07164  3.07164  0.00000 -0.14328
       8     C     2.45137  2.45137  0.00000  1.09725
       9     H     0.38598  0.38598  0.00000  0.22804
      10     H     0.40472  0.40472  0.00000  0.19055
      11     F     4.68158  4.68158  0.00000 -0.36317
      12     F     4.68076  4.68076  0.00000 -0.36152
      13     F     4.67510  4.67510  0.00000 -0.35019

   Total alpha = 32.00000, Total beta = 32.00000, Total charge =  0.00000


*** PSI4 exiting successfully. Buy a developer a beer!
