    -----------------------------------------------------------------------
          Psi4: An Open-Source Ab Initio Electronic Structure Package
                              Psi4 (no tag) Driver

                          Git: Rev {detached?}  

    J. M. Turney, A. C. Simmonett, R. M. Parrish, E. G. Hohenstein,
    F. A. Evangelista, J. T. Fermann, B. J. Mintz, L. A. Burns, J. J. Wilke,
    M. L. Abrams, N. J. Russ, M. L. Leininger, C. L. Janssen, E. T. Seidl,
    W. D. Allen, H. F. Schaefer, R. A. King, E. F. Valeev, C. D. Sherrill,
    and T. D. Crawford, WIREs Comput. Mol. Sci. 2, 556-565 (2012)
    (doi: 10.1002/wcms.93)

                         Additional Contributions by
    A. E. DePrince, M. Saitow, U. Bozkaya, A. Yu. Sokolov
    -----------------------------------------------------------------------


    Psi4 started on: Tue Jul  5 16:42:31 2016

    Process ID:   9583
    PSI4DATADIR: /export131/home/mjharvey/miniconda3/share
    Memory level set to 256.000 MB

  ==> Input File <==

--------------------------------------------------------------------------
set {
	reference rhf
	basis 6-31G*
}


set_num_threads( 1 )
memory 2 gb

molecule MOL {
0 1

H	 -2.240291	 0.559484	 0.604969
C	 -2.008299	 -0.205926	 -0.129530
O	 -0.774054	 0.001095	 -0.743181
H	 -2.752932	 -0.160639	 -0.912984
H	 -2.076115	 -1.178578	 0.348530
C	 -0.252294	 1.314184	 -0.843648
C	 1.181169	 1.097405	 -1.323441
C	 -1.028880	 2.139999	 -1.874246
C	 -0.246932	 2.012777	 0.519824
H	 1.181690	 0.579248	 -2.275778
H	 1.725920	 0.489983	 -0.609537
H	 1.700763	 2.042664	 -1.442478
H	 -1.088798	 1.604783	 -2.816044
H	 -0.529140	 3.086898	 -2.051005
H	 -2.037657	 2.362971	 -1.543781
H	 0.242784	 1.388458	 1.259726
H	 0.290131	 2.953666	 0.457986
H	 -1.249360	 2.234458	 0.870006

	symmetry c1
}
set optking {
	frozen_dihedral = ("
		2 3 6 7
	")
}

ee = energy('scf')
oeprop('DIPOLE', 'QUADRUPOLE', 'MULLIKEN_CHARGES')
f=open( 'psi4out.xyz', 'w' )
f.write( "18  " )
f.write( str(ee) + "\n" )
f.write( MOL.save_string_xyz() )
f.close()
--------------------------------------------------------------------------

  Memory set to   2.000 GiB by Python script.

*** tstart() called on cx1-1-4-3.cx1.hpc.ic.ac.uk
*** at Tue Jul  5 16:42:31 2016


         ---------------------------------------------------------
                                   SCF
            by Justin Turney, Rob Parrish, and Andy Simmonett
                              RHF Reference
                        1 Threads,   2000 MiB Core
         ---------------------------------------------------------

  ==> Geometry <==

    Molecular point group: c1
    Full point group: C1

    Geometry (in Angstrom), charge = 0, multiplicity = 1:

       Center              X                  Y                   Z               Mass       
    ------------   -----------------  -----------------  -----------------  -----------------
           H         -1.700719283411    -0.489537859501     1.330071984988     1.007825032070
           C         -1.468727283411    -1.254947859501     0.595572984988    12.000000000000
           O         -0.234482283411    -1.047926859501    -0.018078015012    15.994914619560
           H         -2.213360283411    -1.209660859501    -0.187881015012     1.007825032070
           H         -1.536543283411    -2.227599859501     1.073632984988     1.007825032070
           C          0.287277716589     0.265162140499    -0.118545015012    12.000000000000
           C          1.720740716589     0.048383140499    -0.598338015012    12.000000000000
           C         -0.489308283411     1.090977140499    -1.149143015012    12.000000000000
           C          0.292639716589     0.963755140499     1.244926984988    12.000000000000
           H          1.721261716589    -0.469773859501    -1.550675015012     1.007825032070
           H          2.265491716589    -0.559038859501     0.115565984988     1.007825032070
           H          2.240334716589     0.993642140499    -0.717375015012     1.007825032070
           H         -0.549226283411     0.555761140499    -2.090941015012     1.007825032070
           H          0.010431716589     2.037876140499    -1.325902015012     1.007825032070
           H         -1.498085283411     1.313949140499    -0.818678015012     1.007825032070
           H          0.782355716589     0.339436140499     1.984828984988     1.007825032070
           H          0.829702716589     1.904644140499     1.183088984988     1.007825032070
           H         -0.709788283411     1.185436140499     1.595108984988     1.007825032070

  Running in c1 symmetry.

  Rotational constants: A =      0.14725  B =      0.09160  C =      0.09152 [cm^-1]
  Rotational constants: A =   4414.32469  B =   2746.04038  C =   2743.56619 [MHz]
  Nuclear repulsion =  272.421899153252753

  Charge       = 0
  Multiplicity = 1
  Electrons    = 50
  Nalpha       = 25
  Nbeta        = 25

  ==> Algorithm <==

  SCF Algorithm Type is DF.
  DIIS enabled.
  MOM disabled.
  Fractional occupation disabled.
  Guess Type is CORE.
  Energy threshold   = 1.00e-06
  Density threshold  = 1.00e-06
  Integral threshold = 0.00e+00

  ==> Primary Basis <==

  Basis Set: 6-31G*
    Number of shells: 60
    Number of basis function: 114
    Number of Cartesian functions: 114
    Spherical Harmonics?: false
    Max angular momentum: 2

  ==> Pre-Iterations <==

   -------------------------------------------------------
    Irrep   Nso     Nmo     Nalpha   Nbeta   Ndocc  Nsocc
   -------------------------------------------------------
     A        114     114       0       0       0       0
   -------------------------------------------------------
    Total     114     114      25      25      25       0
   -------------------------------------------------------

 OEINTS: Overlap, kinetic, potential, dipole, and quadrupole integrals
         stored in file 35.

  ==> Integral Setup <==

  ==> DFJK: Density-Fitted J/K Matrices <==

    J tasked:                  Yes
    K tasked:                  Yes
    wK tasked:                  No
    OpenMP threads:              1
    Integrals threads:           1
    Memory (MB):              1430
    Algorithm:                Core
    Integral Cache:           NONE
    Schwarz Cutoff:          1E-12
    Fitting Condition:       1E-12

   => Auxiliary Basis Set <=

  Basis Set: 
    Number of shells: 252
    Number of basis function: 786
    Number of Cartesian functions: 786
    Spherical Harmonics?: false
    Max angular momentum: 3

  Minimum eigenvalue in the overlap matrix is 3.2264829541E-03.
  Using Symmetric Orthogonalization.
  SCF Guess: Core (One-Electron) Hamiltonian.

  ==> Iterations <==

                           Total Energy        Delta E     RMS |[F,P]|

   @DF-RHF iter   1:  -178.52793533921198   -1.78528e+02   9.78593e-02 
   @DF-RHF iter   2:  -221.08562200222525   -4.25577e+01   4.71067e-02 DIIS
   @DF-RHF iter   3:  -241.48282648046597   -2.03972e+01   5.41318e-02 DIIS
   @DF-RHF iter   4:  -263.77825880710191   -2.22954e+01   3.39250e-02 DIIS
   @DF-RHF iter   5:  -268.79871770520572   -5.02046e+00   1.89098e-02 DIIS
   @DF-RHF iter   6:  -270.60472304368773   -1.80601e+00   9.19716e-03 DIIS
   @DF-RHF iter   7:  -271.12948598045261   -5.24763e-01   2.34631e-03 DIIS
   @DF-RHF iter   8:  -271.16653178643332   -3.70458e-02   7.36444e-04 DIIS
   @DF-RHF iter   9:  -271.17057434859521   -4.04256e-03   1.38990e-04 DIIS
   @DF-RHF iter  10:  -271.17077722846670   -2.02880e-04   5.20424e-05 DIIS
   @DF-RHF iter  11:  -271.17080864189393   -3.14134e-05   2.17449e-05 DIIS
   @DF-RHF iter  12:  -271.17081363486307   -4.99297e-06   3.73508e-06 DIIS
   @DF-RHF iter  13:  -271.17081384723542   -2.12372e-07   7.83054e-07 DIIS

  ==> Post-Iterations <==

    Orbital Energies (a.u.)
    -----------------------

    Doubly Occupied:                                                      

       1A    -20.544369     2A    -11.282325     3A    -11.259662  
       4A    -11.210143     5A    -11.207909     6A    -11.203213  
       7A     -1.369155     8A     -1.072947     9A     -0.947770  
      10A     -0.939258    11A     -0.911531    12A     -0.752062  
      13A     -0.656297    14A     -0.644030    15A     -0.639244  
      16A     -0.592181    17A     -0.575155    18A     -0.550429  
      19A     -0.535345    20A     -0.524105    21A     -0.515154  
      22A     -0.489808    23A     -0.485881    24A     -0.437908  
      25A     -0.400644  

    Virtual:                                                              

      26A      0.219742    27A      0.263721    28A      0.278169  
      29A      0.288240    30A      0.307703    31A      0.309573  
      32A      0.323876    33A      0.331873    34A      0.353123  
      35A      0.356518    36A      0.363795    37A      0.370719  
      38A      0.390719    39A      0.406166    40A      0.428369  
      41A      0.444724    42A      0.482381    43A      0.690600  
      44A      0.712332    45A      0.732521    46A      0.756606  
      47A      0.761625    48A      0.815284    49A      0.840411  
      50A      0.879175    51A      0.906906    52A      0.932923  
      53A      0.971118    54A      0.981971    55A      1.011872  
      56A      1.062450    57A      1.101237    58A      1.118473  
      59A      1.141448    60A      1.163333    61A      1.170024  
      62A      1.184135    63A      1.196084    64A      1.202679  
      65A      1.215569    66A      1.226612    67A      1.226892  
      68A      1.261933    69A      1.270455    70A      1.288348  
      71A      1.317208    72A      1.418544    73A      1.439690  
      74A      1.619763    75A      1.630030    76A      1.673632  
      77A      1.690726    78A      1.734469    79A      1.864198  
      80A      1.934617    81A      2.011629    82A      2.024188  
      83A      2.055260    84A      2.102655    85A      2.175482  
      86A      2.189298    87A      2.259813    88A      2.292769  
      89A      2.402033    90A      2.409109    91A      2.461820  
      92A      2.473531    93A      2.487291    94A      2.557399  
      95A      2.588601    96A      2.593964    97A      2.611780  
      98A      2.627238    99A      2.643203   100A      2.681020  
     101A      2.765661   102A      2.800760   103A      2.893215  
     104A      2.959365   105A      3.088770   106A      3.117962  
     107A      3.282871   108A      3.349465   109A      4.397815  
     110A      4.637727   111A      4.693652   112A      4.740183  
     113A      4.760135   114A      5.092052  

    Final Occupation by Irrep:
              A 
    DOCC [    25 ]

  Energy converged.

  @DF-RHF Final Energy:  -271.17081384723542

   => Energetics <=

    Nuclear Repulsion Energy =            272.4218991532527525
    One-Electron Energy =                -907.6921995222247688
    Two-Electron Energy =                 364.0994865217363099
    DFT Exchange-Correlation Energy =       0.0000000000000000
    Empirical Dispersion Energy =           0.0000000000000000
    PCM Polarization Energy =               0.0000000000000000
    EFP Energy =                            0.0000000000000000
    Total Energy =                       -271.1708138472357064

    Alert: EFP and PCM quantities not currently incorporated into SCF psivars.

Properties will be evaluated at   0.000000,   0.000000,   0.000000 Bohr
  ==> Properties <==


Properties computed using the SCF density matrix

  Nuclear Dipole Moment: (a.u.)
     X:    -0.3369      Y:     3.1590      Z:     0.5538

  Electronic Dipole Moment: (a.u.)
     X:     0.0824      Y:    -2.7335      Z:    -0.3294

  Dipole Moment: (a.u.)
     X:    -0.2545      Y:     0.4256      Z:     0.2245     Total:     0.5443

  Dipole Moment: (Debye)
     X:    -0.6469      Y:     1.0817      Z:     0.5705     Total:     1.3835


  Saving occupied orbitals to File 180.

*** tstop() called on cx1-1-4-3.cx1.hpc.ic.ac.uk at Tue Jul  5 16:42:41 2016
Module time:
	user time   =       9.03 seconds =       0.15 minutes
	system time =       0.06 seconds =       0.00 minutes
	total time  =         10 seconds =       0.17 minutes
Total time:
	user time   =       9.03 seconds =       0.15 minutes
	system time =       0.06 seconds =       0.00 minutes
	total time  =         10 seconds =       0.17 minutes


Properties will be evaluated at   0.000000,   0.000000,   0.000000 Bohr

Properties computed using the  density matrix

  Nuclear Dipole Moment: (a.u.)
     X:    -0.3369      Y:     3.1590      Z:     0.5538

  Electronic Dipole Moment: (a.u.)
     X:     0.0824      Y:    -2.7335      Z:    -0.3294

  Dipole Moment: (a.u.)
     X:    -0.2545      Y:     0.4256      Z:     0.2245     Total:     0.5443

  Dipole Moment: (Debye)
     X:    -0.6469      Y:     1.0817      Z:     0.5705     Total:     1.3835

  Quadrupole Moment: (Debye Ang)
    XX:   -38.2500     YY:   -40.9111     ZZ:   -39.5628
    XY:     1.4928     XZ:    -0.9585     YZ:    -1.0305

  Traceless Quadrupole Moment: (Debye Ang)
    XX:     1.3247     YY:    -1.3365     ZZ:     0.0118
    XY:     1.4928     XZ:    -0.9585     YZ:    -1.0305

  Mulliken Charges: (a.u.)
   Center  Symbol    Alpha    Beta     Spin     Total
       1     H     0.43051  0.43051  0.00000  0.13899
       2     C     3.07757  3.07757  0.00000 -0.15515
       3     O     4.32089  4.32089  0.00000 -0.64179
       4     H     0.42635  0.42635  0.00000  0.14729
       5     H     0.41563  0.41563  0.00000  0.16873
       6     C     2.84234  2.84234  0.00000  0.31533
       7     C     3.23260  3.23260  0.00000 -0.46520
       8     C     3.24359  3.24359  0.00000 -0.48719
       9     C     3.25156  3.25156  0.00000 -0.50311
      10     H     0.41373  0.41373  0.00000  0.17255
      11     H     0.41448  0.41448  0.00000  0.17103
      12     H     0.42540  0.42540  0.00000  0.14920
      13     H     0.41307  0.41307  0.00000  0.17386
      14     H     0.42109  0.42109  0.00000  0.15782
      15     H     0.42118  0.42118  0.00000  0.15764
      16     H     0.41305  0.41305  0.00000  0.17390
      17     H     0.41806  0.41806  0.00000  0.16388
      18     H     0.41889  0.41889  0.00000  0.16222

   Total alpha = 25.00000, Total beta = 25.00000, Total charge = -0.00000


*** PSI4 exiting successfully. Buy a developer a beer!
