
    -----------------------------------------------------------------------
          Psi4: An Open-Source Ab Initio Electronic Structure Package
                               Psi4 1.1 release

                         Git: Rev {HEAD} add49b9 


    R. M. Parrish, L. A. Burns, D. G. A. Smith, A. C. Simmonett,
    A. E. DePrince III, E. G. Hohenstein, U. Bozkaya, A. Yu. Sokolov,
    R. Di Remigio, R. M. Richard, J. F. Gonthier, A. M. James,
    H. R. McAlexander, A. Kumar, M. Saitow, X. Wang, B. P. Pritchard,
    P. Verma, H. F. Schaefer III, K. Patkowski, R. A. King, E. F. Valeev,
    F. A. Evangelista, J. M. Turney, T. D. Crawford, and C. D. Sherrill,
    J. Chem. Theory Comput. in press (2017).
    (doi: 10.1021/acs.jctc.7b00174)

    -----------------------------------------------------------------------


    Psi4 started on: Thursday, 21 September 2017 02:47PM

    Process ID:  25114
    PSIDATADIR: /home/raimis/opt/miniconda3/envs/htmd/share/psi4
    Memory:     500.0 MiB
    Threads:    1
    
  ==> Input File <==

--------------------------------------------------------------------------
set_num_threads( 8 )
memory 2.000000 gb

set { reference rks }
set { basis cc-pVDZ }

molecule MOL {
    0 1
    noreorient
    nocom
    symmetry c1
    O    1.014300  -0.002300   0.060500
    O    2.462400  -0.107500  -0.002400
    H    0.821200  -0.823600  -0.430600
    H    2.493170  -0.845848  -0.640155
}

set optking { frozen_dihedral = (" 3 1 2 4 ") }

energy, wfn = energy('B3LYP-D3', return_wfn=True)

import os
os.chdir(os.environ['HTMD_PSI4_WORKDIR'])

oeprop(wfn, 'DIPOLE', 'QUADRUPOLE', 'MULLIKEN_CHARGES')

with open('psi4out.xyz', 'w') as f:
    f.write('4 ' )
    f.write('%.12f\n' % energy)
    f.write(MOL.save_string_xyz())
--------------------------------------------------------------------------
  Threads set to 8 by Python driver.

  Memory set to   1.863 GiB by Python driver.

*** tstart() called on computer03
*** at Thu Sep 21 14:47:06 2017

   => Loading Basis Set <=

    Name: CC-PVDZ
    Role: ORBITAL
    Keyword: BASIS
    atoms 1-2 entry O          line   190 file /home/raimis/opt/miniconda3/envs/htmd/share/psi4/basis/cc-pvdz.gbs 
    atoms 3-4 entry H          line    20 file /home/raimis/opt/miniconda3/envs/htmd/share/psi4/basis/cc-pvdz.gbs 


         ---------------------------------------------------------
                                   SCF
            by Justin Turney, Rob Parrish, and Andy Simmonett
                              RKS Reference
                        8 Threads,   1907 MiB Core
         ---------------------------------------------------------

  ==> Geometry <==

    Molecular point group: c1
    Full point group: C1

    Geometry (in Angstrom), charge = 0, multiplicity = 1:

       Center              X                  Y                   Z               Mass       
    ------------   -----------------  -----------------  -----------------  -----------------
           O          1.014300000000    -0.002300000000     0.060500000000    15.994914619560
           O          2.462400000000    -0.107500000000    -0.002400000000    15.994914619560
           H          0.821200000000    -0.823600000000    -0.430600000000     1.007825032070
           H          2.493170000000    -0.845848000000    -0.640155000000     1.007825032070

  Running in c1 symmetry.

  Rotational constants: A =      9.27656  B =      0.13950  C =      0.13750 [cm^-1]
  Rotational constants: A = 278104.14563  B =   4182.07632  C =   4122.10453 [MHz]
  Nuclear repulsion =   36.890408048687355

  Charge       = 0
  Multiplicity = 1
  Electrons    = 18
  Nalpha       = 9
  Nbeta        = 9

  ==> Algorithm <==

  SCF Algorithm Type is DF.
  DIIS enabled.
  MOM disabled.
  Fractional occupation disabled.
  Guess Type is SAD.
  Energy threshold   = 1.00e-06
  Density threshold  = 1.00e-06
  Integral threshold = 0.00e+00

  ==> Primary Basis <==

  Basis Set: CC-PVDZ
    Blend: CC-PVDZ
    Number of shells: 18
    Number of basis function: 38
    Number of Cartesian functions: 40
    Spherical Harmonics?: true
    Max angular momentum: 2

  ==> DFT Potential <==

   => B3LYP Composite Functional <= 

    B3LYP Hybrid-GGA Exchange-Correlation Functional (VWN1-RPA)

    P.J. Stephens et. al., J. Phys. Chem., 98, 11623-11627, 1994

    Points   =           5000
    Deriv    =              1
    GGA      =           TRUE
    Meta     =          FALSE

    X_LRC        =          FALSE
    X_Hybrid     =           TRUE
    X_Alpha      =   2.000000E-01
    X_Omega      =   0.000000E+00
    C_LRC        =          FALSE
    C_Hybrid     =          FALSE
    C_Alpha      =   0.000000E+00
    C_Omega      =   0.000000E+00

   => Exchange Functionals <=

    0.8000    B3_X
    0.2000      HF 

   => Correlation Functionals <=

    0.1900 VWN3RPA_C
    0.8100   LYP_C

   => Molecular Quadrature <=

    Radial Scheme    =       TREUTLER
    Pruning Scheme   =           FLAT
    Nuclear Scheme   =       TREUTLER

    BS radius alpha  =              1
    Pruning alpha    =              1
    Radial Points    =             75
    Spherical Points =            302
    Total Points     =          88274
    Total Blocks     =             87
    Max Points       =           4796
    Max Functions    =             38

   => -D3ZERO: Empirical Dispersion <=

    Grimme's -D3 (zero-damping) Dispersion Correction
    Grimme S.; Antony J.; Ehrlich S.; Krieg H. (2010), J. Chem. Phys., 132: 154104

        S6 =   1.000000E+00
        S8 =   1.703000E+00
       SR6 =   1.261000E+00
    ALPHA6 =   1.400000E+01

   => Loading Basis Set <=

    Name: (CC-PVDZ AUX)
    Role: JKFIT
    Keyword: DF_BASIS_SCF
    atoms 1-2 entry O          line   220 file /home/raimis/opt/miniconda3/envs/htmd/share/psi4/basis/cc-pvdz-jkfit.gbs 
    atoms 3-4 entry H          line    50 file /home/raimis/opt/miniconda3/envs/htmd/share/psi4/basis/cc-pvdz-jkfit.gbs 

  ==> Pre-Iterations <==

   -------------------------------------------------------
    Irrep   Nso     Nmo     Nalpha   Nbeta   Ndocc  Nsocc
   -------------------------------------------------------
     A         38      38       0       0       0       0
   -------------------------------------------------------
    Total      38      38       9       9       9       0
   -------------------------------------------------------

  ==> Integral Setup <==

  ==> DFJK: Density-Fitted J/K Matrices <==

    J tasked:                  Yes
    K tasked:                  Yes
    wK tasked:                  No
    OpenMP threads:              8
    Integrals threads:           8
    Memory (MB):              1430
    Algorithm:                Core
    Integral Cache:           NONE
    Schwarz Cutoff:          1E-12
    Fitting Condition:       1E-12

   => Auxiliary Basis Set <=

  Basis Set: (CC-PVDZ AUX)
    Blend: CC-PVDZ-JKFIT
    Number of shells: 66
    Number of basis function: 186
    Number of Cartesian functions: 212
    Spherical Harmonics?: true
    Max angular momentum: 3

  Minimum eigenvalue in the overlap matrix is 2.3595322199E-02.
  Using Symmetric Orthogonalization.

  SCF Guess: Superposition of Atomic Densities via on-the-fly atomic UHF.

  ==> Iterations <==

                           Total Energy        Delta E     RMS |[F,P]|

   @DF-RKS iter   0:  -151.77040318721828   -1.51770e+02   6.20553e-02 
   @DF-RKS iter   1:  -151.51047393212460    2.59929e-01   7.58563e-03 
   @DF-RKS iter   2:  -151.52332142130348   -1.28475e-02   5.16982e-03 DIIS
   @DF-RKS iter   3:  -151.53295806425396   -9.63664e-03   1.31989e-03 DIIS
   @DF-RKS iter   4:  -151.53385710581409   -8.99042e-04   1.77351e-04 DIIS
   @DF-RKS iter   5:  -151.53386168368098   -4.57787e-06   1.37668e-04 DIIS
   @DF-RKS iter   6:  -151.53387161048008   -9.92680e-06   4.33309e-06 DIIS
   @DF-RKS iter   7:  -151.53387161895259   -8.47251e-09   1.21232e-06 DIIS
   @DF-RKS iter   8:  -151.53387161951861   -5.66018e-10   5.83326e-08 DIIS

  ==> Post-Iterations <==

    Orbital Energies (a.u.)
    -----------------------

    Doubly Occupied:                                                      

       1A    -19.192009     2A    -19.191980     3A     -1.122235  
       4A     -0.887505     5A     -0.562247     6A     -0.428491  
       7A     -0.400981     8A     -0.375729     9A     -0.247384  

    Virtual:                                                              

      10A      0.008002    11A      0.020353    12A      0.135264  
      13A      0.542710    14A      0.573590    15A      0.860949  
      16A      0.864797    17A      0.922470    18A      0.934420  
      19A      0.985723    20A      1.068032    21A      1.147534  
      22A      1.228974    23A      1.341893    24A      1.519274  
      25A      1.658264    26A      1.808621    27A      2.007252  
      28A      2.111388    29A      2.296130    30A      2.372707  
      31A      2.626571    32A      2.849383    33A      2.925909  
      34A      2.992700    35A      3.200864    36A      3.490448  
      37A      3.544961    38A      3.824530  

    Final Occupation by Irrep:
              A 
    DOCC [     9 ]

  Energy converged.

  @DF-RKS Final Energy:  -151.53387161951861

   => Energetics <=

    Nuclear Repulsion Energy =             36.8904080486873553
    One-Electron Energy =                -281.6465835931971355
    Two-Electron Energy =                 107.6857535727635309
    DFT Exchange-Correlation Energy =     -14.4632722977723702
    Empirical Dispersion Energy =          -0.0001773500000000
    PCM Polarization Energy =               0.0000000000000000
    EFP Energy =                            0.0000000000000000
    Total Energy =                       -151.5338716195186066



Properties will be evaluated at   0.000000,   0.000000,   0.000000 Bohr

Properties computed using the SCF density matrix

  Nuclear Dipole Moment: (a.u.)
     X:    58.8233      Y:    -4.8147      Z:    -1.1451

  Electronic Dipole Moment: (a.u.)
     X:   -58.9266      Y:     3.8226      Z:     0.4270

  Dipole Moment: (a.u.)
     X:    -0.1033      Y:    -0.9921      Z:    -0.7181     Total:     1.2291

  Dipole Moment: (Debye)
     X:    -0.2625      Y:    -2.5217      Z:    -1.8252     Total:     3.1239


*** tstop() called on computer03 at Thu Sep 21 14:47:19 2017
Module time:
	user time   =      13.70 seconds =       0.23 minutes
	system time =       0.54 seconds =       0.01 minutes
	total time  =         13 seconds =       0.22 minutes
Total time:
	user time   =      13.70 seconds =       0.23 minutes
	system time =       0.54 seconds =       0.01 minutes
	total time  =         13 seconds =       0.22 minutes


Properties will be evaluated at   0.000000,   0.000000,   0.000000 Bohr

Properties computed using the  density matrix

  Nuclear Dipole Moment: (a.u.)
     X:    58.8233      Y:    -4.8147      Z:    -1.1451

  Electronic Dipole Moment: (a.u.)
     X:   -58.9266      Y:     3.8226      Z:     0.4270

  Dipole Moment: (a.u.)
     X:    -0.1033      Y:    -0.9921      Z:    -0.7181     Total:     1.2291

  Dipole Moment: (Debye)
     X:    -0.2625      Y:    -2.5217      Z:    -1.8252     Total:     3.1239

  Quadrupole Moment: (Debye Ang)
    XX:   -12.2192     YY:    -9.2733     ZZ:   -10.9247
    XY:    -3.9994     XZ:    -3.2254     YZ:     2.0236

  Traceless Quadrupole Moment: (Debye Ang)
    XX:    -1.4135     YY:     1.5325     ZZ:    -0.1190
    XY:    -3.9994     XZ:    -3.2254     YZ:     2.0236

  Mulliken Charges: (a.u.)
   Center  Symbol    Alpha    Beta     Spin     Total
       1     O     4.07818  4.07818  0.00000 -0.15635
       2     O     4.07816  4.07816  0.00000 -0.15631
       3     H     0.42183  0.42183  0.00000  0.15635
       4     H     0.42184  0.42184  0.00000  0.15631

   Total alpha =  9.00000, Total beta =  9.00000, Total charge =  0.00000


*** Psi4 exiting successfully. Buy a developer a beer!
