    -----------------------------------------------------------------------
          Psi4: An Open-Source Ab Initio Electronic Structure Package
                              Psi4 (no tag) Driver

                          Git: Rev {detached?}  

    J. M. Turney, A. C. Simmonett, R. M. Parrish, E. G. Hohenstein,
    F. A. Evangelista, J. T. Fermann, B. J. Mintz, L. A. Burns, J. J. Wilke,
    M. L. Abrams, N. J. Russ, M. L. Leininger, C. L. Janssen, E. T. Seidl,
    W. D. Allen, H. F. Schaefer, R. A. King, E. F. Valeev, C. D. Sherrill,
    and T. D. Crawford, WIREs Comput. Mol. Sci. 2, 556-565 (2012)
    (doi: 10.1002/wcms.93)

                         Additional Contributions by
    A. E. DePrince, M. Saitow, U. Bozkaya, A. Yu. Sokolov
    -----------------------------------------------------------------------


    Psi4 started on: Tue Jul  5 16:39:48 2016

    Process ID:  12435
    PSI4DATADIR: /export131/home/mjharvey/miniconda3/share
    Memory level set to 256.000 MB

  ==> Input File <==

--------------------------------------------------------------------------
set {
	reference rhf
	basis 6-31G*
}


set_num_threads( 1 )
memory 2 gb

molecule MOL {
0 1

O	 -2.324811	 1.361668	 -0.277141
C	 -2.105949	 0.203097	 -0.092081
C	 -0.889235	 -0.467034	 -0.705952
C	 -3.002726	 -0.644460	 0.782455
C	 -0.213207	 0.457560	 -1.731258
H	 -1.226529	 -1.371108	 -1.201114
H	 -0.178198	 -0.748916	 0.065409
C	 0.999333	 -0.200514	 -2.394056
H	 -0.951537	 0.734504	 -2.475270
H	 0.101512	 1.378425	 -1.242681
C	 1.753381	 0.704131	 -3.375424
H	 0.678645	 -1.102913	 -2.911319
H	 1.690964	 -0.522992	 -1.618490
C	 0.958549	 1.085536	 -4.625531
H	 2.662561	 0.192992	 -3.681723
H	 2.072938	 1.607100	 -2.859073
H	 0.617416	 0.200706	 -5.156030
H	 1.572224	 1.663646	 -5.309338
H	 0.086283	 1.684563	 -4.386556
H	 -3.496582	 -1.399307	 0.176174
H	 -3.747939	 -0.023774	 1.260148
H	 -2.421318	 -1.168775	 1.535358

	symmetry c1
}
set optking {
	frozen_dihedral = ("
		6 3 5 8,
		3 5 8 12,
		12 8 11 15
	")
}

ee = energy('scf')
oeprop('DIPOLE', 'QUADRUPOLE', 'MULLIKEN_CHARGES')
f=open( 'psi4out.xyz', 'w' )
f.write( "22  " )
f.write( str(ee) + "\n" )
f.write( MOL.save_string_xyz() )
f.close()
--------------------------------------------------------------------------

  Memory set to   2.000 GiB by Python script.

*** tstart() called on cx1-3-4-4.cx1.hpc.ic.ac.uk
*** at Tue Jul  5 16:39:48 2016


         ---------------------------------------------------------
                                   SCF
            by Justin Turney, Rob Parrish, and Andy Simmonett
                              RHF Reference
                        1 Threads,   2000 MiB Core
         ---------------------------------------------------------

  ==> Geometry <==

    Molecular point group: c1
    Full point group: C1

    Geometry (in Angstrom), charge = 0, multiplicity = 1:

       Center              X                  Y                   Z               Mass       
    ------------   -----------------  -----------------  -----------------  -----------------
           O         -1.713591854911     1.041150280594     1.284209703225    15.994914619560
           C         -1.494729854911    -0.117420719406     1.469269703225    12.000000000000
           C         -0.278015854911    -0.787551719406     0.855398703225    12.000000000000
           C         -2.391506854911    -0.964977719406     2.343805703225    12.000000000000
           C          0.398012145089     0.137042280594    -0.169907296775    12.000000000000
           H         -0.615309854911    -1.691625719406     0.360236703225     1.007825032070
           H          0.433021145089    -1.069433719406     1.626759703225     1.007825032070
           C          1.610552145089    -0.521031719406    -0.832705296775    12.000000000000
           H         -0.340317854911     0.413986280594    -0.913919296775     1.007825032070
           H          0.712731145089     1.057907280594     0.318669703225     1.007825032070
           C          2.364600145089     0.383613280594    -1.814073296775    12.000000000000
           H          1.289864145089    -1.423430719406    -1.349968296775     1.007825032070
           H          2.302183145089    -0.843509719406    -0.057139296775     1.007825032070
           C          1.569768145089     0.765018280594    -3.064180296775    12.000000000000
           H          3.273780145089    -0.127525719406    -2.120372296775     1.007825032070
           H          2.684157145089     1.286582280594    -1.297722296775     1.007825032070
           H          1.228635145089    -0.119811719406    -3.594679296775     1.007825032070
           H          2.183443145089     1.343128280594    -3.747987296775     1.007825032070
           H          0.697502145089     1.364045280594    -2.825205296775     1.007825032070
           H         -2.885362854911    -1.719824719406     1.737524703225     1.007825032070
           H         -3.136719854911    -0.344291719406     2.821498703225     1.007825032070
           H         -1.810098854911    -1.489292719406     3.096708703225     1.007825032070

  Running in c1 symmetry.

  Rotational constants: A =      0.17454  B =      0.02487  C =      0.02320 [cm^-1]
  Rotational constants: A =   5232.65503  B =    745.53038  C =    695.53648 [MHz]
  Nuclear repulsion =  373.293174170523855

  Charge       = 0
  Multiplicity = 1
  Electrons    = 64
  Nalpha       = 32
  Nbeta        = 32

  ==> Algorithm <==

  SCF Algorithm Type is DF.
  DIIS enabled.
  MOM disabled.
  Fractional occupation disabled.
  Guess Type is CORE.
  Energy threshold   = 1.00e-06
  Density threshold  = 1.00e-06
  Integral threshold = 0.00e+00

  ==> Primary Basis <==

  Basis Set: 6-31G*
    Number of shells: 76
    Number of basis function: 148
    Number of Cartesian functions: 148
    Spherical Harmonics?: false
    Max angular momentum: 2

  ==> Pre-Iterations <==

   -------------------------------------------------------
    Irrep   Nso     Nmo     Nalpha   Nbeta   Ndocc  Nsocc
   -------------------------------------------------------
     A        148     148       0       0       0       0
   -------------------------------------------------------
    Total     148     148      32      32      32       0
   -------------------------------------------------------

 OEINTS: Overlap, kinetic, potential, dipole, and quadrupole integrals
         stored in file 35.

  ==> Integral Setup <==

  ==> DFJK: Density-Fitted J/K Matrices <==

    J tasked:                  Yes
    K tasked:                  Yes
    wK tasked:                  No
    OpenMP threads:              1
    Integrals threads:           1
    Memory (MB):              1430
    Algorithm:                Core
    Integral Cache:           NONE
    Schwarz Cutoff:          1E-12
    Fitting Condition:       1E-12

   => Auxiliary Basis Set <=

  Basis Set: 
    Number of shells: 318
    Number of basis function: 998
    Number of Cartesian functions: 998
    Spherical Harmonics?: false
    Max angular momentum: 3

  Minimum eigenvalue in the overlap matrix is 2.7444693268E-03.
  Using Symmetric Orthogonalization.
  SCF Guess: Core (One-Electron) Hamiltonian.

  ==> Iterations <==

                           Total Energy        Delta E     RMS |[F,P]|

   @DF-RHF iter   1:  -260.25523423210478   -2.60255e+02   6.69473e-02 
   @DF-RHF iter   2:  -183.81673573235361    7.64385e+01   7.03052e-02 DIIS
   @DF-RHF iter   3:  -299.12951282691432   -1.15313e+02   3.36049e-02 DIIS
   @DF-RHF iter   4:  -165.20270298318377    1.33927e+02   7.49062e-02 DIIS
   @DF-RHF iter   5:  -258.72315550778256   -9.35205e+01   5.68421e-02 DIIS
   @DF-RHF iter   6:  -315.37000371732250   -5.66468e+01   3.72622e-02 DIIS
   @DF-RHF iter   7:  -347.68049170713442   -3.23105e+01   5.57337e-03 DIIS
   @DF-RHF iter   8:  -348.02107559012546   -3.40584e-01   2.42900e-03 DIIS
   @DF-RHF iter   9:  -348.08807923293983   -6.70036e-02   8.40259e-04 DIIS
   @DF-RHF iter  10:  -348.09680589630381   -8.72666e-03   3.80711e-04 DIIS
   @DF-RHF iter  11:  -348.09881830189028   -2.01241e-03   9.99655e-05 DIIS
   @DF-RHF iter  12:  -348.09901901145776   -2.00710e-04   3.10703e-05 DIIS
   @DF-RHF iter  13:  -348.09904212156260   -2.31101e-05   9.05227e-06 DIIS
   @DF-RHF iter  14:  -348.09904377279912   -1.65124e-06   2.99772e-06 DIIS
   @DF-RHF iter  15:  -348.09904396365079   -1.90852e-07   1.01831e-06 DIIS
   @DF-RHF iter  16:  -348.09904401817261   -5.45218e-08   4.49277e-07 DIIS

  ==> Post-Iterations <==

    Orbital Energies (a.u.)
    -----------------------

    Doubly Occupied:                                                      

       1A    -20.550153     2A    -11.326105     3A    -11.231167  
       4A    -11.229247     5A    -11.215579     6A    -11.215100  
       7A    -11.214724     8A    -11.206927     9A     -1.396014  
      10A     -1.088191    11A     -1.041288    12A     -1.000966  
      13A     -0.934325    14A     -0.851562    15A     -0.779347  
      16A     -0.731026    17A     -0.656762    18A     -0.650697  
      19A     -0.629000    20A     -0.611256    21A     -0.601509  
      22A     -0.580161    23A     -0.559452    24A     -0.547906  
      25A     -0.520620    26A     -0.509918    27A     -0.495539  
      28A     -0.485208    29A     -0.462540    30A     -0.459152  
      31A     -0.455702    32A     -0.400643  

    Virtual:                                                              

      33A      0.169929    34A      0.221351    35A      0.236033  
      36A      0.271237    37A      0.278370    38A      0.282792  
      39A      0.303672    40A      0.312621    41A      0.315972  
      42A      0.323235    43A      0.333194    44A      0.339379  
      45A      0.346410    46A      0.360988    47A      0.368121  
      48A      0.388311    49A      0.418588    50A      0.428236  
      51A      0.439558    52A      0.448306    53A      0.526222  
      54A      0.534541    55A      0.687265    56A      0.724907  
      57A      0.730209    58A      0.754433    59A      0.761004  
      60A      0.763446    61A      0.785782    62A      0.803782  
      63A      0.828723    64A      0.857680    65A      0.907196  
      66A      0.924279    67A      0.943038    68A      0.974151  
      69A      0.991291    70A      0.996897    71A      1.023657  
      72A      1.043147    73A      1.056489    74A      1.105224  
      75A      1.113838    76A      1.121870    77A      1.138150  
      78A      1.158197    79A      1.160091    80A      1.176931  
      81A      1.185095    82A      1.198076    83A      1.202315  
      84A      1.206789    85A      1.217405    86A      1.230459  
      87A      1.246744    88A      1.257960    89A      1.278632  
      90A      1.287221    91A      1.306277    92A      1.329158  
      93A      1.403691    94A      1.444791    95A      1.490704  
      96A      1.646665    97A      1.652585    98A      1.709080  
      99A      1.739427   100A      1.757718   101A      1.844676  
     102A      1.871662   103A      1.926350   104A      1.942956  
     105A      1.995408   106A      2.038503   107A      2.098874  
     108A      2.110777   109A      2.124124   110A      2.182295  
     111A      2.205663   112A      2.223191   113A      2.254324  
     114A      2.275851   115A      2.290292   116A      2.295411  
     117A      2.319356   118A      2.363161   119A      2.392966  
     120A      2.425213   121A      2.480095   122A      2.495845  
     123A      2.575939   124A      2.578516   125A      2.650882  
     126A      2.668129   127A      2.687436   128A      2.704332  
     129A      2.733000   130A      2.778622   131A      2.801678  
     132A      2.891974   133A      2.934802   134A      2.976904  
     135A      2.994805   136A      3.025967   137A      3.073059  
     138A      3.219517   139A      3.375343   140A      3.411442  
     141A      4.404434   142A      4.530722   143A      4.601116  
     144A      4.695193   145A      4.781380   146A      4.850991  
     147A      4.899886   148A      5.008560  

    Final Occupation by Irrep:
              A 
    DOCC [    32 ]

  Energy converged.

  @DF-RHF Final Energy:  -348.09904401817261

   => Energetics <=

    Nuclear Repulsion Energy =            373.2931741705238551
    One-Electron Energy =               -1211.5089675356525731
    Two-Electron Energy =                 490.1167493469559986
    DFT Exchange-Correlation Energy =       0.0000000000000000
    Empirical Dispersion Energy =           0.0000000000000000
    PCM Polarization Energy =               0.0000000000000000
    EFP Energy =                            0.0000000000000000
    Total Energy =                       -348.0990440181727763

    Alert: EFP and PCM quantities not currently incorporated into SCF psivars.

Properties will be evaluated at   0.000000,   0.000000,   0.000000 Bohr
  ==> Properties <==


Properties computed using the SCF density matrix

  Nuclear Dipole Moment: (a.u.)
     X:     5.6330      Y:    -3.1478      Z:    -5.5676

  Electronic Dipole Moment: (a.u.)
     X:    -5.3925      Y:     2.0560      Z:     5.7380

  Dipole Moment: (a.u.)
     X:     0.2405      Y:    -1.0918      Z:     0.1704     Total:     1.1309

  Dipole Moment: (Debye)
     X:     0.6112      Y:    -2.7751      Z:     0.4331     Total:     2.8744


  Saving occupied orbitals to File 180.

*** tstop() called on cx1-3-4-4.cx1.hpc.ic.ac.uk at Tue Jul  5 16:40:07 2016
Module time:
	user time   =      17.78 seconds =       0.30 minutes
	system time =       0.20 seconds =       0.00 minutes
	total time  =         19 seconds =       0.32 minutes
Total time:
	user time   =      17.78 seconds =       0.30 minutes
	system time =       0.20 seconds =       0.00 minutes
	total time  =         19 seconds =       0.32 minutes


Properties will be evaluated at   0.000000,   0.000000,   0.000000 Bohr

Properties computed using the  density matrix

  Nuclear Dipole Moment: (a.u.)
     X:     5.6330      Y:    -3.1478      Z:    -5.5676

  Electronic Dipole Moment: (a.u.)
     X:    -5.3925      Y:     2.0560      Z:     5.7380

  Dipole Moment: (a.u.)
     X:     0.2405      Y:    -1.0918      Z:     0.1704     Total:     1.1309

  Dipole Moment: (Debye)
     X:     0.6112      Y:    -2.7751      Z:     0.4331     Total:     2.8744

  Quadrupole Moment: (Debye Ang)
    XX:   -52.3927     YY:   -53.9499     ZZ:   -49.8088
    XY:     5.3728     XZ:     0.0383     YZ:    -3.6591

  Traceless Quadrupole Moment: (Debye Ang)
    XX:    -0.3422     YY:    -1.8994     ZZ:     2.2417
    XY:     5.3728     XZ:     0.0383     YZ:    -3.6591

  Mulliken Charges: (a.u.)
   Center  Symbol    Alpha    Beta     Spin     Total
       1     O     4.26064  4.26064  0.00000 -0.52127
       2     C     2.73685  2.73685  0.00000  0.52631
       3     C     3.21059  3.21059  0.00000 -0.42118
       4     C     3.28597  3.28597  0.00000 -0.57193
       5     C     3.15053  3.15053  0.00000 -0.30105
       6     H     0.41191  0.41191  0.00000  0.17618
       7     H     0.40611  0.40611  0.00000  0.18778
       8     C     3.15380  3.15380  0.00000 -0.30759
       9     H     0.41257  0.41257  0.00000  0.17485
      10     H     0.41077  0.41077  0.00000  0.17845
      11     C     3.15204  3.15204  0.00000 -0.30408
      12     H     0.42619  0.42619  0.00000  0.14762
      13     H     0.42421  0.42421  0.00000  0.15159
      14     C     3.24213  3.24213  0.00000 -0.48426
      15     H     0.42138  0.42138  0.00000  0.15724
      16     H     0.42177  0.42177  0.00000  0.15646
      17     H     0.42321  0.42321  0.00000  0.15358
      18     H     0.41900  0.41900  0.00000  0.16200
      19     H     0.41703  0.41703  0.00000  0.16594
      20     H     0.40748  0.40748  0.00000  0.18504
      21     H     0.39642  0.39642  0.00000  0.20716
      22     H     0.40940  0.40940  0.00000  0.18120

   Total alpha = 32.00000, Total beta = 32.00000, Total charge =  0.00000


*** PSI4 exiting successfully. Buy a developer a beer!
