    -----------------------------------------------------------------------
          Psi4: An Open-Source Ab Initio Electronic Structure Package
                              Psi4 (no tag) Driver

                          Git: Rev {detached?}  

    J. M. Turney, A. C. Simmonett, R. M. Parrish, E. G. Hohenstein,
    F. A. Evangelista, J. T. Fermann, B. J. Mintz, L. A. Burns, J. J. Wilke,
    M. L. Abrams, N. J. Russ, M. L. Leininger, C. L. Janssen, E. T. Seidl,
    W. D. Allen, H. F. Schaefer, R. A. King, E. F. Valeev, C. D. Sherrill,
    and T. D. Crawford, WIREs Comput. Mol. Sci. 2, 556-565 (2012)
    (doi: 10.1002/wcms.93)

                         Additional Contributions by
    A. E. DePrince, M. Saitow, U. Bozkaya, A. Yu. Sokolov
    -----------------------------------------------------------------------


    Psi4 started on: Tue Jul  5 16:52:38 2016

    Process ID:  26523
    PSI4DATADIR: /export131/home/mjharvey/miniconda3/share
    Memory level set to 256.000 MB

  ==> Input File <==

--------------------------------------------------------------------------
set {
	reference rhf
	basis 6-31G*
}


set_num_threads( 1 )
memory 2 gb

molecule MOL {
0 1

H	 1.585952	 -4.568302	 3.399427
C	 1.641209	 -3.748105	 2.707115
C	 0.668518	 -3.585831	 1.726420
C	 2.677555	 -2.840066	 2.777133
H	 -0.146648	 -4.284042	 1.656888
C	 0.736054	 -2.535355	 0.836961
H	 3.438900	 -2.949709	 3.529076
C	 2.760232	 -1.774514	 1.887064
H	 -0.008383	 -2.398316	 0.074814
C	 1.785506	 -1.622119	 0.913532
H	 3.578277	 -1.085271	 1.967154
O	 1.765256	 -0.628444	 0.000000
C	 1.016031	 -0.777408	 -1.171129
H	 0.951573	 0.154711	 -1.722792
H	 0.025401	 -1.073826	 -0.860327
H	 1.432021	 -1.546353	 -1.813786

	symmetry c1
}
set optking {
	frozen_dihedral = ("
		10 12 13 14
	")
}

ee = energy('scf')
oeprop('DIPOLE', 'QUADRUPOLE', 'MULLIKEN_CHARGES')
f=open( 'psi4out.xyz', 'w' )
f.write( "16  " )
f.write( str(ee) + "\n" )
f.write( MOL.save_string_xyz() )
f.close()
--------------------------------------------------------------------------

  Memory set to   2.000 GiB by Python script.

*** tstart() called on cx1-3-2-1.cx1.hpc.ic.ac.uk
*** at Tue Jul  5 16:52:39 2016


         ---------------------------------------------------------
                                   SCF
            by Justin Turney, Rob Parrish, and Andy Simmonett
                              RHF Reference
                        1 Threads,   2000 MiB Core
         ---------------------------------------------------------

  ==> Geometry <==

    Molecular point group: c1
    Full point group: C1

    Geometry (in Angstrom), charge = 0, multiplicity = 1:

       Center              X                  Y                   Z               Mass       
    ------------   -----------------  -----------------  -----------------  -----------------
           H         -0.029839639320    -2.434783610494     2.266656552311     1.007825032070
           C          0.025417360680    -1.614586610494     1.574344552311    12.000000000000
           C         -0.947273639320    -1.452312610494     0.593649552311    12.000000000000
           C          1.061763360680    -0.706547610494     1.644362552311    12.000000000000
           H         -1.762439639320    -2.150523610494     0.524117552311     1.007825032070
           C         -0.879737639320    -0.401836610494    -0.295809447689    12.000000000000
           H          1.823108360680    -0.816190610494     2.396305552311     1.007825032070
           C          1.144440360680     0.359004389506     0.754293552311    12.000000000000
           H         -1.624174639320    -0.264797610494    -1.057956447689     1.007825032070
           C          0.169714360680     0.511399389506    -0.219238447689    12.000000000000
           H          1.962485360680     1.048247389506     0.834383552311     1.007825032070
           O          0.149464360680     1.505074389506    -1.132770447689    15.994914619560
           C         -0.599760639320     1.356110389506    -2.303899447689    12.000000000000
           H         -0.664218639320     2.288229389506    -2.855562447689     1.007825032070
           H         -1.590390639320     1.059692389506    -1.993097447689     1.007825032070
           H         -0.183770639320     0.587165389506    -2.946556447689     1.007825032070

  Running in c1 symmetry.

  Rotational constants: A =      0.16956  B =      0.05374  C =      0.04138 [cm^-1]
  Rotational constants: A =   5083.23382  B =   1611.13899  C =   1240.42734 [MHz]
  Nuclear repulsion =  349.484822968679794

  Charge       = 0
  Multiplicity = 1
  Electrons    = 58
  Nalpha       = 29
  Nbeta        = 29

  ==> Algorithm <==

  SCF Algorithm Type is DF.
  DIIS enabled.
  MOM disabled.
  Fractional occupation disabled.
  Guess Type is CORE.
  Energy threshold   = 1.00e-06
  Density threshold  = 1.00e-06
  Integral threshold = 0.00e+00

  ==> Primary Basis <==

  Basis Set: 6-31G*
    Number of shells: 64
    Number of basis function: 136
    Number of Cartesian functions: 136
    Spherical Harmonics?: false
    Max angular momentum: 2

  ==> Pre-Iterations <==

   -------------------------------------------------------
    Irrep   Nso     Nmo     Nalpha   Nbeta   Ndocc  Nsocc
   -------------------------------------------------------
     A        136     136       0       0       0       0
   -------------------------------------------------------
    Total     136     136      29      29      29       0
   -------------------------------------------------------

 OEINTS: Overlap, kinetic, potential, dipole, and quadrupole integrals
         stored in file 35.

  ==> Integral Setup <==

  ==> DFJK: Density-Fitted J/K Matrices <==

    J tasked:                  Yes
    K tasked:                  Yes
    wK tasked:                  No
    OpenMP threads:              1
    Integrals threads:           1
    Memory (MB):              1430
    Algorithm:                Core
    Integral Cache:           NONE
    Schwarz Cutoff:          1E-12
    Fitting Condition:       1E-12

   => Auxiliary Basis Set <=

  Basis Set: 
    Number of shells: 264
    Number of basis function: 848
    Number of Cartesian functions: 848
    Spherical Harmonics?: false
    Max angular momentum: 3

  Minimum eigenvalue in the overlap matrix is 4.4329455205E-04.
  Using Symmetric Orthogonalization.
  SCF Guess: Core (One-Electron) Hamiltonian.

  ==> Iterations <==

                           Total Energy        Delta E     RMS |[F,P]|

   @DF-RHF iter   1:  -270.52060535481138   -2.70521e+02   6.88720e-02 
   @DF-RHF iter   2:  -264.40345990054124    6.11715e+00   5.21532e-02 DIIS
   @DF-RHF iter   3:  -308.86540506682735   -4.44619e+01   4.87570e-02 DIIS
   @DF-RHF iter   4:  -342.60729553885511   -3.37419e+01   1.40762e-02 DIIS
   @DF-RHF iter   5:  -343.85240518274594   -1.24511e+00   8.28626e-03 DIIS
   @DF-RHF iter   6:  -344.50190613024500   -6.49501e-01   2.22463e-03 DIIS
   @DF-RHF iter   7:  -344.56199687394979   -6.00907e-02   6.05992e-04 DIIS
   @DF-RHF iter   8:  -344.56624865858811   -4.25178e-03   1.58055e-04 DIIS
   @DF-RHF iter   9:  -344.56661778135987   -3.69123e-04   6.75110e-05 DIIS
   @DF-RHF iter  10:  -344.56669212141418   -7.43401e-05   3.08170e-05 DIIS
   @DF-RHF iter  11:  -344.56671527427574   -2.31529e-05   1.03404e-05 DIIS
   @DF-RHF iter  12:  -344.56671840857865   -3.13430e-06   3.84355e-06 DIIS
   @DF-RHF iter  13:  -344.56671911325139   -7.04673e-07   1.90389e-06 DIIS
   @DF-RHF iter  14:  -344.56671929880696   -1.85556e-07   7.41939e-07 DIIS

  ==> Post-Iterations <==

    Orbital Energies (a.u.)
    -----------------------

    Doubly Occupied:                                                      

       1A    -20.580521     2A    -11.295220     3A    -11.280055  
       4A    -11.233294     5A    -11.232589     6A    -11.223921  
       7A    -11.220050     8A    -11.218938     9A     -1.413218  
      10A     -1.145841    11A     -1.020674    12A     -1.012680  
      13A     -0.945571    14A     -0.834777    15A     -0.803350  
      16A     -0.724934    17A     -0.670621    18A     -0.657915  
      19A     -0.652632    20A     -0.620213    21A     -0.595336  
      22A     -0.572604    23A     -0.526573    24A     -0.521498  
      25A     -0.509739    26A     -0.470959    27A     -0.451526  
      28A     -0.335065    29A     -0.306487  

    Virtual:                                                              

      30A      0.145021    31A      0.163798    32A      0.237192  
      33A      0.262754    34A      0.293328    35A      0.301473  
      36A      0.309883    37A      0.324128    38A      0.329210  
      39A      0.342105    40A      0.381439    41A      0.408379  
      42A      0.454393    43A      0.479676    44A      0.504005  
      45A      0.535520    46A      0.553182    47A      0.680593  
      48A      0.717691    49A      0.731638    50A      0.751178  
      51A      0.762344    52A      0.766584    53A      0.817801  
      54A      0.828312    55A      0.836040    56A      0.840116  
      57A      0.848025    58A      0.851170    59A      0.866743  
      60A      0.892468    61A      0.922317    62A      0.928961  
      63A      1.004007    64A      1.006278    65A      1.090702  
      66A      1.113860    67A      1.119557    68A      1.125935  
      69A      1.134246    70A      1.154320    71A      1.183006  
      72A      1.188144    73A      1.211931    74A      1.219099  
      75A      1.255881    76A      1.276211    77A      1.282818  
      78A      1.342849    79A      1.349034    80A      1.378627  
      81A      1.446411    82A      1.454983    83A      1.496723  
      84A      1.553790    85A      1.614135    86A      1.630721  
      87A      1.694792    88A      1.718088    89A      1.731633  
      90A      1.759079    91A      1.779268    92A      1.800592  
      93A      1.849443    94A      1.980535    95A      2.067273  
      96A      2.099456    97A      2.119293    98A      2.185751  
      99A      2.204242   100A      2.278359   101A      2.309317  
     102A      2.331642   103A      2.340761   104A      2.418631  
     105A      2.440322   106A      2.459419   107A      2.464139  
     108A      2.481977   109A      2.521384   110A      2.536842  
     111A      2.587946   112A      2.626559   113A      2.654046  
     114A      2.675290   115A      2.751763   116A      2.860327  
     117A      2.914127   118A      2.942980   119A      3.014849  
     120A      3.034254   121A      3.061074   122A      3.104688  
     123A      3.116357   124A      3.145653   125A      3.284387  
     126A      3.364092   127A      3.583496   128A      3.845070  
     129A      4.473130   130A      4.533655   131A      4.550759  
     132A      4.651825   133A      4.751057   134A      4.769091  
     135A      4.886137   136A      5.184764  

    Final Occupation by Irrep:
              A 
    DOCC [    29 ]

  Energy converged.

  @DF-RHF Final Energy:  -344.56671929880696

   => Energetics <=

    Nuclear Repulsion Energy =            349.4848229686797936
    One-Electron Energy =               -1159.9493727620251775
    Two-Electron Energy =                 465.8978304945383115
    DFT Exchange-Correlation Energy =       0.0000000000000000
    Empirical Dispersion Energy =           0.0000000000000000
    PCM Polarization Energy =               0.0000000000000000
    EFP Energy =                            0.0000000000000000
    Total Energy =                       -344.5667192988071292

    Alert: EFP and PCM quantities not currently incorporated into SCF psivars.

Properties will be evaluated at   0.000000,   0.000000,   0.000000 Bohr
  ==> Properties <==


Properties computed using the SCF density matrix

  Nuclear Dipole Moment: (a.u.)
     X:    -1.9391      Y:    -0.6330      Z:    -2.6601

  Electronic Dipole Moment: (a.u.)
     X:     1.6144      Y:     0.3667      Z:     2.3065

  Dipole Moment: (a.u.)
     X:    -0.3248      Y:    -0.2664      Z:    -0.3536     Total:     0.5491

  Dipole Moment: (Debye)
     X:    -0.8255      Y:    -0.6770      Z:    -0.8988     Total:     1.3956


  Saving occupied orbitals to File 180.

*** tstop() called on cx1-3-2-1.cx1.hpc.ic.ac.uk at Tue Jul  5 16:52:51 2016
Module time:
	user time   =      11.90 seconds =       0.20 minutes
	system time =       0.09 seconds =       0.00 minutes
	total time  =         12 seconds =       0.20 minutes
Total time:
	user time   =      11.90 seconds =       0.20 minutes
	system time =       0.09 seconds =       0.00 minutes
	total time  =         12 seconds =       0.20 minutes


Properties will be evaluated at   0.000000,   0.000000,   0.000000 Bohr

Properties computed using the  density matrix

  Nuclear Dipole Moment: (a.u.)
     X:    -1.9391      Y:    -0.6330      Z:    -2.6601

  Electronic Dipole Moment: (a.u.)
     X:     1.6144      Y:     0.3667      Z:     2.3065

  Dipole Moment: (a.u.)
     X:    -0.3248      Y:    -0.2664      Z:    -0.3536     Total:     0.5491

  Dipole Moment: (Debye)
     X:    -0.8255      Y:    -0.6770      Z:    -0.8988     Total:     1.3956

  Quadrupole Moment: (Debye Ang)
    XX:   -45.0291     YY:   -48.2871     ZZ:   -42.1961
    XY:     0.7219     XZ:     4.8628     YZ:    -3.2935

  Traceless Quadrupole Moment: (Debye Ang)
    XX:     0.1416     YY:    -3.1163     ZZ:     2.9747
    XY:     0.7219     XZ:     4.8628     YZ:    -3.2935

  Mulliken Charges: (a.u.)
   Center  Symbol    Alpha    Beta     Spin     Total
       1     H     0.40118  0.40118  0.00000  0.19764
       2     C     3.11185  3.11185  0.00000 -0.22370
       3     C     3.09181  3.09181  0.00000 -0.18363
       4     C     3.09177  3.09177  0.00000 -0.18354
       5     H     0.39997  0.39997  0.00000  0.20006
       6     C     3.15253  3.15253  0.00000 -0.30507
       7     H     0.39824  0.39824  0.00000  0.20353
       8     C     3.12824  3.12824  0.00000 -0.25648
       9     H     0.39583  0.39583  0.00000  0.20834
      10     C     2.77020  2.77020  0.00000  0.45960
      11     H     0.39378  0.39378  0.00000  0.21244
      12     O     4.33233  4.33233  0.00000 -0.66466
      13     C     3.08805  3.08805  0.00000 -0.17611
      14     H     0.40460  0.40460  0.00000  0.19080
      15     H     0.42215  0.42215  0.00000  0.15571
      16     H     0.41746  0.41746  0.00000  0.16507

   Total alpha = 29.00000, Total beta = 29.00000, Total charge = -0.00000


*** PSI4 exiting successfully. Buy a developer a beer!
