    -----------------------------------------------------------------------
          Psi4: An Open-Source Ab Initio Electronic Structure Package
                              Psi4 (no tag) Driver

                          Git: Rev {detached?}  

    J. M. Turney, A. C. Simmonett, R. M. Parrish, E. G. Hohenstein,
    F. A. Evangelista, J. T. Fermann, B. J. Mintz, L. A. Burns, J. J. Wilke,
    M. L. Abrams, N. J. Russ, M. L. Leininger, C. L. Janssen, E. T. Seidl,
    W. D. Allen, H. F. Schaefer, R. A. King, E. F. Valeev, C. D. Sherrill,
    and T. D. Crawford, WIREs Comput. Mol. Sci. 2, 556-565 (2012)
    (doi: 10.1002/wcms.93)

                         Additional Contributions by
    A. E. DePrince, M. Saitow, U. Bozkaya, A. Yu. Sokolov
    -----------------------------------------------------------------------


    Psi4 started on: Tue Jul  5 16:24:45 2016

    Process ID:  28602
    PSI4DATADIR: /export131/home/mjharvey/miniconda3/share
    Memory level set to 256.000 MB

  ==> Input File <==

--------------------------------------------------------------------------
set {
	reference rhf
	basis 6-31G*
}


set_num_threads( 1 )
memory 2 gb

molecule MOL {
0 1

H	 1.459103	 0.593459	 -2.060296
O	 0.618456	 0.433426	 -1.656290
C	 0.702312	 0.627605	 -0.264544
C	 -0.714990	 0.596302	 0.266387
H	 1.153583	 1.589617	 -0.037075
H	 1.296925	 -0.154212	 0.203133
O	 -1.405996	 -0.526611	 -0.195820
H	 -1.257453	 1.468809	 -0.075599
H	 -0.688972	 0.618407	 1.353696
H	 -1.697214	 -0.342803	 -1.079799

	symmetry c1
}
set optking {
	frozen_dihedral = ("
		5 3 4 7
	")
}

ee = energy('scf')
oeprop('DIPOLE', 'QUADRUPOLE', 'MULLIKEN_CHARGES')
f=open( 'psi4out.xyz', 'w' )
f.write( "10  " )
f.write( str(ee) + "\n" )
f.write( MOL.save_string_xyz() )
f.close()
--------------------------------------------------------------------------

  Memory set to   2.000 GiB by Python script.

*** tstart() called on cx1-49-4-2.cx1.hpc.ic.ac.uk
*** at Tue Jul  5 16:24:45 2016


         ---------------------------------------------------------
                                   SCF
            by Justin Turney, Rob Parrish, and Andy Simmonett
                              RHF Reference
                        1 Threads,   2000 MiB Core
         ---------------------------------------------------------

  ==> Geometry <==

    Molecular point group: c1
    Full point group: C1

    Geometry (in Angstrom), charge = 0, multiplicity = 1:

       Center              X                  Y                   Z               Mass       
    ------------   -----------------  -----------------  -----------------  -----------------
           H          1.660285555484     0.319440892508    -1.555572247609     1.007825032070
           O          0.819638555484     0.159407892508    -1.151566247609    15.994914619560
           C          0.903494555484     0.353586892508     0.240179752391    12.000000000000
           C         -0.513807444516     0.322283892508     0.771110752391    12.000000000000
           H          1.354765555484     1.315598892508     0.467648752391     1.007825032070
           H          1.498107555484    -0.428230107492     0.707856752391     1.007825032070
           O         -1.204813444516    -0.800629107492     0.308903752391    15.994914619560
           H         -1.056270444516     1.194790892508     0.429124752391     1.007825032070
           H         -0.487789444516     0.344388892508     1.858419752391     1.007825032070
           H         -1.496031444516    -0.616821107492    -0.575075247609     1.007825032070

  Running in c1 symmetry.

  Rotational constants: A =      0.50849  B =      0.19778  C =      0.15799 [cm^-1]
  Rotational constants: A =  15244.18359  B =   5929.35879  C =   4736.27450 [MHz]
  Nuclear repulsion =  134.770947808829902

  Charge       = 0
  Multiplicity = 1
  Electrons    = 34
  Nalpha       = 17
  Nbeta        = 17

  ==> Algorithm <==

  SCF Algorithm Type is DF.
  DIIS enabled.
  MOM disabled.
  Fractional occupation disabled.
  Guess Type is CORE.
  Energy threshold   = 1.00e-06
  Density threshold  = 1.00e-06
  Integral threshold = 0.00e+00

  ==> Primary Basis <==

  Basis Set: 6-31G*
    Number of shells: 36
    Number of basis function: 72
    Number of Cartesian functions: 72
    Spherical Harmonics?: false
    Max angular momentum: 2

  ==> Pre-Iterations <==

   -------------------------------------------------------
    Irrep   Nso     Nmo     Nalpha   Nbeta   Ndocc  Nsocc
   -------------------------------------------------------
     A         72      72       0       0       0       0
   -------------------------------------------------------
    Total      72      72      17      17      17       0
   -------------------------------------------------------

 OEINTS: Overlap, kinetic, potential, dipole, and quadrupole integrals
         stored in file 35.

  ==> Integral Setup <==

  ==> DFJK: Density-Fitted J/K Matrices <==

    J tasked:                  Yes
    K tasked:                  Yes
    wK tasked:                  No
    OpenMP threads:              1
    Integrals threads:           1
    Memory (MB):              1430
    Algorithm:                Core
    Integral Cache:           NONE
    Schwarz Cutoff:          1E-12
    Fitting Condition:       1E-12

   => Auxiliary Basis Set <=

  Basis Set: 
    Number of shells: 150
    Number of basis function: 474
    Number of Cartesian functions: 474
    Spherical Harmonics?: false
    Max angular momentum: 3

  Minimum eigenvalue in the overlap matrix is 4.7963673505E-03.
  Using Symmetric Orthogonalization.
  SCF Guess: Core (One-Electron) Hamiltonian.

  ==> Iterations <==

                           Total Energy        Delta E     RMS |[F,P]|

   @DF-RHF iter   1:  -200.53041796577915   -2.00530e+02   8.43438e-02 
   @DF-RHF iter   2:  -192.23685817397663    8.29356e+00   7.67008e-02 DIIS
   @DF-RHF iter   3:  -223.46185024091412   -3.12250e+01   3.96974e-02 DIIS
   @DF-RHF iter   4:  -228.31966713961774   -4.85782e+00   1.51633e-02 DIIS
   @DF-RHF iter   5:  -228.86833997770432   -5.48673e-01   4.75351e-03 DIIS
   @DF-RHF iter   6:  -228.91604855624851   -4.77086e-02   1.23226e-03 DIIS
   @DF-RHF iter   7:  -228.92007259300223   -4.02404e-03   4.81438e-04 DIIS
   @DF-RHF iter   8:  -228.92074019768879   -6.67605e-04   1.22971e-04 DIIS
   @DF-RHF iter   9:  -228.92079318827049   -5.29906e-05   3.25898e-05 DIIS
   @DF-RHF iter  10:  -228.92079818285274   -4.99458e-06   9.07913e-06 DIIS
   @DF-RHF iter  11:  -228.92079858270350   -3.99851e-07   2.19589e-06 DIIS
   @DF-RHF iter  12:  -228.92079860708722   -2.43837e-08   7.60389e-07 DIIS

  ==> Post-Iterations <==

    Orbital Energies (a.u.)
    -----------------------

    Doubly Occupied:                                                      

       1A    -20.561550     2A    -20.546904     3A    -11.272132  
       4A    -11.268958     5A     -1.376715     6A     -1.347305  
       7A     -1.000607     8A     -0.837494     9A     -0.719089  
      10A     -0.696277    11A     -0.626812    12A     -0.600216  
      13A     -0.585515    14A     -0.520981    15A     -0.487079  
      16A     -0.450685    17A     -0.427840  

    Virtual:                                                              

      18A      0.217657    19A      0.254990    20A      0.270410  
      21A      0.310478    22A      0.318865    23A      0.355136  
      24A      0.386170    25A      0.420724    26A      0.439410  
      27A      0.754009    28A      0.810000    29A      0.812825  
      30A      0.824055    31A      0.901904    32A      0.915755  
      33A      1.067800    34A      1.093614    35A      1.110699  
      36A      1.131771    37A      1.174310    38A      1.189221  
      39A      1.208027    40A      1.241898    41A      1.273053  
      42A      1.288771    43A      1.328517    44A      1.399791  
      45A      1.510271    46A      1.608894    47A      1.688070  
      48A      1.727013    49A      1.818507    50A      1.927050  
      51A      1.994820    52A      2.023347    53A      2.060533  
      54A      2.090686    55A      2.239236    56A      2.380239  
      57A      2.423499    58A      2.459748    59A      2.508830  
      60A      2.686680    61A      2.720679    62A      2.747891  
      63A      2.775924    64A      2.856533    65A      2.883611  
      66A      3.049299    67A      3.194482    68A      3.239748  
      69A      4.166707    70A      4.182831    71A      4.637042  
      72A      4.856789  

    Final Occupation by Irrep:
              A 
    DOCC [    17 ]

  Energy converged.

  @DF-RHF Final Energy:  -228.92079860708722

   => Energetics <=

    Nuclear Repulsion Energy =            134.7709478088299022
    One-Electron Energy =                -580.7312909263341680
    Two-Electron Energy =                 217.0395445104167038
    DFT Exchange-Correlation Energy =       0.0000000000000000
    Empirical Dispersion Energy =           0.0000000000000000
    PCM Polarization Energy =               0.0000000000000000
    EFP Energy =                            0.0000000000000000
    Total Energy =                       -228.9207986070875904

    Alert: EFP and PCM quantities not currently incorporated into SCF psivars.

Properties will be evaluated at   0.000000,   0.000000,   0.000000 Bohr
  ==> Properties <==


Properties computed using the SCF density matrix

  Nuclear Dipole Moment: (a.u.)
     X:     1.3791      Y:     1.9929      Z:     1.2450

  Electronic Dipole Moment: (a.u.)
     X:    -0.6796      Y:    -1.2005      Z:    -1.3417

  Dipole Moment: (a.u.)
     X:     0.6995      Y:     0.7925      Z:    -0.0966     Total:     1.0614

  Dipole Moment: (Debye)
     X:     1.7780      Y:     2.0143      Z:    -0.2456     Total:     2.6979


  Saving occupied orbitals to File 180.

*** tstop() called on cx1-49-4-2.cx1.hpc.ic.ac.uk at Tue Jul  5 16:24:49 2016
Module time:
	user time   =       3.50 seconds =       0.06 minutes
	system time =       0.04 seconds =       0.00 minutes
	total time  =          4 seconds =       0.07 minutes
Total time:
	user time   =       3.50 seconds =       0.06 minutes
	system time =       0.04 seconds =       0.00 minutes
	total time  =          4 seconds =       0.07 minutes


Properties will be evaluated at   0.000000,   0.000000,   0.000000 Bohr

Properties computed using the  density matrix

  Nuclear Dipole Moment: (a.u.)
     X:     1.3791      Y:     1.9929      Z:     1.2450

  Electronic Dipole Moment: (a.u.)
     X:    -0.6796      Y:    -1.2005      Z:    -1.3417

  Dipole Moment: (a.u.)
     X:     0.6995      Y:     0.7925      Z:    -0.0966     Total:     1.0614

  Dipole Moment: (Debye)
     X:     1.7780      Y:     2.0143      Z:    -0.2456     Total:     2.6979

  Quadrupole Moment: (Debye Ang)
    XX:   -20.9863     YY:   -26.6323     ZZ:   -23.3587
    XY:    -0.6555     XZ:     0.4963     YZ:     1.1197

  Traceless Quadrupole Moment: (Debye Ang)
    XX:     2.6728     YY:    -2.9732     ZZ:     0.3004
    XY:    -0.6555     XZ:     0.4963     YZ:     1.1197

  Mulliken Charges: (a.u.)
   Center  Symbol    Alpha    Beta     Spin     Total
       1     H     0.27819  0.27819  0.00000  0.44362
       2     O     4.37543  4.37543  0.00000 -0.75086
       3     C     3.00208  3.00208  0.00000 -0.00416
       4     C     3.00379  3.00379  0.00000 -0.00757
       5     H     0.43210  0.43210  0.00000  0.13580
       6     H     0.42345  0.42345  0.00000  0.15311
       7     O     4.36703  4.36703  0.00000 -0.73407
       8     H     0.42679  0.42679  0.00000  0.14641
       9     H     0.41785  0.41785  0.00000  0.16430
      10     H     0.27329  0.27329  0.00000  0.45343

   Total alpha = 17.00000, Total beta = 17.00000, Total charge =  0.00000


*** PSI4 exiting successfully. Buy a developer a beer!
