
    -----------------------------------------------------------------------
          Psi4: An Open-Source Ab Initio Electronic Structure Package
                               Psi4 1.1 release

                         Git: Rev {HEAD} add49b9 


    R. M. Parrish, L. A. Burns, D. G. A. Smith, A. C. Simmonett,
    A. E. DePrince III, E. G. Hohenstein, U. Bozkaya, A. Yu. Sokolov,
    R. Di Remigio, R. M. Richard, J. F. Gonthier, A. M. James,
    H. R. McAlexander, A. Kumar, M. Saitow, X. Wang, B. P. Pritchard,
    P. Verma, H. F. Schaefer III, K. Patkowski, R. A. King, E. F. Valeev,
    F. A. Evangelista, J. M. Turney, T. D. Crawford, and C. D. Sherrill,
    J. Chem. Theory Comput. in press (2017).
    (doi: 10.1021/acs.jctc.7b00174)

    -----------------------------------------------------------------------


    Psi4 started on: Friday, 15 September 2017 12:59PM

    Process ID:  14647
    PSIDATADIR: /home/raimis/opt/miniconda3/envs/htmd/share/psi4
    Memory:     500.0 MiB
    Threads:    1
    
  ==> Input File <==

--------------------------------------------------------------------------
set_num_threads( 8 )
memory 2.000000 gb

set { reference rks }
set { basis cc-pVDZ }

molecule MOL {
    0 1
    noreorient
    nocom
    symmetry c1
    O    1.050400   0.042900  -0.048100
    C    2.474100   0.047400  -0.029000
    C    3.002600  -1.068900  -0.932000
    N    4.462700  -1.072400  -1.006800
    H    0.760179  -0.263539   0.828187
    H    2.809900  -0.097900   1.003200
    H    2.817400   1.026800  -0.378600
    H    2.581000  -0.963300  -1.938400
    H    2.653800  -2.036400  -0.553400
    H    4.779000  -0.221000  -1.470000
    H    4.758600  -1.842500  -1.606500
}

set optking { frozen_dihedral = (" 3 2 1 5 ") }

energy, wfn = energy('B3LYP-D3', return_wfn=True)

import os
os.chdir(os.environ['HTMD_PSI4_WORKDIR'])

oeprop(wfn, 'DIPOLE', 'QUADRUPOLE', 'MULLIKEN_CHARGES')

with open('psi4out.xyz', 'w') as f:
    f.write('11 ' )
    f.write('%.12f\n' % energy)
    f.write(MOL.save_string_xyz())
--------------------------------------------------------------------------
  Threads set to 8 by Python driver.

  Memory set to   1.863 GiB by Python driver.

*** tstart() called on computer03
*** at Fri Sep 15 12:59:50 2017

   => Loading Basis Set <=

    Name: CC-PVDZ
    Role: ORBITAL
    Keyword: BASIS
    atoms 1    entry O          line   190 file /home/raimis/opt/miniconda3/envs/htmd/share/psi4/basis/cc-pvdz.gbs 
    atoms 2-3  entry C          line   130 file /home/raimis/opt/miniconda3/envs/htmd/share/psi4/basis/cc-pvdz.gbs 
    atoms 4    entry N          line   160 file /home/raimis/opt/miniconda3/envs/htmd/share/psi4/basis/cc-pvdz.gbs 
    atoms 5-11 entry H          line    20 file /home/raimis/opt/miniconda3/envs/htmd/share/psi4/basis/cc-pvdz.gbs 


         ---------------------------------------------------------
                                   SCF
            by Justin Turney, Rob Parrish, and Andy Simmonett
                              RKS Reference
                        8 Threads,   1907 MiB Core
         ---------------------------------------------------------

  ==> Geometry <==

    Molecular point group: c1
    Full point group: C1

    Geometry (in Angstrom), charge = 0, multiplicity = 1:

       Center              X                  Y                   Z               Mass       
    ------------   -----------------  -----------------  -----------------  -----------------
           O          1.050400000000     0.042900000000    -0.048100000000    15.994914619560
           C          2.474100000000     0.047400000000    -0.029000000000    12.000000000000
           C          3.002600000000    -1.068900000000    -0.932000000000    12.000000000000
           N          4.462700000000    -1.072400000000    -1.006800000000    14.003074004780
           H          0.760179000000    -0.263539000000     0.828187000000     1.007825032070
           H          2.809900000000    -0.097900000000     1.003200000000     1.007825032070
           H          2.817400000000     1.026800000000    -0.378600000000     1.007825032070
           H          2.581000000000    -0.963300000000    -1.938400000000     1.007825032070
           H          2.653800000000    -2.036400000000    -0.553400000000     1.007825032070
           H          4.779000000000    -0.221000000000    -1.470000000000     1.007825032070
           H          4.758600000000    -1.842500000000    -1.606500000000     1.007825032070

  Running in c1 symmetry.

  Rotational constants: A =      0.73020  B =      0.02759  C =      0.02699 [cm^-1]
  Rotational constants: A =  21890.74972  B =    827.25688  C =    808.99543 [MHz]
  Nuclear repulsion =  130.573013130696410

  Charge       = 0
  Multiplicity = 1
  Electrons    = 34
  Nalpha       = 17
  Nbeta        = 17

  ==> Algorithm <==

  SCF Algorithm Type is DF.
  DIIS enabled.
  MOM disabled.
  Fractional occupation disabled.
  Guess Type is SAD.
  Energy threshold   = 1.00e-06
  Density threshold  = 1.00e-06
  Integral threshold = 0.00e+00

  ==> Primary Basis <==

  Basis Set: CC-PVDZ
    Blend: CC-PVDZ
    Number of shells: 45
    Number of basis function: 91
    Number of Cartesian functions: 95
    Spherical Harmonics?: true
    Max angular momentum: 2

  ==> DFT Potential <==

   => B3LYP Composite Functional <= 

    B3LYP Hybrid-GGA Exchange-Correlation Functional (VWN1-RPA)

    P.J. Stephens et. al., J. Phys. Chem., 98, 11623-11627, 1994

    Points   =           5000
    Deriv    =              1
    GGA      =           TRUE
    Meta     =          FALSE

    X_LRC        =          FALSE
    X_Hybrid     =           TRUE
    X_Alpha      =   2.000000E-01
    X_Omega      =   0.000000E+00
    C_LRC        =          FALSE
    C_Hybrid     =          FALSE
    C_Alpha      =   0.000000E+00
    C_Omega      =   0.000000E+00

   => Exchange Functionals <=

    0.8000    B3_X
    0.2000      HF 

   => Correlation Functionals <=

    0.1900 VWN3RPA_C
    0.8100   LYP_C

   => Molecular Quadrature <=

    Radial Scheme    =       TREUTLER
    Pruning Scheme   =           FLAT
    Nuclear Scheme   =       TREUTLER

    BS radius alpha  =              1
    Pruning alpha    =              1
    Radial Points    =             75
    Spherical Points =            302
    Total Points     =         245081
    Total Blocks     =            221
    Max Points       =           4911
    Max Functions    =             91

   => -D3ZERO: Empirical Dispersion <=

    Grimme's -D3 (zero-damping) Dispersion Correction
    Grimme S.; Antony J.; Ehrlich S.; Krieg H. (2010), J. Chem. Phys., 132: 154104

        S6 =   1.000000E+00
        S8 =   1.703000E+00
       SR6 =   1.261000E+00
    ALPHA6 =   1.400000E+01

   => Loading Basis Set <=

    Name: (CC-PVDZ AUX)
    Role: JKFIT
    Keyword: DF_BASIS_SCF
    atoms 1    entry O          line   220 file /home/raimis/opt/miniconda3/envs/htmd/share/psi4/basis/cc-pvdz-jkfit.gbs 
    atoms 2-3  entry C          line   120 file /home/raimis/opt/miniconda3/envs/htmd/share/psi4/basis/cc-pvdz-jkfit.gbs 
    atoms 4    entry N          line   170 file /home/raimis/opt/miniconda3/envs/htmd/share/psi4/basis/cc-pvdz-jkfit.gbs 
    atoms 5-11 entry H          line    50 file /home/raimis/opt/miniconda3/envs/htmd/share/psi4/basis/cc-pvdz-jkfit.gbs 

  ==> Pre-Iterations <==

   -------------------------------------------------------
    Irrep   Nso     Nmo     Nalpha   Nbeta   Ndocc  Nsocc
   -------------------------------------------------------
     A         91      91       0       0       0       0
   -------------------------------------------------------
    Total      91      91      17      17      17       0
   -------------------------------------------------------

  ==> Integral Setup <==

  ==> DFJK: Density-Fitted J/K Matrices <==

    J tasked:                  Yes
    K tasked:                  Yes
    wK tasked:                  No
    OpenMP threads:              8
    Integrals threads:           8
    Memory (MB):              1430
    Algorithm:                Core
    Integral Cache:           NONE
    Schwarz Cutoff:          1E-12
    Fitting Condition:       1E-12

   => Auxiliary Basis Set <=

  Basis Set: (CC-PVDZ AUX)
    Blend: CC-PVDZ-JKFIT
    Number of shells: 159
    Number of basis function: 441
    Number of Cartesian functions: 499
    Spherical Harmonics?: true
    Max angular momentum: 3

  Minimum eigenvalue in the overlap matrix is 4.5665993139E-03.
  Using Symmetric Orthogonalization.

  SCF Guess: Superposition of Atomic Densities via on-the-fly atomic UHF.

  ==> Iterations <==

                           Total Energy        Delta E     RMS |[F,P]|

   @DF-RKS iter   0:  -210.77760813617013   -2.10778e+02   7.21680e-02 
   @DF-RKS iter   1:  -210.20609810826909    5.71510e-01   1.40518e-02 
   @DF-RKS iter   2:  -210.05674026856468    1.49358e-01   1.95536e-02 DIIS
   @DF-RKS iter   3:  -210.38980857985803   -3.33068e-01   1.04396e-03 DIIS
   @DF-RKS iter   4:  -210.39053719294228   -7.28613e-04   5.36935e-04 DIIS
   @DF-RKS iter   5:  -210.39102625042477   -4.89057e-04   7.27619e-05 DIIS
   @DF-RKS iter   6:  -210.39103330209969   -7.05167e-06   4.12402e-05 DIIS
   @DF-RKS iter   7:  -210.39103546894674   -2.16685e-06   3.67113e-06 DIIS
   @DF-RKS iter   8:  -210.39103548293008   -1.39833e-08   1.13085e-06 DIIS
   @DF-RKS iter   9:  -210.39103548430617   -1.37609e-09   2.78995e-07 DIIS

  ==> Post-Iterations <==

    Orbital Energies (a.u.)
    -----------------------

    Doubly Occupied:                                                      

       1A    -19.128762     2A    -14.303636     3A    -10.224468  
       4A    -10.199249     5A     -1.011199     6A     -0.875727  
       7A     -0.710776     8A     -0.601120     9A     -0.510191  
      10A     -0.484643    11A     -0.441628    12A     -0.423885  
      13A     -0.390001    14A     -0.364307    15A     -0.321563  
      16A     -0.264688    17A     -0.230115  

    Virtual:                                                              

      18A      0.047776    19A      0.056842    20A      0.097563  
      21A      0.123504    22A      0.127353    23A      0.151524  
      24A      0.166021    25A      0.207802    26A      0.247546  
      27A      0.261775    28A      0.434589    29A      0.447592  
      30A      0.483481    31A      0.504317    32A      0.576037  
      33A      0.582107    34A      0.600022    35A      0.611442  
      36A      0.632298    37A      0.643481    38A      0.661679  
      39A      0.681404    40A      0.700587    41A      0.812463  
      42A      0.830687    43A      0.846266    44A      0.923643  
      45A      0.964814    46A      1.004629    47A      1.021101  
      48A      1.062914    49A      1.116033    50A      1.215993  
      51A      1.219131    52A      1.264167    53A      1.329508  
      54A      1.389339    55A      1.434839    56A      1.476597  
      57A      1.521731    58A      1.589673    59A      1.629643  
      60A      1.640925    61A      1.656867    62A      1.692834  
      63A      1.696551    64A      1.733535    65A      1.740914  
      66A      1.777127    67A      1.791374    68A      1.844450  
      69A      1.864709    70A      1.964603    71A      1.997116  
      72A      2.025821    73A      2.073691    74A      2.131249  
      75A      2.163355    76A      2.246536    77A      2.263107  
      78A      2.368064    79A      2.398777    80A      2.440115  
      81A      2.479647    82A      2.546333    83A      2.598222  
      84A      2.682679    85A      2.819027    86A      2.950233  
      87A      3.004455    88A      3.056004    89A      3.109854  
      90A      3.228027    91A      3.673276  

    Final Occupation by Irrep:
              A 
    DOCC [    17 ]

  Energy converged.

  @DF-RKS Final Energy:  -210.39103548430617

   => Energetics <=

    Nuclear Repulsion Energy =            130.5730131306964097
    One-Electron Energy =                -544.0738511450092574
    Two-Electron Energy =                 226.6016473575971020
    DFT Exchange-Correlation Energy =     -23.4868515475903976
    Empirical Dispersion Energy =          -0.0049932800000000
    PCM Polarization Energy =               0.0000000000000000
    EFP Energy =                            0.0000000000000000
    Total Energy =                       -210.3910354843061725



Properties will be evaluated at   0.000000,   0.000000,   0.000000 Bohr

Properties computed using the SCF density matrix

  Nuclear Dipole Moment: (a.u.)
     X:   176.9959      Y:   -33.4301      Z:   -32.7186

  Electronic Dipole Moment: (a.u.)
     X:  -176.8270      Y:    33.2659      Z:    32.7513

  Dipole Moment: (a.u.)
     X:     0.1688      Y:    -0.1641      Z:     0.0327     Total:     0.2377

  Dipole Moment: (Debye)
     X:     0.4291      Y:    -0.4172      Z:     0.0832     Total:     0.6043


*** tstop() called on computer03 at Fri Sep 15 13:00:10 2017
Module time:
	user time   =      38.39 seconds =       0.64 minutes
	system time =       0.86 seconds =       0.01 minutes
	total time  =         20 seconds =       0.33 minutes
Total time:
	user time   =      38.39 seconds =       0.64 minutes
	system time =       0.86 seconds =       0.01 minutes
	total time  =         20 seconds =       0.33 minutes


Properties will be evaluated at   0.000000,   0.000000,   0.000000 Bohr

Properties computed using the  density matrix

  Nuclear Dipole Moment: (a.u.)
     X:   176.9959      Y:   -33.4301      Z:   -32.7186

  Electronic Dipole Moment: (a.u.)
     X:  -176.8270      Y:    33.2659      Z:    32.7513

  Dipole Moment: (a.u.)
     X:     0.1688      Y:    -0.1641      Z:     0.0327     Total:     0.2377

  Dipole Moment: (Debye)
     X:     0.4291      Y:    -0.4172      Z:     0.0832     Total:     0.6043

  Quadrupole Moment: (Debye Ang)
    XX:   -25.4664     YY:   -24.4655     ZZ:   -21.7324
    XY:     0.5935     XZ:    -5.7691     YZ:     0.8200

  Traceless Quadrupole Moment: (Debye Ang)
    XX:    -1.5783     YY:    -0.5774     ZZ:     2.1557
    XY:     0.5935     XZ:    -5.7691     YZ:     0.8200

  Mulliken Charges: (a.u.)
   Center  Symbol    Alpha    Beta     Spin     Total
       1     O     4.13933  4.13933  0.00000 -0.27866
       2     C     2.93015  2.93015  0.00000  0.13971
       3     C     2.98425  2.98425  0.00000  0.03150
       4     N     3.59475  3.59475  0.00000 -0.18950
       5     H     0.42928  0.42928  0.00000  0.14144
       6     H     0.49754  0.49754  0.00000  0.00492
       7     H     0.49675  0.49675  0.00000  0.00649
       8     H     0.50100  0.50100  0.00000 -0.00201
       9     H     0.49727  0.49727  0.00000  0.00546
      10     H     0.46548  0.46548  0.00000  0.06904
      11     H     0.46419  0.46419  0.00000  0.07161

   Total alpha = 17.00000, Total beta = 17.00000, Total charge =  0.00000


*** Psi4 exiting successfully. Buy a developer a beer!
