    -----------------------------------------------------------------------
          Psi4: An Open-Source Ab Initio Electronic Structure Package
                              Psi4 (no tag) Driver

                          Git: Rev {detached?}  

    J. M. Turney, A. C. Simmonett, R. M. Parrish, E. G. Hohenstein,
    F. A. Evangelista, J. T. Fermann, B. J. Mintz, L. A. Burns, J. J. Wilke,
    M. L. Abrams, N. J. Russ, M. L. Leininger, C. L. Janssen, E. T. Seidl,
    W. D. Allen, H. F. Schaefer, R. A. King, E. F. Valeev, C. D. Sherrill,
    and T. D. Crawford, WIREs Comput. Mol. Sci. 2, 556-565 (2012)
    (doi: 10.1002/wcms.93)

                         Additional Contributions by
    A. E. DePrince, M. Saitow, U. Bozkaya, A. Yu. Sokolov
    -----------------------------------------------------------------------


    Psi4 started on: Tue Jul  5 16:51:56 2016

    Process ID:  14590
    PSI4DATADIR: /export131/home/mjharvey/miniconda3/share
    Memory level set to 256.000 MB

  ==> Input File <==

--------------------------------------------------------------------------
set {
	reference rhf
	basis 6-31G*
}


set_num_threads( 1 )
memory 2 gb

molecule MOL {
0 1

H	 -2.153054	 -2.250733	 0.000000
O	 -2.462445	 -1.355403	 0.000000
C	 -1.434260	 -0.483044	 0.000000
C	 -0.160282	 -0.998433	 0.214627
C	 -1.606806	 0.873172	 -0.202032
H	 -0.050522	 -2.055314	 0.369249
C	 0.931284	 -0.154718	 0.225708
H	 -2.586306	 1.284548	 -0.369080
C	 -0.495009	 1.711703	 -0.187945
H	 1.912113	 -0.560710	 0.392185
C	 0.777868	 1.209965	 0.024721
C	 -0.683838	 3.129388	 -0.400099
H	 1.624995	 1.868669	 0.032793
N	 -0.830691	 4.243319	 -0.568907

	symmetry c1
}
set optking {
	frozen_dihedral = ("
		5 3 2 1
	")
}

ee = energy('scf')
oeprop('DIPOLE', 'QUADRUPOLE', 'MULLIKEN_CHARGES')
f=open( 'psi4out.xyz', 'w' )
f.write( "14  " )
f.write( str(ee) + "\n" )
f.write( MOL.save_string_xyz() )
f.close()
--------------------------------------------------------------------------

  Memory set to   2.000 GiB by Python script.

*** tstart() called on cx1-3-4-4.cx1.hpc.ic.ac.uk
*** at Tue Jul  5 16:51:56 2016


         ---------------------------------------------------------
                                   SCF
            by Justin Turney, Rob Parrish, and Andy Simmonett
                              RHF Reference
                        1 Threads,   2000 MiB Core
         ---------------------------------------------------------

  ==> Geometry <==

    Molecular point group: c1
    Full point group: C1

    Geometry (in Angstrom), charge = 0, multiplicity = 1:

       Center              X                  Y                   Z               Mass       
    ------------   -----------------  -----------------  -----------------  -----------------
           H         -1.444586570021    -3.086349716962     0.096089468824     1.007825032070
           O         -1.753977570021    -2.191019716962     0.096089468824    15.994914619560
           C         -0.725792570021    -1.318660716962     0.096089468824    12.000000000000
           C          0.548185429979    -1.834049716962     0.310716468824    12.000000000000
           C         -0.898338570021     0.037555283038    -0.105942531176    12.000000000000
           H          0.657945429979    -2.890930716962     0.465338468824     1.007825032070
           C          1.639751429979    -0.990334716962     0.321797468824    12.000000000000
           H         -1.877838570021     0.448931283038    -0.272990531176     1.007825032070
           C          0.213458429979     0.876086283038    -0.091855531176    12.000000000000
           H          2.620580429979    -1.396326716962     0.488274468824     1.007825032070
           C          1.486335429979     0.374348283038     0.120810468824    12.000000000000
           C          0.024629429979     2.293771283038    -0.304009531176    12.000000000000
           H          2.333462429979     1.033052283038     0.128882468824     1.007825032070
           N         -0.122223570021     3.407702283038    -0.472817531176    14.003074004780

  Running in c1 symmetry.

  Rotational constants: A =      0.11889  B =      0.04007  C =      0.02997 [cm^-1]
  Rotational constants: A =   3564.28400  B =   1201.36668  C =    898.58884 [MHz]
  Nuclear repulsion =  379.326965804411714

  Charge       = 0
  Multiplicity = 1
  Electrons    = 62
  Nalpha       = 31
  Nbeta        = 31

  ==> Algorithm <==

  SCF Algorithm Type is DF.
  DIIS enabled.
  MOM disabled.
  Fractional occupation disabled.
  Guess Type is CORE.
  Energy threshold   = 1.00e-06
  Density threshold  = 1.00e-06
  Integral threshold = 0.00e+00

  ==> Primary Basis <==

  Basis Set: 6-31G*
    Number of shells: 64
    Number of basis function: 145
    Number of Cartesian functions: 145
    Spherical Harmonics?: false
    Max angular momentum: 2

  ==> Pre-Iterations <==

   -------------------------------------------------------
    Irrep   Nso     Nmo     Nalpha   Nbeta   Ndocc  Nsocc
   -------------------------------------------------------
     A        145     145       0       0       0       0
   -------------------------------------------------------
    Total     145     145      31      31      31       0
   -------------------------------------------------------

 OEINTS: Overlap, kinetic, potential, dipole, and quadrupole integrals
         stored in file 35.

  ==> Integral Setup <==

  ==> DFJK: Density-Fitted J/K Matrices <==

    J tasked:                  Yes
    K tasked:                  Yes
    wK tasked:                  No
    OpenMP threads:              1
    Integrals threads:           1
    Memory (MB):              1430
    Algorithm:                Core
    Integral Cache:           NONE
    Schwarz Cutoff:          1E-12
    Fitting Condition:       1E-12

   => Auxiliary Basis Set <=

  Basis Set: 
    Number of shells: 261
    Number of basis function: 854
    Number of Cartesian functions: 854
    Spherical Harmonics?: false
    Max angular momentum: 3

  Minimum eigenvalue in the overlap matrix is 4.1966178047E-04.
  Using Symmetric Orthogonalization.
  SCF Guess: Core (One-Electron) Hamiltonian.

  ==> Iterations <==

                           Total Energy        Delta E     RMS |[F,P]|

   @DF-RHF iter   1:  -309.44247921284767   -3.09442e+02   6.50328e-02 
   @DF-RHF iter   2:  -146.51175596035199    1.62931e+02   7.88010e-02 DIIS
   @DF-RHF iter   3:  -317.79556284788640   -1.71284e+02   5.28310e-02 DIIS
   @DF-RHF iter   4:  -342.11576410141316   -2.43202e+01   5.26378e-02 DIIS
   @DF-RHF iter   5:  -395.86944848742695   -5.37537e+01   1.08412e-02 DIIS
   @DF-RHF iter   6:  -397.09178031359994   -1.22233e+00   4.27814e-03 DIIS
   @DF-RHF iter   7:  -397.27036419022289   -1.78584e-01   1.19081e-03 DIIS
   @DF-RHF iter   8:  -397.28591635604374   -1.55522e-02   4.33611e-04 DIIS
   @DF-RHF iter   9:  -397.28843714672502   -2.52079e-03   1.40498e-04 DIIS
   @DF-RHF iter  10:  -397.28882138713146   -3.84240e-04   6.02855e-05 DIIS
   @DF-RHF iter  11:  -397.28892415885520   -1.02772e-04   3.04276e-05 DIIS
   @DF-RHF iter  12:  -397.28897352516464   -4.93663e-05   1.36440e-05 DIIS
   @DF-RHF iter  13:  -397.28898309690356   -9.57174e-06   7.14686e-06 DIIS
   @DF-RHF iter  14:  -397.28898642392579   -3.32702e-06   2.39753e-06 DIIS
   @DF-RHF iter  15:  -397.28898667442883   -2.50503e-07   5.75604e-07 DIIS

  ==> Post-Iterations <==

    Orbital Energies (a.u.)
    -----------------------

    Doubly Occupied:                                                      

       1A    -20.611048     2A    -15.574811     3A    -11.327055  
       4A    -11.294964     5A    -11.275905     6A    -11.264872  
       7A    -11.261202     8A    -11.259549     9A    -11.258562  
      10A     -1.433016    11A     -1.232412    12A     -1.182514  
      13A     -1.063422    14A     -1.039939    15A     -0.898840  
      16A     -0.859236    17A     -0.793923    18A     -0.718018  
      19A     -0.691183    20A     -0.675858    21A     -0.629005  
      22A     -0.614659    23A     -0.592230    24A     -0.566873  
      25A     -0.547164    26A     -0.538132    27A     -0.522304  
      28A     -0.473587    29A     -0.472042    30A     -0.363662  
      31A     -0.337543  

    Virtual:                                                              

      32A      0.085757    33A      0.132538    34A      0.200297  
      35A      0.220368    36A      0.225870    37A      0.274078  
      38A      0.280432    39A      0.290824    40A      0.330309  
      41A      0.369328    42A      0.378521    43A      0.437625  
      44A      0.455214    45A      0.468642    46A      0.485865  
      47A      0.570702    48A      0.598737    49A      0.633659  
      50A      0.700290    51A      0.713990    52A      0.717191  
      53A      0.757324    54A      0.782768    55A      0.793274  
      56A      0.803105    57A      0.804022    58A      0.827382  
      59A      0.852285    60A      0.856732    61A      0.871009  
      62A      0.884256    63A      0.887595    64A      0.937565  
      65A      0.955027    66A      0.993267    67A      0.996670  
      68A      1.064729    69A      1.090035    70A      1.103505  
      71A      1.104234    72A      1.122927    73A      1.126894  
      74A      1.138804    75A      1.169626    76A      1.188540  
      77A      1.220738    78A      1.232528    79A      1.262331  
      80A      1.331427    81A      1.376237    82A      1.392020  
      83A      1.437483    84A      1.450267    85A      1.465305  
      86A      1.518317    87A      1.558925    88A      1.587421  
      89A      1.610043    90A      1.634459    91A      1.687977  
      92A      1.701498    93A      1.730376    94A      1.733406  
      95A      1.799781    96A      1.807059    97A      1.844855  
      98A      1.983374    99A      2.024208   100A      2.062154  
     101A      2.079551   102A      2.102844   103A      2.110583  
     104A      2.154375   105A      2.227533   106A      2.241638  
     107A      2.261977   108A      2.285162   109A      2.292196  
     110A      2.295471   111A      2.329952   112A      2.388431  
     113A      2.423101   114A      2.440336   115A      2.454368  
     116A      2.537120   117A      2.585586   118A      2.614096  
     119A      2.623413   120A      2.754263   121A      2.824864  
     122A      2.843164   123A      2.868020   124A      2.928849  
     125A      2.994071   126A      3.004549   127A      3.023840  
     128A      3.097834   129A      3.138852   130A      3.168871  
     131A      3.209070   132A      3.280581   133A      3.382142  
     134A      3.562770   135A      3.674712   136A      3.870794  
     137A      4.348287   138A      4.465606   139A      4.506295  
     140A      4.559600   141A      4.613475   142A      4.720954  
     143A      4.828624   144A      4.970600   145A      5.257853  

    Final Occupation by Irrep:
              A 
    DOCC [    31 ]

  Energy converged.

  @DF-RHF Final Energy:  -397.28898667442883

   => Energetics <=

    Nuclear Repulsion Energy =            379.3269658044117136
    One-Electron Energy =               -1290.4846347071659238
    Two-Electron Energy =                 513.8686822283247011
    DFT Exchange-Correlation Energy =       0.0000000000000000
    Empirical Dispersion Energy =           0.0000000000000000
    PCM Polarization Energy =               0.0000000000000000
    EFP Energy =                            0.0000000000000000
    Total Energy =                       -397.2889866744295659

    Alert: EFP and PCM quantities not currently incorporated into SCF psivars.

Properties will be evaluated at   0.000000,   0.000000,   0.000000 Bohr
  ==> Properties <==


Properties computed using the SCF density matrix

  Nuclear Dipole Moment: (a.u.)
     X:     2.1383      Y:    -5.5436      Z:     0.8508

  Electronic Dipole Moment: (a.u.)
     X:    -1.4442      Y:     3.3462      Z:    -0.5864

  Dipole Moment: (a.u.)
     X:     0.6942      Y:    -2.1974      Z:     0.2644     Total:     2.3196

  Dipole Moment: (Debye)
     X:     1.7644      Y:    -5.5852      Z:     0.6721     Total:     5.8957


  Saving occupied orbitals to File 180.

*** tstop() called on cx1-3-4-4.cx1.hpc.ic.ac.uk at Tue Jul  5 16:52:10 2016
Module time:
	user time   =      12.89 seconds =       0.21 minutes
	system time =       0.08 seconds =       0.00 minutes
	total time  =         14 seconds =       0.23 minutes
Total time:
	user time   =      12.89 seconds =       0.21 minutes
	system time =       0.08 seconds =       0.00 minutes
	total time  =         14 seconds =       0.23 minutes


Properties will be evaluated at   0.000000,   0.000000,   0.000000 Bohr

Properties computed using the  density matrix

  Nuclear Dipole Moment: (a.u.)
     X:     2.1383      Y:    -5.5436      Z:     0.8508

  Electronic Dipole Moment: (a.u.)
     X:    -1.4442      Y:     3.3462      Z:    -0.5864

  Dipole Moment: (a.u.)
     X:     0.6942      Y:    -2.1974      Z:     0.2644     Total:     2.3196

  Dipole Moment: (Debye)
     X:     1.7644      Y:    -5.5852      Z:     0.6721     Total:     5.8957

  Quadrupole Moment: (Debye Ang)
    XX:   -48.8400     YY:   -56.9792     ZZ:   -54.2022
    XY:    -0.2628     XZ:     1.0698     YZ:     1.3835

  Traceless Quadrupole Moment: (Debye Ang)
    XX:     4.5004     YY:    -3.6387     ZZ:    -0.8617
    XY:    -0.2628     XZ:     1.0698     YZ:     1.3835

  Mulliken Charges: (a.u.)
   Center  Symbol    Alpha    Beta     Spin     Total
       1     H     0.26692  0.26692  0.00000  0.46615
       2     O     4.37908  4.37908  0.00000 -0.75815
       3     C     2.78296  2.78296  0.00000  0.43407
       4     C     3.13897  3.13897  0.00000 -0.27794
       5     C     3.11594  3.11594  0.00000 -0.23188
       6     H     0.39660  0.39660  0.00000  0.20680
       7     C     3.09485  3.09485  0.00000 -0.18969
       8     H     0.37404  0.37404  0.00000  0.25192
       9     C     2.99088  2.99088  0.00000  0.01824
      10     H     0.38937  0.38937  0.00000  0.22125
      11     C     3.09951  3.09951  0.00000 -0.19902
      12     C     2.86527  2.86527  0.00000  0.26946
      13     H     0.38120  0.38120  0.00000  0.23759
      14     N     3.72440  3.72440  0.00000 -0.44879

   Total alpha = 31.00000, Total beta = 31.00000, Total charge =  0.00000


*** PSI4 exiting successfully. Buy a developer a beer!
