
    -----------------------------------------------------------------------
          Psi4: An Open-Source Ab Initio Electronic Structure Package
                               Psi4 1.1 release

                         Git: Rev {HEAD} add49b9 


    R. M. Parrish, L. A. Burns, D. G. A. Smith, A. C. Simmonett,
    A. E. DePrince III, E. G. Hohenstein, U. Bozkaya, A. Yu. Sokolov,
    R. Di Remigio, R. M. Richard, J. F. Gonthier, A. M. James,
    H. R. McAlexander, A. Kumar, M. Saitow, X. Wang, B. P. Pritchard,
    P. Verma, H. F. Schaefer III, K. Patkowski, R. A. King, E. F. Valeev,
    F. A. Evangelista, J. M. Turney, T. D. Crawford, and C. D. Sherrill,
    J. Chem. Theory Comput. in press (2017).
    (doi: 10.1021/acs.jctc.7b00174)

    -----------------------------------------------------------------------


    Psi4 started on: Tuesday, 12 December 2017 12:40PM

    Process ID:   5108
    PSIDATADIR: /shared/raimis/opt/miniconda/envs/htmd/share/psi4
    Memory:     500.0 MiB
    Threads:    1
    
  ==> Input File <==

--------------------------------------------------------------------------
set_num_threads(1)
set_memory(4203741184)

set { reference rks }
set { basis cc-pVDZ }

molecule MOL {
    0 1
    noreorient
    nocom
    symmetry c1
    O    1.014300  -0.002300   0.060500
    O    2.462400  -0.107500  -0.002400
    H    0.821200  -0.823600  -0.430600
    H    2.587909  -0.461729   0.898492
}

set optking { frozen_dihedral = (" 3 1 2 4 ") }

energy, wfn = energy('B3LYP-D3', return_wfn=True)

import os
os.chdir(os.environ['HTMD_PSI4_WORKDIR'])

oeprop(wfn, 'DIPOLE', 'QUADRUPOLE', 'MULLIKEN_CHARGES')

with open('psi4out.xyz', 'w') as f:
    f.write('4 ' )
    f.write('%.12f\n' % energy)
    f.write(MOL.save_string_xyz())
--------------------------------------------------------------------------
  Threads set to 1 by Python driver.

  Memory set to   3.915 GiB by Python driver.

*** tstart() called on computer06
*** at Tue Dec 12 12:40:23 2017

   => Loading Basis Set <=

    Name: CC-PVDZ
    Role: ORBITAL
    Keyword: BASIS
    atoms 1-2 entry O          line   190 file /shared/raimis/opt/miniconda/envs/htmd/share/psi4/basis/cc-pvdz.gbs 
    atoms 3-4 entry H          line    20 file /shared/raimis/opt/miniconda/envs/htmd/share/psi4/basis/cc-pvdz.gbs 


         ---------------------------------------------------------
                                   SCF
            by Justin Turney, Rob Parrish, and Andy Simmonett
                              RKS Reference
                        1 Threads,   4009 MiB Core
         ---------------------------------------------------------

  ==> Geometry <==

    Molecular point group: c1
    Full point group: C1

    Geometry (in Angstrom), charge = 0, multiplicity = 1:

       Center              X                  Y                   Z               Mass       
    ------------   -----------------  -----------------  -----------------  -----------------
           O          1.014300000000    -0.002300000000     0.060500000000    15.994914619560
           O          2.462400000000    -0.107500000000    -0.002400000000    15.994914619560
           H          0.821200000000    -0.823600000000    -0.430600000000     1.007825032070
           H          2.587909000000    -0.461729000000     0.898492000000     1.007825032070

  Running in c1 symmetry.

  Rotational constants: A =      9.58813  B =      0.13819  C =      0.13787 [cm^-1]
  Rotational constants: A = 287445.04905  B =   4142.78992  C =   4133.15615 [MHz]
  Nuclear repulsion =   36.812603435330864

  Charge       = 0
  Multiplicity = 1
  Electrons    = 18
  Nalpha       = 9
  Nbeta        = 9

  ==> Algorithm <==

  SCF Algorithm Type is DF.
  DIIS enabled.
  MOM disabled.
  Fractional occupation disabled.
  Guess Type is SAD.
  Energy threshold   = 1.00e-06
  Density threshold  = 1.00e-06
  Integral threshold = 0.00e+00

  ==> Primary Basis <==

  Basis Set: CC-PVDZ
    Blend: CC-PVDZ
    Number of shells: 18
    Number of basis function: 38
    Number of Cartesian functions: 40
    Spherical Harmonics?: true
    Max angular momentum: 2

  ==> DFT Potential <==

   => B3LYP Composite Functional <= 

    B3LYP Hybrid-GGA Exchange-Correlation Functional (VWN1-RPA)

    P.J. Stephens et. al., J. Phys. Chem., 98, 11623-11627, 1994

    Points   =           5000
    Deriv    =              1
    GGA      =           TRUE
    Meta     =          FALSE

    X_LRC        =          FALSE
    X_Hybrid     =           TRUE
    X_Alpha      =   2.000000E-01
    X_Omega      =   0.000000E+00
    C_LRC        =          FALSE
    C_Hybrid     =          FALSE
    C_Alpha      =   0.000000E+00
    C_Omega      =   0.000000E+00

   => Exchange Functionals <=

    0.8000    B3_X
    0.2000      HF 

   => Correlation Functionals <=

    0.1900 VWN3RPA_C
    0.8100   LYP_C

   => Molecular Quadrature <=

    Radial Scheme    =       TREUTLER
    Pruning Scheme   =           FLAT
    Nuclear Scheme   =       TREUTLER

    BS radius alpha  =              1
    Pruning alpha    =              1
    Radial Points    =             75
    Spherical Points =            302
    Total Points     =          88316
    Total Blocks     =             90
    Max Points       =           4509
    Max Functions    =             38

   => -D3ZERO: Empirical Dispersion <=

    Grimme's -D3 (zero-damping) Dispersion Correction
    Grimme S.; Antony J.; Ehrlich S.; Krieg H. (2010), J. Chem. Phys., 132: 154104

        S6 =   1.000000E+00
        S8 =   1.703000E+00
       SR6 =   1.261000E+00
    ALPHA6 =   1.400000E+01

   => Loading Basis Set <=

    Name: (CC-PVDZ AUX)
    Role: JKFIT
    Keyword: DF_BASIS_SCF
    atoms 1-2 entry O          line   220 file /shared/raimis/opt/miniconda/envs/htmd/share/psi4/basis/cc-pvdz-jkfit.gbs 
    atoms 3-4 entry H          line    50 file /shared/raimis/opt/miniconda/envs/htmd/share/psi4/basis/cc-pvdz-jkfit.gbs 

  ==> Pre-Iterations <==

   -------------------------------------------------------
    Irrep   Nso     Nmo     Nalpha   Nbeta   Ndocc  Nsocc
   -------------------------------------------------------
     A         38      38       0       0       0       0
   -------------------------------------------------------
    Total      38      38       9       9       9       0
   -------------------------------------------------------

  ==> Integral Setup <==

  ==> DFJK: Density-Fitted J/K Matrices <==

    J tasked:                  Yes
    K tasked:                  Yes
    wK tasked:                  No
    OpenMP threads:              1
    Integrals threads:           1
    Memory (MB):              3006
    Algorithm:                Core
    Integral Cache:           NONE
    Schwarz Cutoff:          1E-12
    Fitting Condition:       1E-12

   => Auxiliary Basis Set <=

  Basis Set: (CC-PVDZ AUX)
    Blend: CC-PVDZ-JKFIT
    Number of shells: 66
    Number of basis function: 186
    Number of Cartesian functions: 212
    Spherical Harmonics?: true
    Max angular momentum: 3

  Minimum eigenvalue in the overlap matrix is 2.5745939570E-02.
  Using Symmetric Orthogonalization.

  SCF Guess: Superposition of Atomic Densities via on-the-fly atomic UHF.

  ==> Iterations <==

                           Total Energy        Delta E     RMS |[F,P]|

   @DF-RKS iter   0:  -151.61208420723199   -1.51612e+02   4.66531e-02 
   @DF-RKS iter   1:  -151.50917228883031    1.02912e-01   8.33145e-03 
   @DF-RKS iter   2:  -151.50584312522605    3.32916e-03   9.01991e-03 DIIS
   @DF-RKS iter   3:  -151.54917852509695   -4.33354e-02   8.32291e-04 DIIS
   @DF-RKS iter   4:  -151.54944638510324   -2.67860e-04   3.95980e-04 DIIS
   @DF-RKS iter   5:  -151.54951595834217   -6.95732e-05   1.55613e-04 DIIS
   @DF-RKS iter   6:  -151.54952859695140   -1.26386e-05   5.81107e-06 DIIS
   @DF-RKS iter   7:  -151.54952861926725   -2.23158e-08   1.18148e-06 DIIS
   @DF-RKS iter   8:  -151.54952862022526   -9.58011e-10   1.02551e-07 DIIS

  ==> Post-Iterations <==

    Orbital Energies (a.u.)
    -----------------------

    Doubly Occupied:                                                      

       1A    -19.189038     2A    -19.188997     3A     -1.113881  
       4A     -0.886611     5A     -0.520976     6A     -0.479935  
       7A     -0.417443     8A     -0.299326     9A     -0.281763  

    Virtual:                                                              

      10A      0.023995    11A      0.046349    12A      0.104626  
      13A      0.573380    14A      0.581408    15A      0.849246  
      16A      0.872329    17A      0.910619    18A      0.929914  
      19A      1.011895    20A      1.053846    21A      1.229491  
      22A      1.247578    23A      1.379655    24A      1.399203  
      25A      1.686308    26A      1.702654    27A      2.067384  
      28A      2.078754    29A      2.410468    30A      2.483690  
      31A      2.519655    32A      2.867788    33A      2.924475  
      34A      3.061333    35A      3.117841    36A      3.473214  
      37A      3.548662    38A      3.822744  

    Final Occupation by Irrep:
              A 
    DOCC [     9 ]

  Energy converged.

  @DF-RKS Final Energy:  -151.54952862022526

   => Energetics <=

    Nuclear Repulsion Energy =             36.8126034353308640
    One-Electron Energy =                -281.5843095346185692
    Two-Electron Energy =                 107.6842747349884348
    DFT Exchange-Correlation Energy =     -14.4618066859259891
    Empirical Dispersion Energy =          -0.0002905700000000
    PCM Polarization Energy =               0.0000000000000000
    EFP Energy =                            0.0000000000000000
    Total Energy =                       -151.5495286202252601



Properties will be evaluated at   0.000000,   0.000000,   0.000000 Bohr

Properties computed using the SCF density matrix

  Nuclear Dipole Moment: (a.u.)
     X:    59.0024      Y:    -4.0889      Z:     1.7625

  Electronic Dipole Moment: (a.u.)
     X:   -59.0475      Y:     3.3032      Z:    -1.4886

  Dipole Moment: (a.u.)
     X:    -0.0452      Y:    -0.7856      Z:     0.2739     Total:     0.8332

  Dipole Moment: (Debye)
     X:    -0.1148      Y:    -1.9968      Z:     0.6962     Total:     2.1178


*** tstop() called on computer06 at Tue Dec 12 12:40:28 2017
Module time:
	user time   =       4.31 seconds =       0.07 minutes
	system time =       0.06 seconds =       0.00 minutes
	total time  =          5 seconds =       0.08 minutes
Total time:
	user time   =       4.31 seconds =       0.07 minutes
	system time =       0.06 seconds =       0.00 minutes
	total time  =          5 seconds =       0.08 minutes


Properties will be evaluated at   0.000000,   0.000000,   0.000000 Bohr

Properties computed using the  density matrix

  Nuclear Dipole Moment: (a.u.)
     X:    59.0024      Y:    -4.0889      Z:     1.7625

  Electronic Dipole Moment: (a.u.)
     X:   -59.0475      Y:     3.3032      Z:    -1.4886

  Dipole Moment: (a.u.)
     X:    -0.0452      Y:    -0.7856      Z:     0.2739     Total:     0.8332

  Dipole Moment: (Debye)
     X:    -0.1148      Y:    -1.9968      Z:     0.6962     Total:     2.1178

  Quadrupole Moment: (Debye Ang)
    XX:   -11.4393     YY:   -10.3294     ZZ:    -9.9622
    XY:    -2.6252     XZ:     3.5288     YZ:    -0.0505

  Traceless Quadrupole Moment: (Debye Ang)
    XX:    -0.8623     YY:     0.2476     ZZ:     0.6148
    XY:    -2.6252     XZ:     3.5288     YZ:    -0.0505

  Mulliken Charges: (a.u.)
   Center  Symbol    Alpha    Beta     Spin     Total
       1     O     4.08935  4.08935  0.00000 -0.17870
       2     O     4.08933  4.08933  0.00000 -0.17866
       3     H     0.41065  0.41065  0.00000  0.17870
       4     H     0.41067  0.41067  0.00000  0.17866

   Total alpha =  9.00000, Total beta =  9.00000, Total charge =  0.00000


*** Psi4 exiting successfully. Buy a developer a beer!
