    -----------------------------------------------------------------------
          Psi4: An Open-Source Ab Initio Electronic Structure Package
                              Psi4 (no tag) Driver

                          Git: Rev {detached?}  

    J. M. Turney, A. C. Simmonett, R. M. Parrish, E. G. Hohenstein,
    F. A. Evangelista, J. T. Fermann, B. J. Mintz, L. A. Burns, J. J. Wilke,
    M. L. Abrams, N. J. Russ, M. L. Leininger, C. L. Janssen, E. T. Seidl,
    W. D. Allen, H. F. Schaefer, R. A. King, E. F. Valeev, C. D. Sherrill,
    and T. D. Crawford, WIREs Comput. Mol. Sci. 2, 556-565 (2012)
    (doi: 10.1002/wcms.93)

                         Additional Contributions by
    A. E. DePrince, M. Saitow, U. Bozkaya, A. Yu. Sokolov
    -----------------------------------------------------------------------


    Psi4 started on: Tue Jul  5 16:51:36 2016

    Process ID:  30232
    PSI4DATADIR: /export131/home/mjharvey/miniconda3/share
    Memory level set to 256.000 MB

  ==> Input File <==

--------------------------------------------------------------------------
set {
	reference rhf
	basis 6-31G*
}


set_num_threads( 1 )
memory 2 gb

molecule MOL {
0 1

H	 0.663642	 3.768237	 -0.000000
O	 1.421650	 3.199797	 -0.000000
C	 1.058466	 1.901616	 0.000000
C	 2.076847	 0.953543	 -0.000000
C	 -0.262841	 1.498776	 -0.000000
H	 3.095849	 1.291911	 0.000000
C	 1.769121	 -0.391213	 0.000000
H	 -1.067389	 2.207457	 -0.000000
C	 -0.536158	 0.140425	 0.000000
H	 2.561600	 -1.116358	 0.000000
C	 0.448970	 -0.821380	 0.000000
N	 -1.935604	 -0.280333	 0.000000
H	 0.194536	 -1.860932	 0.000000
O	 -2.161694	 -1.452901	 0.000000
O	 -2.770341	 0.571417	 0.000000

	symmetry c1
}
set optking {
	frozen_dihedral = ("
		4 3 2 1
	")
}

ee = energy('scf')
oeprop('DIPOLE', 'QUADRUPOLE', 'MULLIKEN_CHARGES')
f=open( 'psi4out.xyz', 'w' )
f.write( "15  " )
f.write( str(ee) + "\n" )
f.write( MOL.save_string_xyz() )
f.close()
--------------------------------------------------------------------------

  Memory set to   2.000 GiB by Python script.

*** tstart() called on cx1-1-4-3.cx1.hpc.ic.ac.uk
*** at Tue Jul  5 16:51:37 2016


         ---------------------------------------------------------
                                   SCF
            by Justin Turney, Rob Parrish, and Andy Simmonett
                              RHF Reference
                        1 Threads,   2000 MiB Core
         ---------------------------------------------------------

  ==> Geometry <==

    Molecular point group: c1
    Full point group: Cs

    Geometry (in Angstrom), charge = 0, multiplicity = 1:

       Center              X                  Y                   Z               Mass       
    ------------   -----------------  -----------------  -----------------  -----------------
           H          0.829861462739     3.215388869039     0.000000000000     1.007825032070
           O          1.587869462739     2.646948869039     0.000000000000    15.994914619560
           C          1.224685462739     1.348767869039     0.000000000000    12.000000000000
           C          2.243066462739     0.400694869039     0.000000000000    12.000000000000
           C         -0.096621537261     0.945927869039     0.000000000000    12.000000000000
           H          3.262068462739     0.739062869039     0.000000000000     1.007825032070
           C          1.935340462739    -0.944061130961     0.000000000000    12.000000000000
           H         -0.901169537261     1.654608869039     0.000000000000     1.007825032070
           C         -0.369938537261    -0.412423130961     0.000000000000    12.000000000000
           H          2.727819462739    -1.669206130961     0.000000000000     1.007825032070
           C          0.615189462739    -1.374228130961     0.000000000000    12.000000000000
           N         -1.769384537261    -0.833181130961     0.000000000000    14.003074004780
           H          0.360755462739    -2.413780130961     0.000000000000     1.007825032070
           O         -1.995474537261    -2.005749130961     0.000000000000    15.994914619560
           O         -2.604121537261     0.018568869039     0.000000000000    15.994914619560

  Running in c1 symmetry.

  Rotational constants: A =      0.09339  B =      0.03346  C =      0.02464 [cm^-1]
  Rotational constants: A =   2799.67733  B =   1003.25436  C =    738.58505 [MHz]
  Nuclear repulsion =  503.479291365887946

  Charge       = 0
  Multiplicity = 1
  Electrons    = 72
  Nalpha       = 36
  Nbeta        = 36

  ==> Algorithm <==

  SCF Algorithm Type is DF.
  DIIS enabled.
  MOM disabled.
  Fractional occupation disabled.
  Guess Type is CORE.
  Energy threshold   = 1.00e-06
  Density threshold  = 1.00e-06
  Integral threshold = 0.00e+00

  ==> Primary Basis <==

  Basis Set: 6-31G*
    Number of shells: 70
    Number of basis function: 160
    Number of Cartesian functions: 160
    Spherical Harmonics?: false
    Max angular momentum: 2

  ==> Pre-Iterations <==

   -------------------------------------------------------
    Irrep   Nso     Nmo     Nalpha   Nbeta   Ndocc  Nsocc
   -------------------------------------------------------
     A        160     160       0       0       0       0
   -------------------------------------------------------
    Total     160     160      36      36      36       0
   -------------------------------------------------------

 OEINTS: Overlap, kinetic, potential, dipole, and quadrupole integrals
         stored in file 35.

  ==> Integral Setup <==

  ==> DFJK: Density-Fitted J/K Matrices <==

    J tasked:                  Yes
    K tasked:                  Yes
    wK tasked:                  No
    OpenMP threads:              1
    Integrals threads:           1
    Memory (MB):              1430
    Algorithm:                Core
    Integral Cache:           NONE
    Schwarz Cutoff:          1E-12
    Fitting Condition:       1E-12

   => Auxiliary Basis Set <=

  Basis Set: 
    Number of shells: 285
    Number of basis function: 935
    Number of Cartesian functions: 935
    Spherical Harmonics?: false
    Max angular momentum: 3

  Minimum eigenvalue in the overlap matrix is 4.1747705662E-04.
  Using Symmetric Orthogonalization.
  SCF Guess: Core (One-Electron) Hamiltonian.

  ==> Iterations <==

                           Total Energy        Delta E     RMS |[F,P]|

   @DF-RHF iter   1:  -421.65572922971847   -4.21656e+02   6.02653e-02 
   @DF-RHF iter   2:  -308.81554550092170    1.12840e+02   5.75635e-02 DIIS
   @DF-RHF iter   3:  -328.41208069094245   -1.95965e+01   7.12489e-02 DIIS
   @DF-RHF iter   4:  -492.53272183389691   -1.64121e+02   2.46034e-02 DIIS
   @DF-RHF iter   5:  -484.30805650927522    8.22467e+00   3.69135e-02 DIIS
   @DF-RHF iter   6:  -507.57565430003120   -2.32676e+01   1.00564e-02 DIIS
   @DF-RHF iter   7:  -508.69144807720733   -1.11579e+00   4.50461e-03 DIIS
   @DF-RHF iter   8:  -508.92221619784544   -2.30768e-01   2.30428e-03 DIIS
   @DF-RHF iter   9:  -509.02071251521096   -9.84963e-02   6.25962e-04 DIIS
   @DF-RHF iter  10:  -509.02615033078467   -5.43782e-03   2.38148e-04 DIIS
   @DF-RHF iter  11:  -509.02735183663350   -1.20151e-03   9.87558e-05 DIIS
   @DF-RHF iter  12:  -509.02761778445330   -2.65948e-04   6.25354e-05 DIIS
   @DF-RHF iter  13:  -509.02773037759511   -1.12593e-04   2.37779e-05 DIIS
   @DF-RHF iter  14:  -509.02775724072359   -2.68631e-05   8.15842e-06 DIIS
   @DF-RHF iter  15:  -509.02776181889686   -4.57817e-06   3.22723e-06 DIIS
   @DF-RHF iter  16:  -509.02776258340560   -7.64509e-07   1.13852e-06 DIIS
   @DF-RHF iter  17:  -509.02776265383426   -7.04287e-08   4.04487e-07 DIIS

  ==> Post-Iterations <==

    Orbital Energies (a.u.)
    -----------------------

    Doubly Occupied:                                                      

       1A    -20.615804     2A    -20.605271     3A    -20.604481  
       4A    -15.859545     5A    -11.330601     6A    -11.311194  
       7A    -11.267332     8A    -11.266812     9A    -11.263645  
      10A    -11.260801    11A     -1.638340    12A     -1.436509  
      13A     -1.421599    14A     -1.200537    15A     -1.095037  
      16A     -1.046474    17A     -0.966222    18A     -0.878687  
      19A     -0.828646    20A     -0.791196    21A     -0.751980  
      22A     -0.737250    23A     -0.724061    24A     -0.707874  
      25A     -0.673220    26A     -0.635228    27A     -0.615900  
      28A     -0.594725    29A     -0.558630    30A     -0.545073  
      31A     -0.515291    32A     -0.492374    33A     -0.490055  
      34A     -0.454990    35A     -0.377484    36A     -0.342933  

    Virtual:                                                              

      37A      0.057045    38A      0.127634    39A      0.182029  
      40A      0.204103    41A      0.228774    42A      0.294521  
      43A      0.297035    44A      0.323999    45A      0.359756  
      46A      0.381738    47A      0.425949    48A      0.446110  
      49A      0.451825    50A      0.517638    51A      0.535371  
      52A      0.548149    53A      0.604293    54A      0.676673  
      55A      0.696710    56A      0.709925    57A      0.713723  
      58A      0.750929    59A      0.786449    60A      0.797513  
      61A      0.799359    62A      0.812855    63A      0.831333  
      64A      0.868749    65A      0.877672    66A      0.884026  
      67A      0.886712    68A      0.946969    69A      0.978282  
      70A      0.979003    71A      0.996363    72A      1.026950  
      73A      1.044270    74A      1.074106    75A      1.089994  
      76A      1.092182    77A      1.135937    78A      1.157496  
      79A      1.169583    80A      1.176996    81A      1.215570  
      82A      1.224242    83A      1.235548    84A      1.249018  
      85A      1.282553    86A      1.283341    87A      1.293785  
      88A      1.335920    89A      1.391529    90A      1.401574  
      91A      1.458498    92A      1.460632    93A      1.496828  
      94A      1.524487    95A      1.574172    96A      1.604626  
      97A      1.605025    98A      1.649093    99A      1.662417  
     100A      1.693995   101A      1.713348   102A      1.728824  
     103A      1.736039   104A      1.762200   105A      1.942890  
     106A      1.981370   107A      2.004225   108A      2.015653  
     109A      2.047492   110A      2.070536   111A      2.075855  
     112A      2.105186   113A      2.107297   114A      2.164377  
     115A      2.216757   116A      2.231653   117A      2.233716  
     118A      2.264100   119A      2.268010   120A      2.289429  
     121A      2.369930   122A      2.385370   123A      2.438275  
     124A      2.456222   125A      2.462682   126A      2.480825  
     127A      2.550218   128A      2.588974   129A      2.602583  
     130A      2.609479   131A      2.735689   132A      2.758208  
     133A      2.803770   134A      2.851170   135A      2.892295  
     136A      2.935907   137A      2.951815   138A      2.967394  
     139A      3.009001   140A      3.092925   141A      3.104921  
     142A      3.127830   143A      3.160590   144A      3.258673  
     145A      3.282060   146A      3.301015   147A      3.406849  
     148A      3.501576   149A      3.608743   150A      3.838207  
     151A      4.173563   152A      4.289467   153A      4.374248  
     154A      4.460404   155A      4.503989   156A      4.533271  
     157A      4.612550   158A      4.758638   159A      4.870991  
     160A      5.160746  

    Final Occupation by Irrep:
              A 
    DOCC [    36 ]

  Energy converged.

  @DF-RHF Final Energy:  -509.02776265383426

   => Energetics <=

    Nuclear Repulsion Energy =            503.4792913658879456
    One-Electron Energy =               -1693.2023509313517025
    Two-Electron Energy =                 680.6952969116282475
    DFT Exchange-Correlation Energy =       0.0000000000000000
    Empirical Dispersion Energy =           0.0000000000000000
    PCM Polarization Energy =               0.0000000000000000
    EFP Energy =                            0.0000000000000000
    Total Energy =                       -509.0277626538354525

    Alert: EFP and PCM quantities not currently incorporated into SCF psivars.

Properties will be evaluated at   0.000000,   0.000000,   0.000000 Bohr
  ==> Properties <==


Properties computed using the SCF density matrix

  Nuclear Dipole Moment: (a.u.)
     X:     5.8774      Y:     1.4362      Z:     0.0000

  Electronic Dipole Moment: (a.u.)
     X:    -4.5489      Y:    -0.8007      Z:    -0.0000

  Dipole Moment: (a.u.)
     X:     1.3285      Y:     0.6356      Z:    -0.0000     Total:     1.4727

  Dipole Moment: (Debye)
     X:     3.3766      Y:     1.6154      Z:    -0.0000     Total:     3.7432


  Saving occupied orbitals to File 180.

*** tstop() called on cx1-1-4-3.cx1.hpc.ic.ac.uk at Tue Jul  5 16:51:58 2016
Module time:
	user time   =      20.94 seconds =       0.35 minutes
	system time =       0.24 seconds =       0.00 minutes
	total time  =         21 seconds =       0.35 minutes
Total time:
	user time   =      20.94 seconds =       0.35 minutes
	system time =       0.24 seconds =       0.00 minutes
	total time  =         21 seconds =       0.35 minutes


Properties will be evaluated at   0.000000,   0.000000,   0.000000 Bohr

Properties computed using the  density matrix

  Nuclear Dipole Moment: (a.u.)
     X:     5.8774      Y:     1.4362      Z:     0.0000

  Electronic Dipole Moment: (a.u.)
     X:    -4.5489      Y:    -0.8007      Z:    -0.0000

  Dipole Moment: (a.u.)
     X:     1.3285      Y:     0.6356      Z:    -0.0000     Total:     1.4727

  Dipole Moment: (Debye)
     X:     3.3766      Y:     1.6154      Z:    -0.0000     Total:     3.7432

  Quadrupole Moment: (Debye Ang)
    XX:   -64.5700     YY:   -52.1984     ZZ:   -57.9993
    XY:    -9.0811     XZ:    -0.0000     YZ:    -0.0000

  Traceless Quadrupole Moment: (Debye Ang)
    XX:    -6.3141     YY:     6.0575     ZZ:     0.2566
    XY:    -9.0811     XZ:    -0.0000     YZ:    -0.0000

  Mulliken Charges: (a.u.)
   Center  Symbol    Alpha    Beta     Spin     Total
       1     H     0.26726  0.26726  0.00000  0.46548
       2     O     4.37577  4.37577  0.00000 -0.75153
       3     C     2.79131  2.79131  0.00000  0.41738
       4     C     3.10848  3.10848  0.00000 -0.21695
       5     C     3.13727  3.13727  0.00000 -0.27454
       6     H     0.38086  0.38086  0.00000  0.23827
       7     C     3.10057  3.10057  0.00000 -0.20114
       8     H     0.36801  0.36801  0.00000  0.26398
       9     C     2.91369  2.91369  0.00000  0.17261
      10     H     0.38656  0.38656  0.00000  0.22688
      11     C     3.09776  3.09776  0.00000 -0.19552
      12     N     3.24017  3.24017  0.00000  0.51966
      13     H     0.36511  0.36511  0.00000  0.26979
      14     O     4.23237  4.23237  0.00000 -0.46473
      15     O     4.23482  4.23482  0.00000 -0.46963

   Total alpha = 36.00000, Total beta = 36.00000, Total charge =  0.00000


*** PSI4 exiting successfully. Buy a developer a beer!
