    -----------------------------------------------------------------------
          Psi4: An Open-Source Ab Initio Electronic Structure Package
                              Psi4 (no tag) Driver

                          Git: Rev {detached?}  

    J. M. Turney, A. C. Simmonett, R. M. Parrish, E. G. Hohenstein,
    F. A. Evangelista, J. T. Fermann, B. J. Mintz, L. A. Burns, J. J. Wilke,
    M. L. Abrams, N. J. Russ, M. L. Leininger, C. L. Janssen, E. T. Seidl,
    W. D. Allen, H. F. Schaefer, R. A. King, E. F. Valeev, C. D. Sherrill,
    and T. D. Crawford, WIREs Comput. Mol. Sci. 2, 556-565 (2012)
    (doi: 10.1002/wcms.93)

                         Additional Contributions by
    A. E. DePrince, M. Saitow, U. Bozkaya, A. Yu. Sokolov
    -----------------------------------------------------------------------


    Psi4 started on: Tue Jul  5 17:07:05 2016

    Process ID:  31476
    PSI4DATADIR: /export131/home/mjharvey/miniconda3/share
    Memory level set to 256.000 MB

  ==> Input File <==

--------------------------------------------------------------------------
set {
	reference rhf
	basis 6-31G*
}


set_num_threads( 1 )
memory 2 gb

molecule MOL {
0 1

H	 2.451652	 -2.178703	 0.543297
O	 2.773837	 -1.297590	 0.410870
C	 1.759943	 -0.431505	 0.213148
C	 0.710121	 -0.458093	 1.125896
C	 1.736610	 0.457833	 -0.843577
H	 0.751612	 -1.158456	 1.938687
C	 -0.356655	 0.403898	 0.977484
H	 2.531788	 0.499946	 -1.561522
C	 0.650008	 1.309273	 -0.962588
H	 -1.162892	 0.376600	 1.686776
C	 -0.403452	 1.306948	 -0.076154
N	 0.630305	 2.248113	 -2.082265
H	 -1.224125	 1.981801	 -0.204511
O	 1.628110	 2.360763	 -2.728583
O	 -0.380742	 2.847069	 -2.285489

	symmetry c1
}
set optking {
	frozen_dihedral = ("
		11 9 12 14
	")
}

ee = energy('scf')
oeprop('DIPOLE', 'QUADRUPOLE', 'MULLIKEN_CHARGES')
f=open( 'psi4out.xyz', 'w' )
f.write( "15  " )
f.write( str(ee) + "\n" )
f.write( MOL.save_string_xyz() )
f.close()
--------------------------------------------------------------------------

  Memory set to   2.000 GiB by Python script.

*** tstart() called on cx1-1-4-3.cx1.hpc.ic.ac.uk
*** at Tue Jul  5 17:07:05 2016


         ---------------------------------------------------------
                                   SCF
            by Justin Turney, Rob Parrish, and Andy Simmonett
                              RHF Reference
                        1 Threads,   2000 MiB Core
         ---------------------------------------------------------

  ==> Geometry <==

    Molecular point group: c1
    Full point group: C1

    Geometry (in Angstrom), charge = 0, multiplicity = 1:

       Center              X                  Y                   Z               Mass       
    ------------   -----------------  -----------------  -----------------  -----------------
           H          1.547667715004    -3.074947758121     1.227724747412     1.007825032070
           O          1.869852715004    -2.193834758121     1.095297747412    15.994914619560
           C          0.855958715004    -1.327749758121     0.897575747412    12.000000000000
           C         -0.193863284996    -1.354337758121     1.810323747412    12.000000000000
           C          0.832625715004    -0.438411758121    -0.159149252588    12.000000000000
           H         -0.152372284996    -2.054700758121     2.623114747412     1.007825032070
           C         -1.260639284996    -0.492346758121     1.661911747412    12.000000000000
           H          1.627803715004    -0.396298758121    -0.877094252588     1.007825032070
           C         -0.253976284996     0.413028241879    -0.278160252588    12.000000000000
           H         -2.066876284996    -0.519644758121     2.371203747412     1.007825032070
           C         -1.307436284996     0.410703241879     0.608273747412    12.000000000000
           N         -0.273679284996     1.351868241879    -1.397837252588    14.003074004780
           H         -2.128109284996     1.085556241879     0.479916747412     1.007825032070
           O          0.724125715004     1.464518241879    -2.044155252588    15.994914619560
           O         -1.284726284996     1.950824241879    -1.601061252588    15.994914619560

  Running in c1 symmetry.

  Rotational constants: A =      0.09504  B =      0.03302  C =      0.02460 [cm^-1]
  Rotational constants: A =   2849.18419  B =    989.77699  C =    737.56267 [MHz]
  Nuclear repulsion =  503.152013154605072

  Charge       = 0
  Multiplicity = 1
  Electrons    = 72
  Nalpha       = 36
  Nbeta        = 36

  ==> Algorithm <==

  SCF Algorithm Type is DF.
  DIIS enabled.
  MOM disabled.
  Fractional occupation disabled.
  Guess Type is CORE.
  Energy threshold   = 1.00e-06
  Density threshold  = 1.00e-06
  Integral threshold = 0.00e+00

  ==> Primary Basis <==

  Basis Set: 6-31G*
    Number of shells: 70
    Number of basis function: 160
    Number of Cartesian functions: 160
    Spherical Harmonics?: false
    Max angular momentum: 2

  ==> Pre-Iterations <==

   -------------------------------------------------------
    Irrep   Nso     Nmo     Nalpha   Nbeta   Ndocc  Nsocc
   -------------------------------------------------------
     A        160     160       0       0       0       0
   -------------------------------------------------------
    Total     160     160      36      36      36       0
   -------------------------------------------------------

 OEINTS: Overlap, kinetic, potential, dipole, and quadrupole integrals
         stored in file 35.

  ==> Integral Setup <==

  ==> DFJK: Density-Fitted J/K Matrices <==

    J tasked:                  Yes
    K tasked:                  Yes
    wK tasked:                  No
    OpenMP threads:              1
    Integrals threads:           1
    Memory (MB):              1430
    Algorithm:                Core
    Integral Cache:           NONE
    Schwarz Cutoff:          1E-12
    Fitting Condition:       1E-12

   => Auxiliary Basis Set <=

  Basis Set: 
    Number of shells: 285
    Number of basis function: 935
    Number of Cartesian functions: 935
    Spherical Harmonics?: false
    Max angular momentum: 3

  Minimum eigenvalue in the overlap matrix is 4.1613800548E-04.
  Using Symmetric Orthogonalization.
  SCF Guess: Core (One-Electron) Hamiltonian.

  ==> Iterations <==

                           Total Energy        Delta E     RMS |[F,P]|

   @DF-RHF iter   1:  -421.34442452856985   -4.21344e+02   6.02966e-02 
   @DF-RHF iter   2:  -308.29933742444058    1.13045e+02   5.69886e-02 DIIS
   @DF-RHF iter   3:  -328.23724406071977   -1.99379e+01   7.13552e-02 DIIS
   @DF-RHF iter   4:  -492.55532450528727   -1.64318e+02   2.63390e-02 DIIS
   @DF-RHF iter   5:  -490.44143105080758    2.11389e+00   3.09327e-02 DIIS
   @DF-RHF iter   6:  -508.11038734386153   -1.76690e+01   8.04012e-03 DIIS
   @DF-RHF iter   7:  -508.85002135835720   -7.39634e-01   3.44429e-03 DIIS
   @DF-RHF iter   8:  -508.97712391454212   -1.27103e-01   1.50988e-03 DIIS
   @DF-RHF iter   9:  -509.01798469253214   -4.08608e-02   5.54898e-04 DIIS
   @DF-RHF iter  10:  -509.02187484718826   -3.89015e-03   1.80964e-04 DIIS
   @DF-RHF iter  11:  -509.02250439590858   -6.29549e-04   6.48179e-05 DIIS
   @DF-RHF iter  12:  -509.02258934367427   -8.49478e-05   3.81242e-05 DIIS
   @DF-RHF iter  13:  -509.02261925056001   -2.99069e-05   1.44828e-05 DIIS
   @DF-RHF iter  14:  -509.02262641859630   -7.16804e-06   5.52625e-06 DIIS
   @DF-RHF iter  15:  -509.02262767467636   -1.25608e-06   2.24719e-06 DIIS
   @DF-RHF iter  16:  -509.02262795038433   -2.75708e-07   1.07074e-06 DIIS
   @DF-RHF iter  17:  -509.02262803446462   -8.40803e-08   3.97008e-07 DIIS

  ==> Post-Iterations <==

    Orbital Energies (a.u.)
    -----------------------

    Doubly Occupied:                                                      

       1A    -20.606544     2A    -20.603381     3A    -20.602800  
       4A    -15.857715     5A    -11.325501     6A    -11.309822  
       7A    -11.267796     8A    -11.266592     9A    -11.266161  
      10A    -11.264016    11A     -1.636511    12A     -1.430594  
      13A     -1.419654    14A     -1.200381    15A     -1.094258  
      16A     -1.046746    17A     -0.964191    18A     -0.866639  
      19A     -0.840762    20A     -0.794659    21A     -0.735629  
      22A     -0.732818    23A     -0.721715    24A     -0.712161  
      25A     -0.681388    26A     -0.640550    27A     -0.625532  
      28A     -0.572656    29A     -0.566529    30A     -0.527759  
      31A     -0.513849    32A     -0.490123    33A     -0.486359  
      34A     -0.452676    35A     -0.377692    36A     -0.350455  

    Virtual:                                                              

      37A      0.058181    38A      0.124050    39A      0.173883  
      40A      0.212304    41A      0.225762    42A      0.289777  
      43A      0.293922    44A      0.327085    45A      0.357756  
      46A      0.385651    47A      0.425503    48A      0.436824  
      49A      0.448770    50A      0.520996    51A      0.530806  
      52A      0.567587    53A      0.607526    54A      0.675994  
      55A      0.694663    56A      0.709539    57A      0.715675  
      58A      0.754019    59A      0.786441    60A      0.796152  
      61A      0.800270    62A      0.810863    63A      0.838082  
      64A      0.870841    65A      0.877198    66A      0.884603  
      67A      0.894902    68A      0.948476    69A      0.978406  
      70A      0.991233    71A      1.008271    72A      1.041904  
      73A      1.049102    74A      1.066335    75A      1.076097  
      76A      1.095876    77A      1.118644    78A      1.131313  
      79A      1.169240    80A      1.171232    81A      1.198407  
      82A      1.226240    83A      1.236376    84A      1.257339  
      85A      1.269868    86A      1.294605    87A      1.321446  
      88A      1.343643    89A      1.376244    90A      1.409065  
      91A      1.424240    92A      1.454133    93A      1.464108  
      94A      1.510997    95A      1.543939    96A      1.586226  
      97A      1.632882    98A      1.650319    99A      1.670521  
     100A      1.695949   101A      1.725758   102A      1.731738  
     103A      1.735641   104A      1.743769   105A      1.909294  
     106A      1.970911   107A      2.012603   108A      2.018980  
     109A      2.054646   110A      2.076764   111A      2.097514  
     112A      2.110049   113A      2.122724   114A      2.176114  
     115A      2.215880   116A      2.229137   117A      2.235008  
     118A      2.255718   119A      2.271344   120A      2.293399  
     121A      2.368978   122A      2.394417   123A      2.432815  
     124A      2.459708   125A      2.473624   126A      2.481246  
     127A      2.527121   128A      2.557283   129A      2.604488  
     130A      2.619441   131A      2.735906   132A      2.744939  
     133A      2.832262   134A      2.854679   135A      2.896033  
     136A      2.918929   137A      2.962396   138A      2.985066  
     139A      3.013880   140A      3.093582   141A      3.099267  
     142A      3.106259   143A      3.165388   144A      3.254251  
     145A      3.290004   146A      3.301495   147A      3.412802  
     148A      3.498262   149A      3.607257   150A      3.833363  
     151A      4.161290   152A      4.272758   153A      4.354192  
     154A      4.436938   155A      4.501940   156A      4.535448  
     157A      4.607990   158A      4.757279   159A      4.869923  
     160A      5.158910  

    Final Occupation by Irrep:
              A 
    DOCC [    36 ]

  Energy converged.

  @DF-RHF Final Energy:  -509.02262803446462

   => Energetics <=

    Nuclear Repulsion Energy =            503.1520131546050720
    One-Electron Energy =               -1692.6438668123857951
    Two-Electron Energy =                 680.4692256233161061
    DFT Exchange-Correlation Energy =       0.0000000000000000
    Empirical Dispersion Energy =           0.0000000000000000
    PCM Polarization Energy =               0.0000000000000000
    EFP Energy =                            0.0000000000000000
    Total Energy =                       -509.0226280344645602

    Alert: EFP and PCM quantities not currently incorporated into SCF psivars.

Properties will be evaluated at   0.000000,   0.000000,   0.000000 Bohr
  ==> Properties <==


Properties computed using the SCF density matrix

  Nuclear Dipole Moment: (a.u.)
     X:    -1.0915      Y:    -4.6479      Z:     5.4524

  Electronic Dipole Moment: (a.u.)
     X:     0.6009      Y:     3.0145      Z:    -3.9417

  Dipole Moment: (a.u.)
     X:    -0.4906      Y:    -1.6334      Z:     1.5108     Total:     2.2784

  Dipole Moment: (Debye)
     X:    -1.2469      Y:    -4.1517      Z:     3.8400     Total:     5.7911


  Saving occupied orbitals to File 180.

*** tstop() called on cx1-1-4-3.cx1.hpc.ic.ac.uk at Tue Jul  5 17:07:29 2016
Module time:
	user time   =      23.06 seconds =       0.38 minutes
	system time =       0.27 seconds =       0.00 minutes
	total time  =         24 seconds =       0.40 minutes
Total time:
	user time   =      23.06 seconds =       0.38 minutes
	system time =       0.27 seconds =       0.00 minutes
	total time  =         24 seconds =       0.40 minutes


Properties will be evaluated at   0.000000,   0.000000,   0.000000 Bohr

Properties computed using the  density matrix

  Nuclear Dipole Moment: (a.u.)
     X:    -1.0915      Y:    -4.6479      Z:     5.4524

  Electronic Dipole Moment: (a.u.)
     X:     0.6009      Y:     3.0145      Z:    -3.9417

  Dipole Moment: (a.u.)
     X:    -0.4906      Y:    -1.6334      Z:     1.5108     Total:     2.2784

  Dipole Moment: (Debye)
     X:    -1.2469      Y:    -4.1517      Z:     3.8400     Total:     5.7911

  Quadrupole Moment: (Debye Ang)
    XX:   -59.4396     YY:   -52.8128     ZZ:   -59.0804
    XY:     0.3772     XZ:    -4.2252     YZ:     1.7704

  Traceless Quadrupole Moment: (Debye Ang)
    XX:    -2.3286     YY:     4.2981     ZZ:    -1.9695
    XY:     0.3772     XZ:    -4.2252     YZ:     1.7704

  Mulliken Charges: (a.u.)
   Center  Symbol    Alpha    Beta     Spin     Total
       1     H     0.26731  0.26731  0.00000  0.46539
       2     O     4.38093  4.38093  0.00000 -0.76186
       3     C     2.80263  2.80263  0.00000  0.39473
       4     C     3.11854  3.11854  0.00000 -0.23707
       5     C     3.11294  3.11294  0.00000 -0.22589
       6     H     0.38936  0.38936  0.00000  0.22128
       7     C     3.10286  3.10286  0.00000 -0.20573
       8     H     0.35836  0.35836  0.00000  0.28328
       9     C     2.91399  2.91399  0.00000  0.17202
      10     H     0.38763  0.38763  0.00000  0.22474
      11     C     3.09392  3.09392  0.00000 -0.18783
      12     N     3.24259  3.24259  0.00000  0.51482
      13     H     0.36499  0.36499  0.00000  0.27003
      14     O     4.23164  4.23164  0.00000 -0.46328
      15     O     4.23232  4.23232  0.00000 -0.46464

   Total alpha = 36.00000, Total beta = 36.00000, Total charge =  0.00000


*** PSI4 exiting successfully. Buy a developer a beer!
