    -----------------------------------------------------------------------
          Psi4: An Open-Source Ab Initio Electronic Structure Package
                              Psi4 (no tag) Driver

                          Git: Rev {detached?}  

    J. M. Turney, A. C. Simmonett, R. M. Parrish, E. G. Hohenstein,
    F. A. Evangelista, J. T. Fermann, B. J. Mintz, L. A. Burns, J. J. Wilke,
    M. L. Abrams, N. J. Russ, M. L. Leininger, C. L. Janssen, E. T. Seidl,
    W. D. Allen, H. F. Schaefer, R. A. King, E. F. Valeev, C. D. Sherrill,
    and T. D. Crawford, WIREs Comput. Mol. Sci. 2, 556-565 (2012)
    (doi: 10.1002/wcms.93)

                         Additional Contributions by
    A. E. DePrince, M. Saitow, U. Bozkaya, A. Yu. Sokolov
    -----------------------------------------------------------------------


    Psi4 started on: Tue Jul  5 16:34:53 2016

    Process ID:  11257
    PSI4DATADIR: /export131/home/mjharvey/miniconda3/share
    Memory level set to 256.000 MB

  ==> Input File <==

--------------------------------------------------------------------------
set {
	reference rhf
	basis 6-31G*
}


set_num_threads( 1 )
memory 2 gb

molecule MOL {
0 1

H	 2.332609	 0.878551	 -1.051851
C	 2.357710	 0.000000	 -0.417167
C	 1.175432	 0.000000	 0.532082
H	 3.291263	 0.000000	 0.136880
H	 2.332609	 -0.878551	 -1.051851
O	 0.000000	 0.000000	 -0.221444
H	 1.206604	 0.877321	 1.177902
H	 1.206604	 -0.877321	 1.177902
C	 -1.175432	 0.000000	 0.532082
C	 -0.816006	 -0.225158	 1.987750
H	 -1.845961	 -0.783946	 0.180562
H	 -1.697607	 0.949029	 0.411982
H	 -0.306548	 -1.174447	 2.108619
H	 -1.709445	 -0.231016	 2.604372
H	 -0.157986	 0.560958	 2.340363

	symmetry c1
}
ee = energy('scf')
oeprop('DIPOLE', 'QUADRUPOLE', 'MULLIKEN_CHARGES')
f=open( 'psi4out.xyz', 'w' )
f.write( "15  " )
f.write( str(ee) + "\n" )
f.write( MOL.save_string_xyz() )
f.close()
--------------------------------------------------------------------------

  Memory set to   2.000 GiB by Python script.

*** tstart() called on cx1-3-15-4.cx1.hpc.ic.ac.uk
*** at Tue Jul  5 16:34:54 2016


         ---------------------------------------------------------
                                   SCF
            by Justin Turney, Rob Parrish, and Andy Simmonett
                              RHF Reference
                        1 Threads,   2000 MiB Core
         ---------------------------------------------------------

  ==> Geometry <==

    Molecular point group: c1
    Full point group: C1

    Geometry (in Angstrom), charge = 0, multiplicity = 1:

       Center              X                  Y                   Z               Mass       
    ------------   -----------------  -----------------  -----------------  -----------------
           H          2.019553750112     0.924271126873    -1.540188974351     1.007825032070
           C          2.044654750112     0.045720126873    -0.905504974351    12.000000000000
           C          0.862376750112     0.045720126873     0.043744025649    12.000000000000
           H          2.978207750112     0.045720126873    -0.351457974351     1.007825032070
           H          2.019553750112    -0.832830873127    -1.540188974351     1.007825032070
           O         -0.313055249888     0.045720126873    -0.709781974351    15.994914619560
           H          0.893548750112     0.923041126873     0.689564025649     1.007825032070
           H          0.893548750112    -0.831600873127     0.689564025649     1.007825032070
           C         -1.488487249888     0.045720126873     0.043744025649    12.000000000000
           C         -1.129061249888    -0.179437873127     1.499412025649    12.000000000000
           H         -2.159016249888    -0.738225873127    -0.307775974351     1.007825032070
           H         -2.010662249888     0.994749126873    -0.076355974351     1.007825032070
           H         -0.619603249888    -1.128726873127     1.620281025649     1.007825032070
           H         -2.022500249888    -0.185295873127     2.116034025649     1.007825032070
           H         -0.471041249888     0.606678126873     1.852025025649     1.007825032070

  Running in c1 symmetry.

  Rotational constants: A =      0.39971  B =      0.10074  C =      0.08564 [cm^-1]
  Rotational constants: A =  11982.89259  B =   3020.21445  C =   2567.54030 [MHz]
  Nuclear repulsion =  197.431126000973052

  Charge       = 0
  Multiplicity = 1
  Electrons    = 42
  Nalpha       = 21
  Nbeta        = 21

  ==> Algorithm <==

  SCF Algorithm Type is DF.
  DIIS enabled.
  MOM disabled.
  Fractional occupation disabled.
  Guess Type is CORE.
  Energy threshold   = 1.00e-06
  Density threshold  = 1.00e-06
  Integral threshold = 0.00e+00

  ==> Primary Basis <==

  Basis Set: 6-31G*
    Number of shells: 50
    Number of basis function: 95
    Number of Cartesian functions: 95
    Spherical Harmonics?: false
    Max angular momentum: 2

  ==> Pre-Iterations <==

   -------------------------------------------------------
    Irrep   Nso     Nmo     Nalpha   Nbeta   Ndocc  Nsocc
   -------------------------------------------------------
     A         95      95       0       0       0       0
   -------------------------------------------------------
    Total      95      95      21      21      21       0
   -------------------------------------------------------

 OEINTS: Overlap, kinetic, potential, dipole, and quadrupole integrals
         stored in file 35.

  ==> Integral Setup <==

  ==> DFJK: Density-Fitted J/K Matrices <==

    J tasked:                  Yes
    K tasked:                  Yes
    wK tasked:                  No
    OpenMP threads:              1
    Integrals threads:           1
    Memory (MB):              1430
    Algorithm:                Core
    Integral Cache:           NONE
    Schwarz Cutoff:          1E-12
    Fitting Condition:       1E-12

   => Auxiliary Basis Set <=

  Basis Set: 
    Number of shells: 210
    Number of basis function: 655
    Number of Cartesian functions: 655
    Spherical Harmonics?: false
    Max angular momentum: 3

  Minimum eigenvalue in the overlap matrix is 4.0142583720E-03.
  Using Symmetric Orthogonalization.
  SCF Guess: Core (One-Electron) Hamiltonian.

  ==> Iterations <==

                           Total Energy        Delta E     RMS |[F,P]|

   @DF-RHF iter   1:  -177.71217125100242   -1.77712e+02   8.08815e-02 
   @DF-RHF iter   2:  -163.64833347699204    1.40638e+01   6.47295e-02 DIIS
   @DF-RHF iter   3:  -203.29075573980060   -3.96424e+01   5.07517e-02 DIIS
   @DF-RHF iter   4:  -220.90593985788718   -1.76152e+01   4.12323e-02 DIIS
   @DF-RHF iter   5:  -231.83413508466066   -1.09282e+01   7.61472e-03 DIIS
   @DF-RHF iter   6:  -232.07560950020650   -2.41474e-01   2.67718e-03 DIIS
   @DF-RHF iter   7:  -232.10977960210801   -3.41701e-02   1.08680e-03 DIIS
   @DF-RHF iter   8:  -232.11593013431775   -6.15053e-03   2.59930e-04 DIIS
   @DF-RHF iter   9:  -232.11631701295562   -3.86879e-04   1.06571e-04 DIIS
   @DF-RHF iter  10:  -232.11638977494374   -7.27620e-05   4.06719e-05 DIIS
   @DF-RHF iter  11:  -232.11640186140767   -1.20865e-05   8.81610e-06 DIIS
   @DF-RHF iter  12:  -232.11640239783219   -5.36425e-07   1.46664e-06 DIIS
   @DF-RHF iter  13:  -232.11640241992274   -2.20905e-08   2.71423e-07 DIIS

  ==> Post-Iterations <==

    Orbital Energies (a.u.)
    -----------------------

    Doubly Occupied:                                                      

       1A    -20.547501     2A    -11.268453     3A    -11.264941  
       4A    -11.212728     5A    -11.206115     6A     -1.378776  
       7A     -1.035444     8A     -0.997678     9A     -0.879385  
      10A     -0.789226    11A     -0.684430    12A     -0.672562  
      13A     -0.616887    14A     -0.597915    15A     -0.549405  
      16A     -0.535105    17A     -0.515241    18A     -0.507313  
      19A     -0.503084    20A     -0.449999    21A     -0.397151  

    Virtual:                                                              

      22A      0.227534    23A      0.265958    24A      0.280849  
      25A      0.284543    26A      0.311568    27A      0.321677  
      28A      0.327240    29A      0.341703    30A      0.344045  
      31A      0.381113    32A      0.409205    33A      0.430049  
      34A      0.446948    35A      0.466888    36A      0.711032  
      37A      0.737537    38A      0.751885    39A      0.765084  
      40A      0.772093    41A      0.845980    42A      0.856946  
      43A      0.878997    44A      0.921325    45A      0.966660  
      46A      1.000320    47A      1.111612    48A      1.117233  
      49A      1.123748    50A      1.158757    51A      1.170164  
      52A      1.177521    53A      1.201705    54A      1.204642  
      55A      1.215792    56A      1.226357    57A      1.253187  
      58A      1.302067    59A      1.367805    60A      1.416661  
      61A      1.477767    62A      1.627745    63A      1.671377  
      64A      1.680822    65A      1.744415    66A      1.785626  
      67A      1.834613    68A      1.931977    69A      2.102658  
      70A      2.151686    71A      2.216703    72A      2.238970  
      73A      2.251819    74A      2.288566    75A      2.356062  
      76A      2.452797    77A      2.500310    78A      2.516061  
      79A      2.580204    80A      2.626614    81A      2.647595  
      82A      2.662312    83A      2.679445    84A      2.788744  
      85A      2.835402    86A      2.854374    87A      2.978183  
      88A      3.015492    89A      3.236423    90A      3.356747  
      91A      4.459053    92A      4.629661    93A      4.641749  
      94A      4.828254    95A      4.915470  

    Final Occupation by Irrep:
              A 
    DOCC [    21 ]

  Energy converged.

  @DF-RHF Final Energy:  -232.11640241992274

   => Energetics <=

    Nuclear Repulsion Energy =            197.4311260009730518
    One-Electron Energy =                -705.8763853010050298
    Two-Electron Energy =                 276.3288568801090150
    DFT Exchange-Correlation Energy =       0.0000000000000000
    Empirical Dispersion Energy =           0.0000000000000000
    PCM Polarization Energy =               0.0000000000000000
    EFP Energy =                            0.0000000000000000
    Total Energy =                       -232.1164024199229630

    Alert: EFP and PCM quantities not currently incorporated into SCF psivars.

Properties will be evaluated at   0.000000,   0.000000,   0.000000 Bohr
  ==> Properties <==


Properties computed using the SCF density matrix

  Nuclear Dipole Moment: (a.u.)
     X:     1.4249      Y:    -0.2081      Z:     2.9510

  Electronic Dipole Moment: (a.u.)
     X:    -1.4222      Y:     0.1862      Z:    -2.3303

  Dipole Moment: (a.u.)
     X:     0.0028      Y:    -0.0219      Z:     0.6207     Total:     0.6211

  Dipole Moment: (Debye)
     X:     0.0071      Y:    -0.0557      Z:     1.5777     Total:     1.5787


  Saving occupied orbitals to File 180.

*** tstop() called on cx1-3-15-4.cx1.hpc.ic.ac.uk at Tue Jul  5 16:34:59 2016
Module time:
	user time   =       5.04 seconds =       0.08 minutes
	system time =       0.03 seconds =       0.00 minutes
	total time  =          5 seconds =       0.08 minutes
Total time:
	user time   =       5.04 seconds =       0.08 minutes
	system time =       0.03 seconds =       0.00 minutes
	total time  =          5 seconds =       0.08 minutes


Properties will be evaluated at   0.000000,   0.000000,   0.000000 Bohr

Properties computed using the  density matrix

  Nuclear Dipole Moment: (a.u.)
     X:     1.4249      Y:    -0.2081      Z:     2.9510

  Electronic Dipole Moment: (a.u.)
     X:    -1.4222      Y:     0.1862      Z:    -2.3303

  Dipole Moment: (a.u.)
     X:     0.0028      Y:    -0.0219      Z:     0.6207     Total:     0.6211

  Dipole Moment: (Debye)
     X:     0.0071      Y:    -0.0557      Z:     1.5777     Total:     1.5787

  Quadrupole Moment: (Debye Ang)
    XX:   -30.9755     YY:   -32.8750     ZZ:   -35.1730
    XY:     0.0480     XZ:    -0.4154     YZ:     0.1604

  Traceless Quadrupole Moment: (Debye Ang)
    XX:     2.0323     YY:     0.1329     ZZ:    -2.1652
    XY:     0.0480     XZ:    -0.4154     YZ:     0.1604

  Mulliken Charges: (a.u.)
   Center  Symbol    Alpha    Beta     Spin     Total
       1     H     0.41443  0.41443  0.00000  0.17115
       2     C     3.23898  3.23898  0.00000 -0.47797
       3     C     2.99444  2.99444  0.00000  0.01113
       4     H     0.42383  0.42383  0.00000  0.15235
       5     H     0.41459  0.41459  0.00000  0.17082
       6     O     4.31450  4.31450  0.00000 -0.62900
       7     H     0.42992  0.42992  0.00000  0.14017
       8     H     0.42887  0.42887  0.00000  0.14226
       9     C     2.97483  2.97483  0.00000  0.05035
      10     C     3.27765  3.27765  0.00000 -0.55530
      11     H     0.42268  0.42268  0.00000  0.15464
      12     H     0.42671  0.42671  0.00000  0.14657
      13     H     0.41196  0.41196  0.00000  0.17608
      14     H     0.41352  0.41352  0.00000  0.17296
      15     H     0.41309  0.41309  0.00000  0.17381

   Total alpha = 21.00000, Total beta = 21.00000, Total charge = -0.00000


*** PSI4 exiting successfully. Buy a developer a beer!
