    -----------------------------------------------------------------------
          Psi4: An Open-Source Ab Initio Electronic Structure Package
                              Psi4 (no tag) Driver

                          Git: Rev {detached?}  

    J. M. Turney, A. C. Simmonett, R. M. Parrish, E. G. Hohenstein,
    F. A. Evangelista, J. T. Fermann, B. J. Mintz, L. A. Burns, J. J. Wilke,
    M. L. Abrams, N. J. Russ, M. L. Leininger, C. L. Janssen, E. T. Seidl,
    W. D. Allen, H. F. Schaefer, R. A. King, E. F. Valeev, C. D. Sherrill,
    and T. D. Crawford, WIREs Comput. Mol. Sci. 2, 556-565 (2012)
    (doi: 10.1002/wcms.93)

                         Additional Contributions by
    A. E. DePrince, M. Saitow, U. Bozkaya, A. Yu. Sokolov
    -----------------------------------------------------------------------


    Psi4 started on: Tue Jul  5 16:32:47 2016

    Process ID:   9424
    PSI4DATADIR: /export131/home/mjharvey/miniconda3/share
    Memory level set to 256.000 MB

  ==> Input File <==

--------------------------------------------------------------------------
set {
	reference rhf
	basis 6-31G*
}


set_num_threads( 1 )
memory 2 gb

molecule MOL {
0 1

H	 -3.269016	 -0.876744	 0.468090
C	 -2.809304	 0.000122	 0.025886
N	 -1.391456	 0.000019	 0.300661
H	 -3.037557	 -0.000063	 -1.044252
H	 -3.269223	 0.876956	 0.468000
C	 -1.046670	 0.862359	 1.413890
C	 -0.603870	 0.332281	 -0.870287
H	 -1.296556	 1.907174	 1.205503
H	 -1.617749	 0.554476	 2.283740
C	 0.438194	 0.759432	 1.725585
H	 -0.852038	 -0.362195	 -1.666321
H	 -0.824442	 1.342008	 -1.229880
C	 0.880995	 0.229353	 -0.558592
H	 0.686363	 1.453908	 2.521620
H	 0.658767	 -0.250296	 2.085177
N	 1.225781	 1.091694	 0.554637
H	 1.452074	 0.537237	 -1.428442
H	 1.130881	 -0.815461	 -0.350205
C	 2.643629	 1.091592	 0.829412
H	 2.863470	 1.794918	 1.624883
H	 3.189098	 1.405299	 -0.053696
H	 3.020827	 0.109609	 1.130622

	symmetry c1
}
ee = energy('scf')
oeprop('DIPOLE', 'QUADRUPOLE', 'MULLIKEN_CHARGES')
f=open( 'psi4out.xyz', 'w' )
f.write( "22  " )
f.write( str(ee) + "\n" )
f.write( MOL.save_string_xyz() )
f.close()
--------------------------------------------------------------------------

  Memory set to   2.000 GiB by Python script.

*** tstart() called on cx1-3-4-4.cx1.hpc.ic.ac.uk
*** at Tue Jul  5 16:32:48 2016


         ---------------------------------------------------------
                                   SCF
            by Justin Turney, Rob Parrish, and Andy Simmonett
                              RHF Reference
                        1 Threads,   2000 MiB Core
         ---------------------------------------------------------

  ==> Geometry <==

    Molecular point group: c1
    Full point group: C1

    Geometry (in Angstrom), charge = 0, multiplicity = 1:

       Center              X                  Y                   Z               Mass       
    ------------   -----------------  -----------------  -----------------  -----------------
           H         -3.186130916123    -1.422908149039     0.040195896403     1.007825032070
           C         -2.726418916123    -0.546042149039    -0.402008103597    12.000000000000
           N         -1.308570916123    -0.546145149039    -0.127233103597    14.003074004780
           H         -2.954671916123    -0.546227149039    -1.472146103597     1.007825032070
           H         -3.186337916123     0.330791850961     0.040105896403     1.007825032070
           C         -0.963784916123     0.316194850961     0.985995896403    12.000000000000
           C         -0.520984916123    -0.213883149039    -1.298181103597    12.000000000000
           H         -1.213670916123     1.361009850961     0.777608896403     1.007825032070
           H         -1.534863916123     0.008311850961     1.855845896403     1.007825032070
           C          0.521079083877     0.213267850961     1.297690896403    12.000000000000
           H         -0.769152916123    -0.908359149039    -2.094215103597     1.007825032070
           H         -0.741556916123     0.795843850961    -1.657774103597     1.007825032070
           C          0.963880083877    -0.316811149039    -0.986486103597    12.000000000000
           H          0.769248083877     0.907743850961     2.093725896403     1.007825032070
           H          0.741652083877    -0.796460149039     1.657282896403     1.007825032070
           N          1.308666083877     0.545529850961     0.126742896403    14.003074004780
           H          1.534959083877    -0.008927149039    -1.856336103597     1.007825032070
           H          1.213766083877    -1.361625149039    -0.778099103597     1.007825032070
           C          2.726514083877     0.545427850961     0.401517896403    12.000000000000
           H          2.946355083877     1.248753850961     1.196988896403     1.007825032070
           H          3.271983083877     0.859134850961    -0.481590103597     1.007825032070
           H          3.103712083877    -0.436555149039     0.702727896403     1.007825032070

  Running in c1 symmetry.

  Rotational constants: A =      0.15406  B =      0.04759  C =      0.03875 [cm^-1]
  Rotational constants: A =   4618.64610  B =   1426.84558  C =   1161.64979 [MHz]
  Nuclear repulsion =  421.495987714348985

  Charge       = 0
  Multiplicity = 1
  Electrons    = 64
  Nalpha       = 32
  Nbeta        = 32

  ==> Algorithm <==

  SCF Algorithm Type is DF.
  DIIS enabled.
  MOM disabled.
  Fractional occupation disabled.
  Guess Type is CORE.
  Energy threshold   = 1.00e-06
  Density threshold  = 1.00e-06
  Integral threshold = 0.00e+00

  ==> Primary Basis <==

  Basis Set: 6-31G*
    Number of shells: 76
    Number of basis function: 148
    Number of Cartesian functions: 148
    Spherical Harmonics?: false
    Max angular momentum: 2

  ==> Pre-Iterations <==

   -------------------------------------------------------
    Irrep   Nso     Nmo     Nalpha   Nbeta   Ndocc  Nsocc
   -------------------------------------------------------
     A        148     148       0       0       0       0
   -------------------------------------------------------
    Total     148     148      32      32      32       0
   -------------------------------------------------------

 OEINTS: Overlap, kinetic, potential, dipole, and quadrupole integrals
         stored in file 35.

  ==> Integral Setup <==

  ==> DFJK: Density-Fitted J/K Matrices <==

    J tasked:                  Yes
    K tasked:                  Yes
    wK tasked:                  No
    OpenMP threads:              1
    Integrals threads:           1
    Memory (MB):              1430
    Algorithm:                Core
    Integral Cache:           NONE
    Schwarz Cutoff:          1E-12
    Fitting Condition:       1E-12

   => Auxiliary Basis Set <=

  Basis Set: 
    Number of shells: 318
    Number of basis function: 998
    Number of Cartesian functions: 998
    Spherical Harmonics?: false
    Max angular momentum: 3

  Minimum eigenvalue in the overlap matrix is 3.0211087216E-03.
  Using Symmetric Orthogonalization.
  SCF Guess: Core (One-Electron) Hamiltonian.

  ==> Iterations <==

                           Total Energy        Delta E     RMS |[F,P]|

   @DF-RHF iter   1:  -244.99348308104538   -2.44993e+02   7.20744e-02 
   @DF-RHF iter   2:  -193.82519968349675    5.11683e+01   5.52408e-02 DIIS
   @DF-RHF iter   3:  -302.64318792233075   -1.08818e+02   4.27955e-02 DIIS
   @DF-RHF iter   4:  -342.14138324602311   -3.94982e+01   1.36159e-02 DIIS
   @DF-RHF iter   5:  -343.96796905747090   -1.82659e+00   4.70208e-03 DIIS
   @DF-RHF iter   6:  -344.20242178997319   -2.34453e-01   1.22098e-03 DIIS
   @DF-RHF iter   7:  -344.22275264392442   -2.03309e-02   3.32759e-04 DIIS
   @DF-RHF iter   8:  -344.22412448772377   -1.37184e-03   1.78282e-04 DIIS
   @DF-RHF iter   9:  -344.22450924476266   -3.84757e-04   5.89413e-05 DIIS
   @DF-RHF iter  10:  -344.22455593258019   -4.66878e-05   9.47518e-06 DIIS
   @DF-RHF iter  11:  -344.22455770464171   -1.77206e-06   2.72874e-06 DIIS
   @DF-RHF iter  12:  -344.22455782394354   -1.19302e-07   6.83770e-07 DIIS

  ==> Post-Iterations <==

    Orbital Energies (a.u.)
    -----------------------

    Doubly Occupied:                                                      

       1A    -15.541519     2A    -15.538822     3A    -11.238928  
       4A    -11.238107     5A    -11.237983     6A    -11.237323  
       7A    -11.235633     8A    -11.234649     9A     -1.254684  
      10A     -1.203704    11A     -1.024323    12A     -0.991206  
      13A     -0.910790    14A     -0.866998    15A     -0.835187  
      16A     -0.755245    17A     -0.664470    18A     -0.635369  
      19A     -0.630178    20A     -0.624250    21A     -0.620946  
      22A     -0.579856    23A     -0.550541    24A     -0.548919  
      25A     -0.542088    26A     -0.519154    27A     -0.497822  
      28A     -0.486893    29A     -0.464168    30A     -0.454239  
      31A     -0.348585    32A     -0.342719  

    Virtual:                                                              

      33A      0.235551    34A      0.244420    35A      0.274878  
      36A      0.286542    37A      0.292433    38A      0.307679  
      39A      0.311471    40A      0.321215    41A      0.333733  
      42A      0.333994    43A      0.337681    44A      0.344388  
      45A      0.357584    46A      0.359773    47A      0.369297  
      48A      0.390795    49A      0.426378    50A      0.450471  
      51A      0.467201    52A      0.472869    53A      0.481562  
      54A      0.496523    55A      0.716820    56A      0.740731  
      57A      0.747047    58A      0.759994    59A      0.789019  
      60A      0.794699    61A      0.812863    62A      0.855210  
      63A      0.866235    64A      0.880274    65A      0.921414  
      66A      0.931005    67A      0.949355    68A      0.990994  
      69A      0.992862    70A      1.010853    71A      1.072231  
      72A      1.090244    73A      1.113574    74A      1.119020  
      75A      1.122351    76A      1.136672    77A      1.150259  
      78A      1.157738    79A      1.164906    80A      1.175857  
      81A      1.176823    82A      1.197169    83A      1.201314  
      84A      1.209060    85A      1.238669    86A      1.245029  
      87A      1.250615    88A      1.260829    89A      1.292964  
      90A      1.295995    91A      1.371064    92A      1.414394  
      93A      1.525502    94A      1.569232    95A      1.608713  
      96A      1.639963    97A      1.664017    98A      1.686852  
      99A      1.720148   100A      1.768555   101A      1.819675  
     102A      1.916852   103A      1.998479   104A      2.066268  
     105A      2.111234   106A      2.142310   107A      2.161573  
     108A      2.200280   109A      2.218949   110A      2.237566  
     111A      2.315113   112A      2.334118   113A      2.341729  
     114A      2.365579   115A      2.392316   116A      2.404723  
     117A      2.421157   118A      2.438629   119A      2.457140  
     120A      2.491354   121A      2.553213   122A      2.583390  
     123A      2.585526   124A      2.628636   125A      2.637185  
     126A      2.670758   127A      2.683050   128A      2.688269  
     129A      2.796587   130A      2.808938   131A      2.865202  
     132A      2.936281   133A      2.966743   134A      2.975416  
     135A      3.153252   136A      3.179251   137A      3.182492  
     138A      3.209893   139A      3.265924   140A      3.316651  
     141A      4.495244   142A      4.533263   143A      4.671360  
     144A      4.690522   145A      4.708231   146A      4.831169  
     147A      4.971700   148A      4.980509  

    Final Occupation by Irrep:
              A 
    DOCC [    32 ]

  Energy converged.

  @DF-RHF Final Energy:  -344.22455782394354

   => Energetics <=

    Nuclear Repulsion Energy =            421.4959877143489848
    One-Electron Energy =               -1301.7300733917231810
    Two-Electron Energy =                 536.0095278534304271
    DFT Exchange-Correlation Energy =       0.0000000000000000
    Empirical Dispersion Energy =           0.0000000000000000
    PCM Polarization Energy =               0.0000000000000000
    EFP Energy =                            0.0000000000000000
    Total Energy =                       -344.2245578239437691

    Alert: EFP and PCM quantities not currently incorporated into SCF psivars.

Properties will be evaluated at   0.000000,   0.000000,   0.000000 Bohr
  ==> Properties <==


Properties computed using the SCF density matrix

  Nuclear Dipole Moment: (a.u.)
     X:    -0.0044      Y:     0.0286      Z:     0.0228

  Electronic Dipole Moment: (a.u.)
     X:    -0.0196      Y:     0.0030      Z:    -0.0479

  Dipole Moment: (a.u.)
     X:    -0.0240      Y:     0.0316      Z:    -0.0250     Total:     0.0469

  Dipole Moment: (Debye)
     X:    -0.0610      Y:     0.0804      Z:    -0.0637     Total:     0.1193


  Saving occupied orbitals to File 180.

*** tstop() called on cx1-3-4-4.cx1.hpc.ic.ac.uk at Tue Jul  5 16:33:04 2016
Module time:
	user time   =      15.64 seconds =       0.26 minutes
	system time =       0.16 seconds =       0.00 minutes
	total time  =         16 seconds =       0.27 minutes
Total time:
	user time   =      15.64 seconds =       0.26 minutes
	system time =       0.16 seconds =       0.00 minutes
	total time  =         16 seconds =       0.27 minutes


Properties will be evaluated at   0.000000,   0.000000,   0.000000 Bohr

Properties computed using the  density matrix

  Nuclear Dipole Moment: (a.u.)
     X:    -0.0044      Y:     0.0286      Z:     0.0228

  Electronic Dipole Moment: (a.u.)
     X:    -0.0196      Y:     0.0030      Z:    -0.0479

  Dipole Moment: (a.u.)
     X:    -0.0240      Y:     0.0316      Z:    -0.0250     Total:     0.0469

  Dipole Moment: (Debye)
     X:    -0.0610      Y:     0.0804      Z:    -0.0637     Total:     0.1193

  Quadrupole Moment: (Debye Ang)
    XX:   -48.7374     YY:   -55.0858     ZZ:   -48.9343
    XY:    -0.7020     XZ:     0.4116     YZ:     1.3260

  Traceless Quadrupole Moment: (Debye Ang)
    XX:     2.1818     YY:    -4.1667     ZZ:     1.9849
    XY:    -0.7020     XZ:     0.4116     YZ:     1.3260

  Mulliken Charges: (a.u.)
   Center  Symbol    Alpha    Beta     Spin     Total
       1     H     0.41556  0.41556  0.00000  0.16887
       2     C     3.14137  3.14137  0.00000 -0.28275
       3     N     3.78631  3.78631  0.00000 -0.57262
       4     H     0.42013  0.42013  0.00000  0.15975
       5     H     0.42659  0.42659  0.00000  0.14683
       6     C     3.05957  3.05957  0.00000 -0.11913
       7     C     3.05844  3.05844  0.00000 -0.11688
       8     H     0.42808  0.42808  0.00000  0.14383
       9     H     0.41686  0.41686  0.00000  0.16627
      10     C     3.05619  3.05619  0.00000 -0.11238
      11     H     0.41739  0.41739  0.00000  0.16521
      12     H     0.42917  0.42917  0.00000  0.14166
      13     C     3.05653  3.05653  0.00000 -0.11306
      14     H     0.41808  0.41808  0.00000  0.16385
      15     H     0.42838  0.42838  0.00000  0.14324
      16     N     3.78712  3.78712  0.00000 -0.57425
      17     H     0.41832  0.41832  0.00000  0.16336
      18     H     0.42861  0.42861  0.00000  0.14279
      19     C     3.14016  3.14016  0.00000 -0.28032
      20     H     0.41689  0.41689  0.00000  0.16622
      21     H     0.41680  0.41680  0.00000  0.16640
      22     H     0.43345  0.43345  0.00000  0.13311

   Total alpha = 32.00000, Total beta = 32.00000, Total charge =  0.00000


*** PSI4 exiting successfully. Buy a developer a beer!
