    -----------------------------------------------------------------------
          Psi4: An Open-Source Ab Initio Electronic Structure Package
                              Psi4 (no tag) Driver

                          Git: Rev {detached?}  

    J. M. Turney, A. C. Simmonett, R. M. Parrish, E. G. Hohenstein,
    F. A. Evangelista, J. T. Fermann, B. J. Mintz, L. A. Burns, J. J. Wilke,
    M. L. Abrams, N. J. Russ, M. L. Leininger, C. L. Janssen, E. T. Seidl,
    W. D. Allen, H. F. Schaefer, R. A. King, E. F. Valeev, C. D. Sherrill,
    and T. D. Crawford, WIREs Comput. Mol. Sci. 2, 556-565 (2012)
    (doi: 10.1002/wcms.93)

                         Additional Contributions by
    A. E. DePrince, M. Saitow, U. Bozkaya, A. Yu. Sokolov
    -----------------------------------------------------------------------


    Psi4 started on: Tue Jul  5 16:25:56 2016

    Process ID:   2152
    PSI4DATADIR: /export131/home/mjharvey/miniconda3/share
    Memory level set to 256.000 MB

  ==> Input File <==

--------------------------------------------------------------------------
set {
	reference rhf
	basis 6-31G*
}


set_num_threads( 1 )
memory 2 gb

molecule MOL {
0 1

H	 -1.128245	 1.577076	 -0.692794
C	 -0.501810	 0.698458	 -0.853719
N	 0.538815	 0.649616	 0.000000
O	 -0.747056	 -0.106016	 -1.703356
C	 1.521968	 -0.411503	 0.000000
H	 0.629060	 1.385548	 0.662226
H	 2.150599	 -0.357004	 -0.881901
H	 0.999455	 -1.354525	 0.000000
H	 2.150599	 -0.357004	 0.881901

	symmetry c1
}
set optking {
	frozen_dihedral = ("
		1 2 3 6
	")
}

ee = energy('scf')
oeprop('DIPOLE', 'QUADRUPOLE', 'MULLIKEN_CHARGES')
f=open( 'psi4out.xyz', 'w' )
f.write( "9  " )
f.write( str(ee) + "\n" )
f.write( MOL.save_string_xyz() )
f.close()
--------------------------------------------------------------------------

  Memory set to   2.000 GiB by Python script.

*** tstart() called on cx1-1-4-3.cx1.hpc.ic.ac.uk
*** at Tue Jul  5 16:25:57 2016


         ---------------------------------------------------------
                                   SCF
            by Justin Turney, Rob Parrish, and Andy Simmonett
                              RHF Reference
                        1 Threads,   2000 MiB Core
         ---------------------------------------------------------

  ==> Geometry <==

    Molecular point group: c1
    Full point group: C1

    Geometry (in Angstrom), charge = 0, multiplicity = 1:

       Center              X                  Y                   Z               Mass       
    ------------   -----------------  -----------------  -----------------  -----------------
           H         -1.342972723160     1.378125702600    -0.057253632645     1.007825032070
           C         -0.716537723160     0.499507702600    -0.218178632645    12.000000000000
           N          0.324087276840     0.450665702600     0.635540367355    14.003074004780
           O         -0.961783723160    -0.304966297400    -1.067815632645    15.994914619560
           C          1.307240276840    -0.610453297400     0.635540367355    12.000000000000
           H          0.414332276840     1.186597702600     1.297766367355     1.007825032070
           H          1.935871276840    -0.555954297400    -0.246360632645     1.007825032070
           H          0.784727276840    -1.553475297400     0.635540367355     1.007825032070
           H          1.935871276840    -0.555954297400     1.517441367355     1.007825032070

  Running in c1 symmetry.

  Rotational constants: A =      0.68512  B =      0.20547  C =      0.16284 [cm^-1]
  Rotational constants: A =  20539.49929  B =   6159.90571  C =   4881.70672 [MHz]
  Nuclear repulsion =  122.370250057344165

  Charge       = 0
  Multiplicity = 1
  Electrons    = 32
  Nalpha       = 16
  Nbeta        = 16

  ==> Algorithm <==

  SCF Algorithm Type is DF.
  DIIS enabled.
  MOM disabled.
  Fractional occupation disabled.
  Guess Type is CORE.
  Energy threshold   = 1.00e-06
  Density threshold  = 1.00e-06
  Integral threshold = 0.00e+00

  ==> Primary Basis <==

  Basis Set: 6-31G*
    Number of shells: 34
    Number of basis function: 70
    Number of Cartesian functions: 70
    Spherical Harmonics?: false
    Max angular momentum: 2

  ==> Pre-Iterations <==

   -------------------------------------------------------
    Irrep   Nso     Nmo     Nalpha   Nbeta   Ndocc  Nsocc
   -------------------------------------------------------
     A         70      70       0       0       0       0
   -------------------------------------------------------
    Total      70      70      16      16      16       0
   -------------------------------------------------------

 OEINTS: Overlap, kinetic, potential, dipole, and quadrupole integrals
         stored in file 35.

  ==> Integral Setup <==

  ==> DFJK: Density-Fitted J/K Matrices <==

    J tasked:                  Yes
    K tasked:                  Yes
    wK tasked:                  No
    OpenMP threads:              1
    Integrals threads:           1
    Memory (MB):              1430
    Algorithm:                Core
    Integral Cache:           NONE
    Schwarz Cutoff:          1E-12
    Fitting Condition:       1E-12

   => Auxiliary Basis Set <=

  Basis Set: 
    Number of shells: 141
    Number of basis function: 449
    Number of Cartesian functions: 449
    Spherical Harmonics?: false
    Max angular momentum: 3

  Minimum eigenvalue in the overlap matrix is 4.5262191378E-03.
  Using Symmetric Orthogonalization.
  SCF Guess: Core (One-Electron) Hamiltonian.

  ==> Iterations <==

                           Total Energy        Delta E     RMS |[F,P]|

   @DF-RHF iter   1:  -166.87875895507523   -1.66879e+02   9.45794e-02 
   @DF-RHF iter   2:  -132.33447990160403    3.45443e+01   8.99234e-02 DIIS
   @DF-RHF iter   3:  -191.83568138659155   -5.95012e+01   4.74463e-02 DIIS
   @DF-RHF iter   4:  -195.13067737646486   -3.29500e+00   5.60366e-02 DIIS
   @DF-RHF iter   5:  -207.70046917692707   -1.25698e+01   1.07620e-02 DIIS
   @DF-RHF iter   6:  -207.86797671426348   -1.67508e-01   7.04674e-03 DIIS
   @DF-RHF iter   7:  -207.95677300498681   -8.87963e-02   1.10684e-03 DIIS
   @DF-RHF iter   8:  -207.95985372052206   -3.08072e-03   4.36282e-04 DIIS
   @DF-RHF iter   9:  -207.96036550844406   -5.11788e-04   1.91493e-04 DIIS
   @DF-RHF iter  10:  -207.96049010314891   -1.24595e-04   5.20015e-05 DIIS
   @DF-RHF iter  11:  -207.96050068824718   -1.05851e-05   1.61185e-05 DIIS
   @DF-RHF iter  12:  -207.96050194999242   -1.26175e-06   3.48022e-06 DIIS
   @DF-RHF iter  13:  -207.96050204197843   -9.19860e-08   1.64985e-06 DIIS
   @DF-RHF iter  14:  -207.96050206014127   -1.81628e-08   5.51039e-07 DIIS

  ==> Post-Iterations <==

    Orbital Energies (a.u.)
    -----------------------

    Doubly Occupied:                                                      

       1A    -20.526278     2A    -15.590710     3A    -11.343377  
       4A    -11.262271     5A     -1.388605     6A     -1.236571  
       7A     -0.969253     8A     -0.807067     9A     -0.745843  
      10A     -0.640749    11A     -0.627984    12A     -0.594982  
      13A     -0.557287    14A     -0.533349    15A     -0.423362  
      16A     -0.390895  

    Virtual:                                                              

      17A      0.210134    18A      0.218598    19A      0.263457  
      20A      0.296122    21A      0.316575    22A      0.337043  
      23A      0.389100    24A      0.443071    25A      0.569608  
      26A      0.715497    27A      0.734400    28A      0.772762  
      29A      0.789147    30A      0.837636    31A      0.958619  
      32A      1.020595    33A      1.041526    34A      1.055682  
      35A      1.096994    36A      1.123174    37A      1.139713  
      38A      1.194274    39A      1.204323    40A      1.218572  
      41A      1.317805    42A      1.331173    43A      1.385564  
      44A      1.576293    45A      1.615617    46A      1.637415  
      47A      1.690619    48A      1.819383    49A      1.853611  
      50A      2.054221    51A      2.144462    52A      2.184197  
      53A      2.236033    54A      2.343466    55A      2.357887  
      56A      2.450181    57A      2.513837    58A      2.556640  
      59A      2.696504    60A      2.717985    61A      2.857976  
      62A      2.921254    63A      3.043571    64A      3.116039  
      65A      3.330371    66A      3.493292    67A      4.235894  
      68A      4.401944    69A      4.581961    70A      4.742330  

    Final Occupation by Irrep:
              A 
    DOCC [    16 ]

  Energy converged.

  @DF-RHF Final Energy:  -207.96050206014127

   => Energetics <=

    Nuclear Repulsion Energy =            122.3702500573441654
    One-Electron Energy =                -525.3844077319738517
    Two-Electron Energy =                 195.0536556144886049
    DFT Exchange-Correlation Energy =       0.0000000000000000
    Empirical Dispersion Energy =           0.0000000000000000
    PCM Polarization Energy =               0.0000000000000000
    EFP Energy =                            0.0000000000000000
    Total Energy =                       -207.9605020601410956

    Alert: EFP and PCM quantities not currently incorporated into SCF psivars.

Properties will be evaluated at   0.000000,   0.000000,   0.000000 Bohr
  ==> Properties <==


Properties computed using the SCF density matrix

  Nuclear Dipole Moment: (a.u.)
     X:     3.4892      Y:    -0.0971      Z:     2.9434

  Electronic Dipole Moment: (a.u.)
     X:    -2.7641      Y:     0.8663      Z:    -1.6889

  Dipole Moment: (a.u.)
     X:     0.7250      Y:     0.7691      Z:     1.2545     Total:     1.6404

  Dipole Moment: (Debye)
     X:     1.8429      Y:     1.9549      Z:     3.1886     Total:     4.1695


  Saving occupied orbitals to File 180.

*** tstop() called on cx1-1-4-3.cx1.hpc.ic.ac.uk at Tue Jul  5 16:26:00 2016
Module time:
	user time   =       2.47 seconds =       0.04 minutes
	system time =       0.02 seconds =       0.00 minutes
	total time  =          3 seconds =       0.05 minutes
Total time:
	user time   =       2.47 seconds =       0.04 minutes
	system time =       0.02 seconds =       0.00 minutes
	total time  =          3 seconds =       0.05 minutes


Properties will be evaluated at   0.000000,   0.000000,   0.000000 Bohr

Properties computed using the  density matrix

  Nuclear Dipole Moment: (a.u.)
     X:     3.4892      Y:    -0.0971      Z:     2.9434

  Electronic Dipole Moment: (a.u.)
     X:    -2.7641      Y:     0.8663      Z:    -1.6889

  Dipole Moment: (a.u.)
     X:     0.7250      Y:     0.7691      Z:     1.2545     Total:     1.6404

  Dipole Moment: (Debye)
     X:     1.8429      Y:     1.9549      Z:     3.1886     Total:     4.1695

  Quadrupole Moment: (Debye Ang)
    XX:   -23.9491     YY:   -22.0089     ZZ:   -25.6568
    XY:    -2.3610     XZ:    -1.2042     YZ:     0.0046

  Traceless Quadrupole Moment: (Debye Ang)
    XX:    -0.0775     YY:     1.8627     ZZ:    -1.7852
    XY:    -2.3610     XZ:    -1.2042     YZ:     0.0046

  Mulliken Charges: (a.u.)
   Center  Symbol    Alpha    Beta     Spin     Total
       1     H     0.42797  0.42797  0.00000  0.14406
       2     C     2.74635  2.74635  0.00000  0.50729
       3     N     3.87596  3.87596  0.00000 -0.75193
       4     O     4.28254  4.28254  0.00000 -0.56508
       5     C     3.13756  3.13756  0.00000 -0.27511
       6     H     0.30805  0.30805  0.00000  0.38391
       7     H     0.40716  0.40716  0.00000  0.18568
       8     H     0.40027  0.40027  0.00000  0.19946
       9     H     0.41414  0.41414  0.00000  0.17172

   Total alpha = 16.00000, Total beta = 16.00000, Total charge = -0.00000


*** PSI4 exiting successfully. Buy a developer a beer!
