    -----------------------------------------------------------------------
          Psi4: An Open-Source Ab Initio Electronic Structure Package
                              Psi4 (no tag) Driver

                          Git: Rev {detached?}  

    J. M. Turney, A. C. Simmonett, R. M. Parrish, E. G. Hohenstein,
    F. A. Evangelista, J. T. Fermann, B. J. Mintz, L. A. Burns, J. J. Wilke,
    M. L. Abrams, N. J. Russ, M. L. Leininger, C. L. Janssen, E. T. Seidl,
    W. D. Allen, H. F. Schaefer, R. A. King, E. F. Valeev, C. D. Sherrill,
    and T. D. Crawford, WIREs Comput. Mol. Sci. 2, 556-565 (2012)
    (doi: 10.1002/wcms.93)

                         Additional Contributions by
    A. E. DePrince, M. Saitow, U. Bozkaya, A. Yu. Sokolov
    -----------------------------------------------------------------------


    Psi4 started on: Tue Jul  5 16:30:00 2016

    Process ID:  27469
    PSI4DATADIR: /export131/home/mjharvey/miniconda3/share
    Memory level set to 256.000 MB

  ==> Input File <==

--------------------------------------------------------------------------
set {
	reference rhf
	basis 6-31G*
}


set_num_threads( 1 )
memory 2 gb

molecule MOL {
0 1

H	 -0.314752	 3.001425	 -0.790005
C	 0.411227	 2.338203	 -0.303388
C	 0.065331	 0.871482	 -0.349150
O	 1.385684	 2.789984	 0.204596
C	 1.270996	 -0.024831	 -0.032167
H	 -0.348876	 0.648111	 -1.325598
H	 -0.713540	 0.700850	 0.392744
C	 0.895848	 -1.493462	 0.169848
H	 1.753831	 0.351940	 0.863893
H	 2.004836	 0.060780	 -0.830784
H	 0.189581	 -1.605051	 0.986709
H	 1.773256	 -2.087332	 0.403922
H	 0.437990	 -1.918102	 -0.718655

	symmetry c1
}
set optking {
	frozen_dihedral = ("
		6 3 5 9
	")
}

ee = energy('scf')
oeprop('DIPOLE', 'QUADRUPOLE', 'MULLIKEN_CHARGES')
f=open( 'psi4out.xyz', 'w' )
f.write( "13  " )
f.write( str(ee) + "\n" )
f.write( MOL.save_string_xyz() )
f.close()
--------------------------------------------------------------------------

  Memory set to   2.000 GiB by Python script.

*** tstart() called on cx1-3-1-3.cx1.hpc.ic.ac.uk
*** at Tue Jul  5 16:30:01 2016


         ---------------------------------------------------------
                                   SCF
            by Justin Turney, Rob Parrish, and Andy Simmonett
                              RHF Reference
                        1 Threads,   2000 MiB Core
         ---------------------------------------------------------

  ==> Geometry <==

    Molecular point group: c1
    Full point group: C1

    Geometry (in Angstrom), charge = 0, multiplicity = 1:

       Center              X                  Y                   Z               Mass       
    ------------   -----------------  -----------------  -----------------  -----------------
           H         -1.129441060883     2.112298443079    -0.735444048662     1.007825032070
           C         -0.403462060883     1.449076443079    -0.248827048662    12.000000000000
           C         -0.749358060883    -0.017644556921    -0.294589048662    12.000000000000
           O          0.570994939117     1.900857443079     0.259156951338    15.994914619560
           C          0.456306939117    -0.913957556921     0.022393951338    12.000000000000
           H         -1.163565060883    -0.241015556921    -1.271037048662     1.007825032070
           H         -1.528229060883    -0.188276556921     0.447304951338     1.007825032070
           C          0.081158939117    -2.382588556921     0.224408951338    12.000000000000
           H          0.939141939117    -0.537186556921     0.918453951338     1.007825032070
           H          1.190146939117    -0.828346556921    -0.776223048662     1.007825032070
           H         -0.625108060883    -2.494177556921     1.041269951338     1.007825032070
           H          0.958566939117    -2.976458556921     0.458482951338     1.007825032070
           H         -0.376699060883    -2.807228556921    -0.664094048662     1.007825032070

  Running in c1 symmetry.

  Rotational constants: A =      0.49447  B =      0.08621  C =      0.07708 [cm^-1]
  Rotational constants: A =  14823.89668  B =   2584.46759  C =   2310.76655 [MHz]
  Nuclear repulsion =  172.870812186864299

  Charge       = 0
  Multiplicity = 1
  Electrons    = 40
  Nalpha       = 20
  Nbeta        = 20

  ==> Algorithm <==

  SCF Algorithm Type is DF.
  DIIS enabled.
  MOM disabled.
  Fractional occupation disabled.
  Guess Type is CORE.
  Energy threshold   = 1.00e-06
  Density threshold  = 1.00e-06
  Integral threshold = 0.00e+00

  ==> Primary Basis <==

  Basis Set: 6-31G*
    Number of shells: 46
    Number of basis function: 91
    Number of Cartesian functions: 91
    Spherical Harmonics?: false
    Max angular momentum: 2

  ==> Pre-Iterations <==

   -------------------------------------------------------
    Irrep   Nso     Nmo     Nalpha   Nbeta   Ndocc  Nsocc
   -------------------------------------------------------
     A         91      91       0       0       0       0
   -------------------------------------------------------
    Total      91      91      20      20      20       0
   -------------------------------------------------------

 OEINTS: Overlap, kinetic, potential, dipole, and quadrupole integrals
         stored in file 35.

  ==> Integral Setup <==

  ==> DFJK: Density-Fitted J/K Matrices <==

    J tasked:                  Yes
    K tasked:                  Yes
    wK tasked:                  No
    OpenMP threads:              1
    Integrals threads:           1
    Memory (MB):              1430
    Algorithm:                Core
    Integral Cache:           NONE
    Schwarz Cutoff:          1E-12
    Fitting Condition:       1E-12

   => Auxiliary Basis Set <=

  Basis Set: 
    Number of shells: 192
    Number of basis function: 605
    Number of Cartesian functions: 605
    Spherical Harmonics?: false
    Max angular momentum: 3

  Minimum eigenvalue in the overlap matrix is 3.5356704337E-03.
  Using Symmetric Orthogonalization.
  SCF Guess: Core (One-Electron) Hamiltonian.

  ==> Iterations <==

                           Total Energy        Delta E     RMS |[F,P]|

   @DF-RHF iter   1:  -182.13098904731774   -1.82131e+02   8.05593e-02 
   @DF-RHF iter   2:  -110.28414573937690    7.18468e+01   9.41730e-02 DIIS
   @DF-RHF iter   3:  -204.73397508262130   -9.44498e+01   4.37585e-02 DIIS
   @DF-RHF iter   4:  -167.66414810687124    3.70698e+01   7.43430e-02 DIIS
   @DF-RHF iter   5:  -226.57298241952296   -5.89088e+01   2.37697e-02 DIIS
   @DF-RHF iter   6:  -230.37775457420119   -3.80477e+00   1.26642e-02 DIIS
   @DF-RHF iter   7:  -230.92494820684615   -5.47194e-01   3.74802e-03 DIIS
   @DF-RHF iter   8:  -230.98083095421700   -5.58827e-02   7.90622e-04 DIIS
   @DF-RHF iter   9:  -230.98467158492130   -3.84063e-03   3.49100e-04 DIIS
   @DF-RHF iter  10:  -230.98536089193166   -6.89307e-04   1.19249e-04 DIIS
   @DF-RHF iter  11:  -230.98545708453858   -9.61926e-05   3.96776e-05 DIIS
   @DF-RHF iter  12:  -230.98546729138982   -1.02069e-05   9.90161e-06 DIIS
   @DF-RHF iter  13:  -230.98546806254635   -7.71157e-07   2.04122e-06 DIIS
   @DF-RHF iter  14:  -230.98546810140019   -3.88538e-08   6.10698e-07 DIIS

  ==> Post-Iterations <==

    Orbital Energies (a.u.)
    -----------------------

    Doubly Occupied:                                                      

       1A    -20.564801     2A    -11.329091     3A    -11.237517  
       4A    -11.224569     5A    -11.216148     6A     -1.405256  
       7A     -1.077559     8A     -0.975261     9A     -0.846188  
      10A     -0.770363    11A     -0.678458    12A     -0.646358  
      13A     -0.634386    14A     -0.574933    15A     -0.567698  
      16A     -0.512161    17A     -0.507078    18A     -0.485767  
      19A     -0.480150    20A     -0.412438  

    Virtual:                                                              

      21A      0.162695    22A      0.229830    23A      0.260506  
      24A      0.283508    25A      0.302759    26A      0.312548  
      27A      0.323884    28A      0.338074    29A      0.348779  
      30A      0.376170    31A      0.426195    32A      0.465057  
      33A      0.483743    34A      0.723589    35A      0.739047  
      36A      0.744444    37A      0.761205    38A      0.766564  
      39A      0.839402    40A      0.897261    41A      0.937028  
      42A      0.947566    43A      0.980510    44A      1.038499  
      45A      1.057126    46A      1.104138    47A      1.117878  
      48A      1.134641    49A      1.161652    50A      1.177774  
      51A      1.183718    52A      1.207144    53A      1.225975  
      54A      1.252604    55A      1.260097    56A      1.300936  
      57A      1.365102    58A      1.402926    59A      1.618675  
      60A      1.662701    61A      1.731512    62A      1.804675  
      63A      1.832349    64A      1.905389    65A      2.001738  
      66A      2.036830    67A      2.100494    68A      2.158005  
      69A      2.171733    70A      2.274648    71A      2.289182  
      72A      2.304649    73A      2.352773    74A      2.433738  
      75A      2.485893    76A      2.601713    77A      2.657385  
      78A      2.684584    79A      2.725747    80A      2.778961  
      81A      2.826692    82A      2.953010    83A      2.964083  
      84A      3.108167    85A      3.271487    86A      3.364371  
      87A      4.283028    88A      4.513880    89A      4.629130  
      90A      4.770465    91A      4.939595  

    Final Occupation by Irrep:
              A 
    DOCC [    20 ]

  Energy converged.

  @DF-RHF Final Energy:  -230.98546810140019

   => Energetics <=

    Nuclear Repulsion Energy =            172.8708121868642991
    One-Electron Energy =                -655.4201161832382923
    Two-Electron Energy =                 251.5638358949738631
    DFT Exchange-Correlation Energy =       0.0000000000000000
    Empirical Dispersion Energy =           0.0000000000000000
    PCM Polarization Energy =               0.0000000000000000
    EFP Energy =                            0.0000000000000000
    Total Energy =                       -230.9854681014001017

    Alert: EFP and PCM quantities not currently incorporated into SCF psivars.

Properties will be evaluated at   0.000000,   0.000000,   0.000000 Bohr
  ==> Properties <==


Properties computed using the SCF density matrix

  Nuclear Dipole Moment: (a.u.)
     X:    -1.6239      Y:    -7.4535      Z:    -0.5437

  Electronic Dipole Moment: (a.u.)
     X:     0.8001      Y:     6.8598      Z:     0.1434

  Dipole Moment: (a.u.)
     X:    -0.8239      Y:    -0.5936      Z:    -0.4003     Total:     1.0915

  Dipole Moment: (Debye)
     X:    -2.0941      Y:    -1.5089      Z:    -1.0174     Total:     2.7744


  Saving occupied orbitals to File 180.

*** tstop() called on cx1-3-1-3.cx1.hpc.ic.ac.uk at Tue Jul  5 16:30:05 2016
Module time:
	user time   =       3.97 seconds =       0.07 minutes
	system time =       0.04 seconds =       0.00 minutes
	total time  =          4 seconds =       0.07 minutes
Total time:
	user time   =       3.97 seconds =       0.07 minutes
	system time =       0.04 seconds =       0.00 minutes
	total time  =          4 seconds =       0.07 minutes


Properties will be evaluated at   0.000000,   0.000000,   0.000000 Bohr

Properties computed using the  density matrix

  Nuclear Dipole Moment: (a.u.)
     X:    -1.6239      Y:    -7.4535      Z:    -0.5437

  Electronic Dipole Moment: (a.u.)
     X:     0.8001      Y:     6.8598      Z:     0.1434

  Dipole Moment: (a.u.)
     X:    -0.8239      Y:    -0.5936      Z:    -0.4003     Total:     1.0915

  Dipole Moment: (Debye)
     X:    -2.0941      Y:    -1.5089      Z:    -1.0174     Total:     2.7744

  Quadrupole Moment: (Debye Ang)
    XX:   -31.6770     YY:   -36.0225     ZZ:   -30.8402
    XY:    -4.0415     XZ:    -0.2842     YZ:    -1.9085

  Traceless Quadrupole Moment: (Debye Ang)
    XX:     1.1695     YY:    -3.1759     ZZ:     2.0064
    XY:    -4.0415     XZ:    -0.2842     YZ:    -1.9085

  Mulliken Charges: (a.u.)
   Center  Symbol    Alpha    Beta     Spin     Total
       1     H     0.42736  0.42736  0.00000  0.14529
       2     C     2.83679  2.83679  0.00000  0.32641
       3     C     3.21175  3.21175  0.00000 -0.42350
       4     O     4.23666  4.23666  0.00000 -0.47331
       5     C     3.15306  3.15306  0.00000 -0.30612
       6     H     0.40965  0.40965  0.00000  0.18071
       7     H     0.40466  0.40466  0.00000  0.19068
       8     C     3.24118  3.24118  0.00000 -0.48235
       9     H     0.40410  0.40410  0.00000  0.19181
      10     H     0.41603  0.41603  0.00000  0.16794
      11     H     0.42149  0.42149  0.00000  0.15701
      12     H     0.41519  0.41519  0.00000  0.16962
      13     H     0.42209  0.42209  0.00000  0.15581

   Total alpha = 20.00000, Total beta = 20.00000, Total charge = -0.00000


*** PSI4 exiting successfully. Buy a developer a beer!
