    -----------------------------------------------------------------------
          Psi4: An Open-Source Ab Initio Electronic Structure Package
                              Psi4 (no tag) Driver

                          Git: Rev {detached?}  

    J. M. Turney, A. C. Simmonett, R. M. Parrish, E. G. Hohenstein,
    F. A. Evangelista, J. T. Fermann, B. J. Mintz, L. A. Burns, J. J. Wilke,
    M. L. Abrams, N. J. Russ, M. L. Leininger, C. L. Janssen, E. T. Seidl,
    W. D. Allen, H. F. Schaefer, R. A. King, E. F. Valeev, C. D. Sherrill,
    and T. D. Crawford, WIREs Comput. Mol. Sci. 2, 556-565 (2012)
    (doi: 10.1002/wcms.93)

                         Additional Contributions by
    A. E. DePrince, M. Saitow, U. Bozkaya, A. Yu. Sokolov
    -----------------------------------------------------------------------


    Psi4 started on: Tue Jul  5 16:33:09 2016

    Process ID:  21805
    PSI4DATADIR: /export131/home/mjharvey/miniconda3/share
    Memory level set to 256.000 MB

  ==> Input File <==

--------------------------------------------------------------------------
set {
	reference rhf
	basis 6-31G*
}


set_num_threads( 1 )
memory 2 gb

molecule MOL {
0 1

H	 1.759000	 -0.724000	 -0.875000
C	 1.173000	 -0.465000	 0.000000
H	 1.758000	 -0.723000	 0.876000
O	 -0.000000	 -1.235000	 -0.000000
C	 0.770000	 1.020000	 -0.000000
C	 -1.173000	 -0.465000	 -0.000000
H	 1.164000	 1.529000	 -0.872000
H	 1.165000	 1.530000	 0.870000
C	 -0.770000	 1.020000	 0.000000
H	 -1.759000	 -0.723000	 -0.876000
H	 -1.759000	 -0.724000	 0.876000
H	 -1.164000	 1.530000	 0.872000
H	 -1.164000	 1.530000	 -0.871000

	symmetry c1
}
ee = optimize('scf')
oeprop('DIPOLE', 'QUADRUPOLE', 'MULLIKEN_CHARGES')
f=open( 'psi4out.xyz', 'w' )
f.write( "13  " )
f.write( str(ee) + "\n" )
f.write( MOL.save_string_xyz() )
f.close()
--------------------------------------------------------------------------

  Memory set to   2.000 GiB by Python script.
gradient() will perform analytic gradient computation.

*** tstart() called on cx1-3-15-2.cx1.hpc.ic.ac.uk
*** at Tue Jul  5 16:33:09 2016


         ---------------------------------------------------------
                                   SCF
            by Justin Turney, Rob Parrish, and Andy Simmonett
                              RHF Reference
                        1 Threads,   2000 MiB Core
         ---------------------------------------------------------

  ==> Geometry <==

    Molecular point group: c1
    Full point group: C1

    Geometry (in Angstrom), charge = 0, multiplicity = 1:

       Center              X                  Y                   Z               Mass       
    ------------   -----------------  -----------------  -----------------  -----------------
           H          1.759000000000    -0.679820238428    -0.875000000000     1.007825032070
           C          1.173000000000    -0.420820238428    -0.000000000000    12.000000000000
           H          1.758000000000    -0.678820238428     0.876000000000     1.007825032070
           O         -0.000000000000    -1.190820238428    -0.000000000000    15.994914619560
           C          0.770000000000     1.064179761572    -0.000000000000    12.000000000000
           C         -1.173000000000    -0.420820238428    -0.000000000000    12.000000000000
           H          1.164000000000     1.573179761572    -0.872000000000     1.007825032070
           H          1.165000000000     1.574179761572     0.870000000000     1.007825032070
           C         -0.770000000000     1.064179761572    -0.000000000000    12.000000000000
           H         -1.759000000000    -0.678820238428    -0.876000000000     1.007825032070
           H         -1.759000000000    -0.679820238428     0.876000000000     1.007825032070
           H         -1.164000000000     1.574179761572     0.872000000000     1.007825032070
           H         -1.164000000000     1.574179761572    -0.871000000000     1.007825032070

  Running in c1 symmetry.

  Rotational constants: A =      0.23631  B =      0.23378  C =      0.12854 [cm^-1]
  Rotational constants: A =   7084.32022  B =   7008.44475  C =   3853.61778 [MHz]
  Nuclear repulsion =  190.422902206755055

  Charge       = 0
  Multiplicity = 1
  Electrons    = 40
  Nalpha       = 20
  Nbeta        = 20

  ==> Algorithm <==

  SCF Algorithm Type is DF.
  DIIS enabled.
  MOM disabled.
  Fractional occupation disabled.
  Guess Type is CORE.
  Energy threshold   = 1.00e-08
  Density threshold  = 1.00e-08
  Integral threshold = 0.00e+00

  ==> Primary Basis <==

  Basis Set: 6-31G*
    Number of shells: 46
    Number of basis function: 91
    Number of Cartesian functions: 91
    Spherical Harmonics?: false
    Max angular momentum: 2

  ==> Pre-Iterations <==

   -------------------------------------------------------
    Irrep   Nso     Nmo     Nalpha   Nbeta   Ndocc  Nsocc
   -------------------------------------------------------
     A         91      91       0       0       0       0
   -------------------------------------------------------
    Total      91      91      20      20      20       0
   -------------------------------------------------------

 OEINTS: Overlap, kinetic, potential, dipole, and quadrupole integrals
         stored in file 35.

  ==> Integral Setup <==

  ==> DFJK: Density-Fitted J/K Matrices <==

    J tasked:                  Yes
    K tasked:                  Yes
    wK tasked:                  No
    OpenMP threads:              1
    Integrals threads:           1
    Memory (MB):              1430
    Algorithm:                Core
    Integral Cache:           NONE
    Schwarz Cutoff:          1E-12
    Fitting Condition:       1E-12

   => Auxiliary Basis Set <=

  Basis Set: 
    Number of shells: 192
    Number of basis function: 605
    Number of Cartesian functions: 605
    Spherical Harmonics?: false
    Max angular momentum: 3

  Minimum eigenvalue in the overlap matrix is 3.3345766531E-03.
  Using Symmetric Orthogonalization.
  SCF Guess: Core (One-Electron) Hamiltonian.

  ==> Iterations <==

                           Total Energy        Delta E     RMS |[F,P]|

   @DF-RHF iter   1:  -191.54088150570209   -1.91541e+02   7.44727e-02 
   @DF-RHF iter   2:  -182.50936586993492    9.03152e+00   5.70140e-02 DIIS
   @DF-RHF iter   3:  -206.88806479381270   -2.43787e+01   6.07657e-02 DIIS
   @DF-RHF iter   4:  -229.46786046282222   -2.25798e+01   1.86695e-02 DIIS
   @DF-RHF iter   5:  -230.53867639717066   -1.07082e+00   9.62955e-03 DIIS
   @DF-RHF iter   6:  -230.90055974034016   -3.61883e-01   3.63778e-03 DIIS
   @DF-RHF iter   7:  -230.96756457730470   -6.70048e-02   8.67285e-04 DIIS
   @DF-RHF iter   8:  -230.97015982808352   -2.59525e-03   3.68359e-04 DIIS
   @DF-RHF iter   9:  -230.97089269845839   -7.32870e-04   8.47812e-05 DIIS
   @DF-RHF iter  10:  -230.97092932843105   -3.66300e-05   2.10283e-05 DIIS
   @DF-RHF iter  11:  -230.97093172887298   -2.40044e-06   2.12426e-06 DIIS
   @DF-RHF iter  12:  -230.97093176958396   -4.07110e-08   4.60864e-07 DIIS
   @DF-RHF iter  13:  -230.97093177153050   -1.94655e-09   1.35426e-07 DIIS
   @DF-RHF iter  14:  -230.97093177166408   -1.33582e-10   4.28207e-08 DIIS
   @DF-RHF iter  15:  -230.97093177167829   -1.42109e-11   8.96273e-09 DIIS

  ==> Post-Iterations <==

    Orbital Energies (a.u.)
    -----------------------

    Doubly Occupied:                                                      

       1A    -20.543093     2A    -11.264732     3A    -11.264554  
       4A    -11.223541     5A    -11.222960     6A     -1.372678  
       7A     -1.052658     8A     -0.997063     9A     -0.811555  
      10A     -0.810691    11A     -0.683682    12A     -0.669154  
      13A     -0.590840    14A     -0.586701    15A     -0.581502  
      16A     -0.500001    17A     -0.487920    18A     -0.467312  
      19A     -0.462050    20A     -0.397616  

    Virtual:                                                              

      21A      0.221137    22A      0.245825    23A      0.283805  
      24A      0.303739    25A      0.315391    26A      0.320972  
      27A      0.326245    28A      0.357985    29A      0.378685  
      30A      0.400133    31A      0.417593    32A      0.484134  
      33A      0.558777    34A      0.692350    35A      0.756133  
      36A      0.780959    37A      0.793582    38A      0.835336  
      39A      0.841160    40A      0.896052    41A      0.897801  
      42A      0.917936    43A      0.952500    44A      0.983266  
      45A      1.071728    46A      1.133313    47A      1.135864  
      48A      1.136551    49A      1.136793    50A      1.149188  
      51A      1.202246    52A      1.217174    53A      1.245277  
      54A      1.264250    55A      1.318705    56A      1.328941  
      57A      1.407378    58A      1.481171    59A      1.604863  
      60A      1.661994    61A      1.771612    62A      1.948954  
      63A      2.018276    64A      2.060822    65A      2.096687  
      66A      2.127214    67A      2.130244    68A      2.195072  
      69A      2.294201    70A      2.299032    71A      2.355779  
      72A      2.375612    73A      2.499317    74A      2.508656  
      75A      2.512967    76A      2.523072    77A      2.703735  
      78A      2.778535    79A      2.829624    80A      2.830040  
      81A      2.918805    82A      2.951631    83A      2.956212  
      84A      3.029603    85A      3.170013    86A      3.380958  
      87A      4.416151    88A      4.581958    89A      4.665209  
      90A      4.868225    91A      5.007068  

    Final Occupation by Irrep:
              A 
    DOCC [    20 ]

  Energy converged.

  @DF-RHF Final Energy:  -230.97093177167829

   => Energetics <=

    Nuclear Repulsion Energy =            190.4229022067550545
    One-Electron Energy =                -690.8070655582762356
    Two-Electron Energy =                 269.4132315798426021
    DFT Exchange-Correlation Energy =       0.0000000000000000
    Empirical Dispersion Energy =           0.0000000000000000
    PCM Polarization Energy =               0.0000000000000000
    EFP Energy =                            0.0000000000000000
    Total Energy =                       -230.9709317716785790

    Alert: EFP and PCM quantities not currently incorporated into SCF psivars.

Properties will be evaluated at   0.000000,   0.000000,   0.000000 Bohr
  ==> Properties <==


Properties computed using the SCF density matrix

  Nuclear Dipole Moment: (a.u.)
     X:     0.0000      Y:     3.3490      Z:     0.0000

  Electronic Dipole Moment: (a.u.)
     X:     0.0007      Y:    -2.5803      Z:    -0.0002

  Dipole Moment: (a.u.)
     X:     0.0007      Y:     0.7686      Z:    -0.0002     Total:     0.7686

  Dipole Moment: (Debye)
     X:     0.0017      Y:     1.9536      Z:    -0.0004     Total:     1.9536


  Saving occupied orbitals to File 180.

*** tstop() called on cx1-3-15-2.cx1.hpc.ic.ac.uk at Tue Jul  5 16:33:14 2016
Module time:
	user time   =       4.02 seconds =       0.07 minutes
	system time =       0.03 seconds =       0.00 minutes
	total time  =          5 seconds =       0.08 minutes
Total time:
	user time   =       4.02 seconds =       0.07 minutes
	system time =       0.03 seconds =       0.00 minutes
	total time  =          5 seconds =       0.08 minutes

*** tstart() called on cx1-3-15-2.cx1.hpc.ic.ac.uk
*** at Tue Jul  5 16:33:14 2016


         ------------------------------------------------------------
                                   SCF GRAD                          
                          Rob Parrish, Justin Turney,                
                       Andy Simmonett, and Alex Sokolov              
         ------------------------------------------------------------

  ==> Geometry <==

    Molecular point group: c1
    Full point group: C1

    Geometry (in Angstrom), charge = 0, multiplicity = 1:

       Center              X                  Y                   Z               Mass       
    ------------   -----------------  -----------------  -----------------  -----------------
           H          1.759000000000    -0.679820238428    -0.875000000000     1.007825032070
           C          1.173000000000    -0.420820238428    -0.000000000000    12.000000000000
           H          1.758000000000    -0.678820238428     0.876000000000     1.007825032070
           O         -0.000000000000    -1.190820238428    -0.000000000000    15.994914619560
           C          0.770000000000     1.064179761572    -0.000000000000    12.000000000000
           C         -1.173000000000    -0.420820238428    -0.000000000000    12.000000000000
           H          1.164000000000     1.573179761572    -0.872000000000     1.007825032070
           H          1.165000000000     1.574179761572     0.870000000000     1.007825032070
           C         -0.770000000000     1.064179761572    -0.000000000000    12.000000000000
           H         -1.759000000000    -0.678820238428    -0.876000000000     1.007825032070
           H         -1.759000000000    -0.679820238428     0.876000000000     1.007825032070
           H         -1.164000000000     1.574179761572     0.872000000000     1.007825032070
           H         -1.164000000000     1.574179761572    -0.871000000000     1.007825032070

  Nuclear repulsion =  190.422902206755055

  ==> Basis Set <==

  Basis Set: 6-31G*
    Number of shells: 46
    Number of basis function: 91
    Number of Cartesian functions: 91
    Spherical Harmonics?: false
    Max angular momentum: 2

  ==> DFJKGrad: Density-Fitted SCF Gradients <==

    Gradient:                    1
    J tasked:                  Yes
    K tasked:                  Yes
    wK tasked:                  No
    OpenMP threads:              1
    Integrals threads:           1
    Memory (MB):              1430
    Schwarz Cutoff:          0E+00
    Fitting Condition:       1E-12

   => Auxiliary Basis Set <=

  Basis Set: 
    Number of shells: 192
    Number of basis function: 605
    Number of Cartesian functions: 605
    Spherical Harmonics?: false
    Max angular momentum: 3


  -Total Gradient:
     Atom            X                  Y                   Z
    ------   -----------------  -----------------  -----------------
       1       -0.000112779890    -0.000083020654     0.000202294567
       2        0.000435398471     0.000048804530    -0.000215481225
       3       -0.000161916659    -0.000000795990    -0.000162274798
       4        0.000079616710     0.000145392758     0.000072797644
       5       -0.000634757796     0.000025440212     0.000680855042
       6        0.000035232922     0.000218805902    -0.000105790716
       7        0.000165274922     0.000067904345    -0.000234027432
       8        0.000033777511    -0.000108266457    -0.000226452624
       9        0.000671284030    -0.000354219916    -0.000593455055
      10       -0.000096133744    -0.000059657402    -0.000136292158
      11       -0.000156759918    -0.000207888059     0.000273179414
      12       -0.000221110808     0.000272752056     0.000524601876
      13       -0.000037125747     0.000034748673    -0.000079954534


*** tstop() called on cx1-3-15-2.cx1.hpc.ic.ac.uk at Tue Jul  5 16:33:19 2016
Module time:
	user time   =       5.61 seconds =       0.09 minutes
	system time =       0.02 seconds =       0.00 minutes
	total time  =          5 seconds =       0.08 minutes
Total time:
	user time   =       9.64 seconds =       0.16 minutes
	system time =       0.05 seconds =       0.00 minutes
	total time  =         10 seconds =       0.17 minutes
CURRENT ENERGY: -230.9709317717

			-----------------------------------------
			 OPTKING 2.0: for geometry optimizations 
			  - R.A. King,  Bethel University        
			-----------------------------------------

	Internal coordinates to be generated automatically.
	Detected frag with atoms:  1 2 3 4 5 6 7 8 9 10 11 12 13
	---Fragment 1 Bond Connectivity---
	 1 : 2
	 2 : 1 3 4 5
	 3 : 2
	 4 : 2 6
	 5 : 2 7 8 9
	 6 : 4 9 10 11
	 7 : 5
	 8 : 5
	 9 : 5 6 12 13
	 10 : 6
	 11 : 6
	 12 : 9
	 13 : 9

	---Fragment 1 Geometry and Gradient---
	 H           3.3240282677       -1.2846740702       -1.6535103663
	 C           2.2166487539       -0.7952350018       -0.0000000000
	 H           3.3221385416       -1.2827843441        1.6554000924
	 O          -0.0000000000       -2.2503241241       -0.0000000000
	 C           1.4550891223        2.0110083055       -0.0000000000
	 C          -2.2166487539       -0.7952350018       -0.0000000000
	 H           2.1996412187        2.9728789072       -1.6478411879
	 H           2.2015309448        2.9747686333        1.6440617356
	 C          -1.4550891223        2.0110083055       -0.0000000000
	 H          -3.3240282677       -1.2827843441       -1.6554000924
	 H          -3.3240282677       -1.2846740702        1.6554000924
	 H          -2.1996412187        2.9747686333        1.6478411879
	 H          -2.1996412187        2.9747686333       -1.6459514617
	            -0.0001127799       -0.0000830207        0.0002022946
	             0.0004353985        0.0000488045       -0.0002154812
	            -0.0001619167       -0.0000007960       -0.0001622748
	             0.0000796167        0.0001453928        0.0000727976
	            -0.0006347578        0.0000254402        0.0006808550
	             0.0000352329        0.0002188059       -0.0001057907
	             0.0001652749        0.0000679043       -0.0002340274
	             0.0000337775       -0.0001082665       -0.0002264526
	             0.0006712840       -0.0003542199       -0.0005934551
	            -0.0000961337       -0.0000596574       -0.0001362922
	            -0.0001567599       -0.0002078881        0.0002731794
	            -0.0002211108        0.0002727521        0.0005246019
	            -0.0000371257        0.0000347487       -0.0000799545

	Previous optimization step data not found.  Starting new optimization.

	---Fragment 1 Intrafragment Coordinates---
	 - Coordinate -           - BOHR/RAD -       - ANG/DEG -
	 R(1,2)           =         2.049375	       1.084482
	 R(2,3)           =         2.049430	       1.084511
	 R(2,4)           =         2.651569	       1.403150
	 R(2,5)           =         2.907744	       1.538712
	 R(4,6)           =         2.651569	       1.403150
	 R(5,7)           =         2.048154	       1.083836
	 R(5,8)           =         2.046692	       1.083063
	 R(5,9)           =         2.910178	       1.540000
	 R(6,9)           =         2.907744	       1.538712
	 R(6,10)          =         2.050450	       1.085051
	 R(6,11)          =         2.050900	       1.085289
	 R(9,12)          =         2.049042	       1.084306
	 R(9,13)          =         2.047522	       1.083502
	 B(1,2,3)         =         1.879081	     107.663418
	 B(1,2,4)         =         1.897224	     108.702945
	 B(1,2,5)         =         1.951968	     111.839550
	 B(2,4,6)         =         1.979819	     113.435288
	 B(2,5,7)         =         1.936948	     110.978974
	 B(2,5,8)         =         1.937918	     111.034514
	 B(2,5,9)         =         1.835794	     105.183270
	 B(3,2,4)         =         1.896936	     108.686406
	 B(3,2,5)         =         1.950739	     111.769116
	 B(4,2,5)         =         1.886685	     108.099085
	 B(4,6,9)         =         1.886685	     108.099085
	 B(4,6,10)        =         1.897581	     108.723371
	 B(4,6,11)        =         1.896973	     108.688522
	 B(5,9,6)         =         1.835794	     105.183270
	 B(5,9,12)        =         1.942675	     111.307057
	 B(5,9,13)        =         1.942964	     111.323641
	 B(6,9,12)        =         1.937736	     111.024075
	 B(6,9,13)        =         1.938021	     111.040418
	 B(7,5,8)         =         1.867695	     107.011013
	 B(7,5,9)         =         1.942844	     111.316748
	 B(8,5,9)         =         1.944114	     111.389519
	 B(9,6,10)        =         1.950800	     111.772626
	 B(9,6,11)        =         1.951670	     111.822476
	 B(10,6,11)       =         1.878945	     107.655590
	 B(12,9,13)       =         1.868111	     107.034867
	 D(1,2,4,6)       =        -2.122147	    -121.590063
	 D(1,2,5,7)       =        -0.015078	      -0.863884
	 D(1,2,5,8)       =        -2.090122	    -119.755190
	 D(1,2,5,9)       =         2.087968	     119.631738
	 D(2,4,6,9)       =         0.000000	       0.000000
	 D(2,4,6,10)      =         2.120944	     121.521152
	 D(2,4,6,11)      =        -2.121637	    -121.560868
	 D(2,5,9,6)       =         0.000000	       0.000000
	 D(2,5,9,12)      =         2.100011	     120.321759
	 D(2,5,9,13)      =        -2.100511	    -120.350418
	 D(3,2,4,6)       =         2.120489	     121.495063
	 D(3,2,5,7)       =         2.093270	     119.935538
	 D(3,2,5,8)       =         0.018225	       1.044232
	 D(3,2,5,9)       =        -2.086870	    -119.568840
	 D(4,2,5,7)       =        -2.103045	    -120.495622
	 D(4,2,5,8)       =         2.105095	     120.613072
	 D(4,2,5,9)       =         0.000000	       0.000000
	 D(4,6,9,5)       =         0.000000	       0.000000
	 D(4,6,9,12)      =        -2.103268	    -120.508397
	 D(4,6,9,13)      =         2.103770	     120.537161
	 D(5,2,4,6)       =         0.000000	       0.000000
	 D(5,9,6,10)      =        -2.087703	    -119.616569
	 D(5,9,6,11)      =         2.087477	     119.603621
	 D(6,9,5,7)       =         2.099156	     120.272776
	 D(6,9,5,8)       =        -2.101012	    -120.379126
	 D(7,5,9,12)      =        -2.084019	    -119.405465
	 D(7,5,9,13)      =        -0.001355	      -0.077642
	 D(8,5,9,12)      =        -0.001001	      -0.057367
	 D(8,5,9,13)      =         2.081662	     119.270456
	 D(10,6,9,12)     =         2.092214	     119.875033
	 D(10,6,9,13)     =         0.016067	       0.920591
	 D(11,6,9,12)     =        -0.015791	      -0.904777
	 D(11,6,9,13)     =        -2.091938	    -119.859219

	Current energy   :      -230.9709317717

	Generating empirical Hessian (Schlegel '84) for each fragment.
	Taking RFO optimization step.
	Going to follow RFO solution 1.
	Using RFO vector 1.
	Norm of target step-size    0.00686
	Projected energy change by RFO approximation:        -0.0000061216

	Back-transformation to cartesian coordinates...
	Successfully converged to displaced geometry.

	--- Internal Coordinate Step in ANG or DEG, aJ/ANG or AJ/DEG ---
	 ---------------------------------------------------------------------------
	   Coordinate                Previous        Force       Change         New 
	   ----------                --------       ------       ------       ------
	    1 R(1,2)          =      1.084482     0.001683     0.000305     1.084787
	    2 R(2,3)          =      1.084511     0.001798     0.000326     1.084837
	    3 R(2,4)          =      1.403150     0.000427     0.000051     1.403201
	    4 R(2,5)          =      1.538712     0.000013     0.000019     1.538731
	    5 R(4,6)          =      1.403150    -0.000209    -0.000046     1.403104
	    6 R(5,7)          =      1.083836    -0.002309    -0.000417     1.083419
	    7 R(5,8)          =      1.083063     0.001817     0.000328     1.083390
	    8 R(5,9)          =      1.540000     0.002201     0.000520     1.540520
	    9 R(6,9)          =      1.538712    -0.000201    -0.000048     1.538663
	   10 R(6,10)         =      1.085051    -0.001451    -0.000263     1.084788
	   11 R(6,11)         =      1.085289    -0.002923    -0.000531     1.084759
	   12 R(9,12)         =      1.084306    -0.005195    -0.000940     1.083366
	   13 R(9,13)         =      1.083502    -0.000776    -0.000140     1.083362
	   14 B(1,2,3)        =    107.663418     0.000004     0.003534   107.666951
	   15 B(1,2,4)        =    108.702945     0.000002     0.012854   108.715799
	   16 B(1,2,5)        =    111.839550    -0.000012    -0.091411   111.748139
	   17 B(2,4,6)        =    113.435288    -0.000008    -0.034052   113.401236
	   18 B(2,5,7)        =    110.978974     0.000007     0.072006   111.050980
	   19 B(2,5,8)        =    111.034514     0.000003     0.003263   111.037777
	   20 B(2,5,9)        =    105.183270    -0.000005    -0.019745   105.163526
	   21 B(3,2,4)        =    108.686406     0.000001     0.049762   108.736168
	   22 B(3,2,5)        =    111.769116    -0.000003    -0.004271   111.764845
	   23 B(4,2,5)        =    108.099085     0.000008     0.033436   108.132522
	   24 B(4,6,9)        =    108.099085     0.000011     0.037811   108.136897
	   25 B(4,6,10)       =    108.723371    -0.000003     0.002532   108.725903
	   26 B(4,6,11)       =    108.688522     0.000002     0.039812   108.728334
	   27 B(5,9,6)        =    105.183270    -0.000006    -0.017555   105.165715
	   28 B(5,9,12)       =    111.307057     0.000003     0.013961   111.321018
	   29 B(5,9,13)       =    111.323641     0.000000    -0.008307   111.315334
	   30 B(6,9,12)       =    111.024075     0.000003     0.020527   111.044602
	   31 B(6,9,13)       =    111.040418     0.000002    -0.001111   111.039307
	   32 B(7,5,8)        =    107.011013     0.000001     0.022740   107.033753
	   33 B(7,5,9)        =    111.316748    -0.000001    -0.003541   111.313206
	   34 B(8,5,9)        =    111.389519    -0.000004    -0.075049   111.314470
	   35 B(9,6,10)       =    111.772626    -0.000004    -0.012303   111.760323
	   36 B(9,6,11)       =    111.822476    -0.000010    -0.066007   111.756469
	   37 B(10,6,11)      =    107.655590     0.000004     0.000921   107.656511
	   38 B(12,9,13)      =    107.034867    -0.000002    -0.006917   107.027950
	   39 D(1,2,4,6)      =   -121.590063     0.000001     0.017391  -121.572672
	   40 D(1,2,5,7)      =     -0.863884     0.000001     0.059920    -0.803965
	   41 D(1,2,5,8)      =   -119.755190    -0.000001    -0.017651  -119.772841
	   42 D(1,2,5,9)      =    119.631738     0.000001     0.082674   119.714412
	   43 D(2,4,6,9)      =      0.000000     0.000000     0.001521     0.001521
	   44 D(2,4,6,10)     =    121.521152     0.000000     0.010752   121.531905
	   45 D(2,4,6,11)     =   -121.560868     0.000001     0.035232  -121.525637
	   46 D(2,5,9,6)      =      0.000000    -0.000001    -0.096121    -0.096121
	   47 D(2,5,9,12)     =    120.321759    -0.000000    -0.074581   120.247179
	   48 D(2,5,9,13)     =   -120.350418    -0.000000    -0.079551  -120.429969
	   49 D(3,2,4,6)      =    121.495063    -0.000000    -0.021381   121.473682
	   50 D(3,2,5,7)      =    119.935538    -0.000000    -0.002779   119.932759
	   51 D(3,2,5,8)      =      1.044232    -0.000002    -0.080350     0.963882
	   52 D(3,2,5,9)      =   -119.568840    -0.000000     0.019975  -119.548865
	   53 D(4,2,5,7)      =   -120.495622     0.000001     0.077635  -120.417987
	   54 D(4,2,5,8)      =    120.613072    -0.000001     0.000064   120.613136
	   55 D(4,2,5,9)      =      0.000000     0.000001     0.100389     0.100389
	   56 D(4,6,9,5)      =      0.000000     0.000000     0.062192     0.062192
	   57 D(4,6,9,12)     =   -120.508397    -0.000000     0.044961  -120.463437
	   58 D(4,6,9,13)     =    120.537161    -0.000000     0.040970   120.578131
	   59 D(5,2,4,6)      =      0.000000    -0.000001    -0.065637    -0.065637
	   60 D(5,9,6,10)     =   -119.616569    -0.000000     0.042088  -119.574482
	   61 D(5,9,6,11)     =    119.603621     0.000001     0.095919   119.699540
	   62 D(6,9,5,7)      =    120.272776     0.000000    -0.023501   120.249275
	   63 D(6,9,5,8)      =   -120.379126    -0.000000    -0.047198  -120.426324
	   64 D(7,5,9,12)     =   -119.405465     0.000001    -0.001961  -119.407425
	   65 D(7,5,9,13)     =     -0.077642     0.000001    -0.006931    -0.084573
	   66 D(8,5,9,12)     =     -0.057367     0.000000    -0.025658    -0.083024
	   67 D(8,5,9,13)     =    119.270456     0.000000    -0.030628   119.239828
	   68 D(10,6,9,12)    =    119.875033    -0.000000     0.024856   119.899889
	   69 D(10,6,9,13)    =      0.920591    -0.000001     0.020865     0.941457
	   70 D(11,6,9,12)    =     -0.904777     0.000001     0.078687    -0.826089
	   71 D(11,6,9,13)    =   -119.859219     0.000001     0.074697  -119.784522
	 ---------------------------------------------------------------------------

  ==> Convergence Check <==

  Measures of convergence in internal coordinates in au.
  Criteria marked as inactive (o), active & met (*), and active & unmet ( ).
  --------------------------------------------------------------------------------------------- ~
   Step     Total Energy     Delta E     MAX Force     RMS Force      MAX Disp      RMS Disp    ~
  --------------------------------------------------------------------------------------------- ~
    Convergence Criteria    1.00e-06 *    3.00e-04 *             o    1.20e-03 *             o  ~
  --------------------------------------------------------------------------------------------- ~
      1    -230.97093177   -2.31e+02      6.31e-04      1.21e-04 o    1.78e-03      8.14e-04 o  ~
  ---------------------------------------------------------------------------------------------

	Writing optimization data to binary file.
	Structure for next step:
	Cartesian Geometry (in Angstrom)
	    H     1.7592286965  -0.6794618337  -0.8747755066
	    C     1.1727373376  -0.4212072575   0.0004936745
	    H     1.7581750880  -0.6786338244   0.8767732858
	    O    -0.0001796240  -1.1914273615  -0.0001531869
	    C     0.7703569577   1.0639799352  -0.0007247608
	    C    -1.1728094429  -0.4209474867  -0.0002022507
	    H     1.1635145985   1.5729749309  -0.8725893374
	    H     1.1648602979   1.5745167949   0.8695936658
	    C    -0.7701626358   1.0640980485   0.0004545371
	    H    -1.7586421672  -0.6783984584  -0.8761495889
	    H    -1.7591256344  -0.6789604902   0.8752198262
	    H    -1.1633607066   1.5733989250   0.8720562541
	    H    -1.1645927652   1.5744052589  -0.8699966121
			--------------------------
			 OPTKING Finished Execution 
			--------------------------

    Structure for next step:
    Molecular point group: c1
    Full point group: C1

    Geometry (in Angstrom), charge = 0, multiplicity = 1:

    H            1.759247277930    -0.679214113372    -0.874746812828
    C            1.172755963841    -0.420959556934     0.000522301465
    H            1.758193669550    -0.678386104194     0.876801845822
    O           -0.000160908197    -1.191179602065    -0.000124559890
    C            0.770375614701     1.064227522377    -0.000696133768
    C           -1.172790637530    -0.420699786152    -0.000173623692
    H            1.163533225499     1.573222479204    -0.872560643786
    H            1.164878924732     1.574764343030     0.869622226354
    C           -0.770143861170     1.064345635693     0.000483164088
    H           -1.758623317087    -0.678150738224    -0.876120895002
    H           -1.759106784292    -0.678712769944     0.875248386393
    H           -1.163341901931     1.573646473278     0.872084814504
    H           -1.164573960468     1.574652807041    -0.869967918632

gradient() will perform analytic gradient computation.

*** tstart() called on cx1-3-15-2.cx1.hpc.ic.ac.uk
*** at Tue Jul  5 16:33:21 2016


         ---------------------------------------------------------
                                   SCF
            by Justin Turney, Rob Parrish, and Andy Simmonett
                              RHF Reference
                        1 Threads,   2000 MiB Core
         ---------------------------------------------------------

  ==> Geometry <==

    Molecular point group: c1
    Full point group: C1

    Geometry (in Angstrom), charge = 0, multiplicity = 1:

       Center              X                  Y                   Z               Mass       
    ------------   -----------------  -----------------  -----------------  -----------------
           H          1.759247277930    -0.679214113372    -0.874746812828     1.007825032070
           C          1.172755963841    -0.420959556934     0.000522301465    12.000000000000
           H          1.758193669550    -0.678386104194     0.876801845822     1.007825032070
           O         -0.000160908197    -1.191179602065    -0.000124559890    15.994914619560
           C          0.770375614701     1.064227522377    -0.000696133768    12.000000000000
           C         -1.172790637530    -0.420699786152    -0.000173623692    12.000000000000
           H          1.163533225499     1.573222479204    -0.872560643786     1.007825032070
           H          1.164878924732     1.574764343030     0.869622226354     1.007825032070
           C         -0.770143861170     1.064345635693     0.000483164088    12.000000000000
           H         -1.758623317087    -0.678150738224    -0.876120895002     1.007825032070
           H         -1.759106784292    -0.678712769944     0.875248386393     1.007825032070
           H         -1.163341901931     1.573646473278     0.872084814504     1.007825032070
           H         -1.164573960468     1.574652807041    -0.869967918632     1.007825032070

  Running in c1 symmetry.

  Rotational constants: A =      0.23633  B =      0.23373  C =      0.12853 [cm^-1]
  Rotational constants: A =   7084.87622  B =   7006.90814  C =   3853.23131 [MHz]
  Nuclear repulsion =  190.419768114911278

  Charge       = 0
  Multiplicity = 1
  Electrons    = 40
  Nalpha       = 20
  Nbeta        = 20

  ==> Algorithm <==

  SCF Algorithm Type is DF.
  DIIS enabled.
  MOM disabled.
  Fractional occupation disabled.
  Guess Type is READ.
  Energy threshold   = 1.00e-08
  Density threshold  = 1.00e-08
  Integral threshold = 0.00e+00

  ==> Primary Basis <==

  Basis Set: 6-31G*
    Number of shells: 46
    Number of basis function: 91
    Number of Cartesian functions: 91
    Spherical Harmonics?: false
    Max angular momentum: 2

  ==> Pre-Iterations <==

   -------------------------------------------------------
    Irrep   Nso     Nmo     Nalpha   Nbeta   Ndocc  Nsocc
   -------------------------------------------------------
     A         91      91       0       0       0       0
   -------------------------------------------------------
    Total      91      91      20      20      20       0
   -------------------------------------------------------

 OEINTS: Overlap, kinetic, potential, dipole, and quadrupole integrals
         stored in file 35.

  ==> Integral Setup <==

  ==> DFJK: Density-Fitted J/K Matrices <==

    J tasked:                  Yes
    K tasked:                  Yes
    wK tasked:                  No
    OpenMP threads:              1
    Integrals threads:           1
    Memory (MB):              1430
    Algorithm:                Core
    Integral Cache:           NONE
    Schwarz Cutoff:          1E-12
    Fitting Condition:       1E-12

   => Auxiliary Basis Set <=

  Basis Set: 
    Number of shells: 192
    Number of basis function: 605
    Number of Cartesian functions: 605
    Spherical Harmonics?: false
    Max angular momentum: 3

  Minimum eigenvalue in the overlap matrix is 3.3360176848E-03.
  Using Symmetric Orthogonalization.
  SCF Guess: Reading in previously saved MOs, projecting if necessary.

  Using orbitals from previous SCF, no projection.
  Recomputing DOCC and SOCC from number of alpha and beta electrons from previous calculation.
              A 
    DOCC [    20 ]

  ==> Iterations <==

                           Total Energy        Delta E     RMS |[F,P]|

   @DF-RHF iter   0:  -230.97126628961814   -2.30971e+02   2.74860e-05 
   @DF-RHF iter   1:  -230.97093367720117    3.32612e-04   4.55454e-06 
   @DF-RHF iter   2:  -230.97093378924933   -1.12048e-07   1.94494e-06 DIIS
   @DF-RHF iter   3:  -230.97093380452890   -1.52796e-08   7.16509e-07 DIIS
   @DF-RHF iter   4:  -230.97093380770599   -3.17709e-09   1.44040e-07 DIIS
   @DF-RHF iter   5:  -230.97093380788044   -1.74452e-10   4.53404e-08 DIIS
   @DF-RHF iter   6:  -230.97093380789738   -1.69393e-11   1.50092e-08 DIIS
   @DF-RHF iter   7:  -230.97093380789943   -2.04636e-12   3.52082e-09 DIIS

  ==> Post-Iterations <==

    Orbital Energies (a.u.)
    -----------------------

    Doubly Occupied:                                                      

       1A    -20.543206     2A    -11.264656     3A    -11.264615  
       4A    -11.223479     5A    -11.222911     6A     -1.372723  
       7A     -1.052648     8A     -0.997069     9A     -0.811609  
      10A     -0.810745    11A     -0.683716    12A     -0.669158  
      13A     -0.590896    14A     -0.586811    15A     -0.581555  
      16A     -0.499834    17A     -0.487903    18A     -0.467405  
      19A     -0.462098    20A     -0.397689  

    Virtual:                                                              

      21A      0.221173    22A      0.245899    23A      0.283812  
      24A      0.303740    25A      0.315412    26A      0.320974  
      27A      0.326308    28A      0.357891    29A      0.378755  
      30A      0.400176    31A      0.417636    32A      0.484102  
      33A      0.558725    34A      0.692270    35A      0.756172  
      36A      0.780873    37A      0.793565    38A      0.835244  
      39A      0.841205    40A      0.896150    41A      0.897869  
      42A      0.917785    43A      0.952492    44A      0.983175  
      45A      1.071919    46A      1.133312    47A      1.136076  
      48A      1.136657    49A      1.136806    50A      1.149327  
      51A      1.202298    52A      1.217366    53A      1.245573  
      54A      1.263742    55A      1.318595    56A      1.329090  
      57A      1.407482    58A      1.481309    59A      1.604920  
      60A      1.661910    61A      1.771279    62A      1.948649  
      63A      2.018401    64A      2.061012    65A      2.096736  
      66A      2.127000    67A      2.129902    68A      2.195524  
      69A      2.294081    70A      2.299073    71A      2.355738  
      72A      2.375787    73A      2.499230    74A      2.508569  
      75A      2.513386    76A      2.522701    77A      2.703633  
      78A      2.778348    79A      2.829675    80A      2.830255  
      81A      2.918718    82A      2.951404    83A      2.956469  
      84A      3.029397    85A      3.169851    86A      3.380981  
      87A      4.416222    88A      4.581976    89A      4.665283  
      90A      4.868162    91A      5.007075  

    Final Occupation by Irrep:
              A 
    DOCC [    20 ]

  Energy converged.

  @DF-RHF Final Energy:  -230.97093380789943

   => Energetics <=

    Nuclear Repulsion Energy =            190.4197681149112782
    One-Electron Energy =                -690.7999538865716431
    Two-Electron Energy =                 269.4092519637605392
    DFT Exchange-Correlation Energy =       0.0000000000000000
    Empirical Dispersion Energy =           0.0000000000000000
    PCM Polarization Energy =               0.0000000000000000
    EFP Energy =                            0.0000000000000000
    Total Energy =                       -230.9709338078998258

    Alert: EFP and PCM quantities not currently incorporated into SCF psivars.

Properties will be evaluated at   0.000000,   0.000000,   0.000000 Bohr
  ==> Properties <==


Properties computed using the SCF density matrix

  Nuclear Dipole Moment: (a.u.)
     X:     0.0002      Y:     3.3521      Z:     0.0003

  Electronic Dipole Moment: (a.u.)
     X:    -0.0000      Y:    -2.5829      Z:    -0.0002

  Dipole Moment: (a.u.)
     X:     0.0002      Y:     0.7692      Z:     0.0002     Total:     0.7692

  Dipole Moment: (Debye)
     X:     0.0005      Y:     1.9552      Z:     0.0004     Total:     1.9552


  Saving occupied orbitals to File 180.

*** tstop() called on cx1-3-15-2.cx1.hpc.ic.ac.uk at Tue Jul  5 16:33:25 2016
Module time:
	user time   =       3.60 seconds =       0.06 minutes
	system time =       0.01 seconds =       0.00 minutes
	total time  =          4 seconds =       0.07 minutes
Total time:
	user time   =      13.33 seconds =       0.22 minutes
	system time =       0.08 seconds =       0.00 minutes
	total time  =         16 seconds =       0.27 minutes

*** tstart() called on cx1-3-15-2.cx1.hpc.ic.ac.uk
*** at Tue Jul  5 16:33:25 2016


         ------------------------------------------------------------
                                   SCF GRAD                          
                          Rob Parrish, Justin Turney,                
                       Andy Simmonett, and Alex Sokolov              
         ------------------------------------------------------------

  ==> Geometry <==

    Molecular point group: c1
    Full point group: C1

    Geometry (in Angstrom), charge = 0, multiplicity = 1:

       Center              X                  Y                   Z               Mass       
    ------------   -----------------  -----------------  -----------------  -----------------
           H          1.759247277930    -0.679214113372    -0.874746812828     1.007825032070
           C          1.172755963841    -0.420959556934     0.000522301465    12.000000000000
           H          1.758193669550    -0.678386104194     0.876801845822     1.007825032070
           O         -0.000160908197    -1.191179602065    -0.000124559890    15.994914619560
           C          0.770375614701     1.064227522377    -0.000696133768    12.000000000000
           C         -1.172790637530    -0.420699786152    -0.000173623692    12.000000000000
           H          1.163533225499     1.573222479204    -0.872560643786     1.007825032070
           H          1.164878924732     1.574764343030     0.869622226354     1.007825032070
           C         -0.770143861170     1.064345635693     0.000483164088    12.000000000000
           H         -1.758623317087    -0.678150738224    -0.876120895002     1.007825032070
           H         -1.759106784292    -0.678712769944     0.875248386393     1.007825032070
           H         -1.163341901931     1.573646473278     0.872084814504     1.007825032070
           H         -1.164573960468     1.574652807041    -0.869967918632     1.007825032070

  Nuclear repulsion =  190.419768114911278

  ==> Basis Set <==

  Basis Set: 6-31G*
    Number of shells: 46
    Number of basis function: 91
    Number of Cartesian functions: 91
    Spherical Harmonics?: false
    Max angular momentum: 2

  ==> DFJKGrad: Density-Fitted SCF Gradients <==

    Gradient:                    1
    J tasked:                  Yes
    K tasked:                  Yes
    wK tasked:                  No
    OpenMP threads:              1
    Integrals threads:           1
    Memory (MB):              1430
    Schwarz Cutoff:          0E+00
    Fitting Condition:       1E-12

   => Auxiliary Basis Set <=

  Basis Set: 
    Number of shells: 192
    Number of basis function: 605
    Number of Cartesian functions: 605
    Spherical Harmonics?: false
    Max angular momentum: 3


  -Total Gradient:
     Atom            X                  Y                   Z
    ------   -----------------  -----------------  -----------------
       1       -0.000011544918     0.000028103189    -0.000013781088
       2        0.000019495348    -0.000009516340     0.000051189239
       3        0.000042144335     0.000005961107     0.000010886756
       4       -0.000062861772    -0.000082802706    -0.000011107870
       5       -0.000094040642     0.000003821516    -0.000035903822
       6        0.000030049170    -0.000003717475     0.000000713413
       7        0.000013049374     0.000035923551    -0.000000629846
       8        0.000003812607    -0.000007990729    -0.000000079747
       9        0.000091962117    -0.000000508923     0.000022835793
      10       -0.000014492079     0.000011909820     0.000018899986
      11        0.000002984302     0.000021933998    -0.000030664159
      12       -0.000016772721     0.000007508126    -0.000036558628
      13       -0.000003785120    -0.000010625134     0.000024199973


*** tstop() called on cx1-3-15-2.cx1.hpc.ic.ac.uk at Tue Jul  5 16:33:31 2016
Module time:
	user time   =       5.61 seconds =       0.09 minutes
	system time =       0.03 seconds =       0.00 minutes
	total time  =          6 seconds =       0.10 minutes
Total time:
	user time   =      18.94 seconds =       0.32 minutes
	system time =       0.11 seconds =       0.00 minutes
	total time  =         22 seconds =       0.37 minutes
CURRENT ENERGY: -230.9709338079

			-----------------------------------------
			 OPTKING 2.0: for geometry optimizations 
			  - R.A. King,  Bethel University        
			-----------------------------------------

	Previous internal coordinate definitions found.
	---Fragment 1 Geometry and Gradient---
	 H           3.3244955553       -1.2835286599       -1.6530319119
	 C           2.2161875924       -0.7954982756        0.0009870067
	 H           3.3225045240       -1.2819639493        1.6569153614
	 O          -0.0003040724       -2.2510032230       -0.0002353841
	 C           1.4557989312        2.0110985604       -0.0013155022
	 C          -2.2162531161       -0.7950073800       -0.0003281012
	 H           2.1987591427        2.9729596318       -1.6489006511
	 H           2.2013021457        2.9758733322        1.6433478469
	 C          -1.4553609805        2.0113217622        0.0009130478
	 H          -3.3233164402       -1.2815191721       -1.6556285509
	 H          -3.3242300608       -1.2825812581        1.6539797485
	 H          -2.1983975936        2.9737608645        1.6480014641
	 H          -2.2007258468        2.9756625597       -1.6440011106
	            -0.0000115449        0.0000281032       -0.0000137811
	             0.0000194953       -0.0000095163        0.0000511892
	             0.0000421443        0.0000059611        0.0000108868
	            -0.0000628618       -0.0000828027       -0.0000111079
	            -0.0000940406        0.0000038215       -0.0000359038
	             0.0000300492       -0.0000037175        0.0000007134
	             0.0000130494        0.0000359236       -0.0000006298
	             0.0000038126       -0.0000079907       -0.0000000797
	             0.0000919621       -0.0000005089        0.0000228358
	            -0.0000144921        0.0000119098        0.0000189000
	             0.0000029843        0.0000219340       -0.0000306642
	            -0.0000167727        0.0000075081       -0.0000365586
	            -0.0000037851       -0.0000106251        0.0000242000

	---Fragment 1 Intrafragment Coordinates---
	 - Coordinate -           - BOHR/RAD -       - ANG/DEG -
	 R(1,2)           =         2.049951	       1.084787
	 R(2,3)           =         2.050045	       1.084837
	 R(2,4)           =         2.651666	       1.403201
	 R(2,5)           =         2.907780	       1.538731
	 R(4,6)           =         2.651481	       1.403104
	 R(5,7)           =         2.047365	       1.083419
	 R(5,8)           =         2.047311	       1.083390
	 R(5,9)           =         2.911161	       1.540520
	 R(6,9)           =         2.907652	       1.538663
	 R(6,10)          =         2.049952	       1.084788
	 R(6,11)          =         2.049896	       1.084759
	 R(9,12)          =         2.047265	       1.083366
	 R(9,13)          =         2.047258	       1.083362
	 B(1,2,3)         =         1.879143	     107.666951
	 B(1,2,4)         =         1.897449	     108.715799
	 B(1,2,5)         =         1.950373	     111.748139
	 B(2,4,6)         =         1.979225	     113.401236
	 B(2,5,7)         =         1.938205	     111.050980
	 B(2,5,8)         =         1.937975	     111.037777
	 B(2,5,9)         =         1.835450	     105.163526
	 B(3,2,4)         =         1.897804	     108.736168
	 B(3,2,5)         =         1.950665	     111.764845
	 B(4,2,5)         =         1.887269	     108.132522
	 B(4,6,9)         =         1.887345	     108.136897
	 B(4,6,10)        =         1.897625	     108.725903
	 B(4,6,11)        =         1.897667	     108.728334
	 B(5,9,6)         =         1.835488	     105.165715
	 B(5,9,12)        =         1.942918	     111.321018
	 B(5,9,13)        =         1.942819	     111.315334
	 B(6,9,12)        =         1.938094	     111.044602
	 B(6,9,13)        =         1.938001	     111.039307
	 B(7,5,8)         =         1.868091	     107.033753
	 B(7,5,9)         =         1.942782	     111.313206
	 B(8,5,9)         =         1.942804	     111.314470
	 B(9,6,10)        =         1.950586	     111.760323
	 B(9,6,11)        =         1.950518	     111.756469
	 B(10,6,11)       =         1.878961	     107.656511
	 B(12,9,13)       =         1.867990	     107.027950
	 D(1,2,4,6)       =        -2.121843	    -121.572672
	 D(1,2,5,7)       =        -0.014032	      -0.803965
	 D(1,2,5,8)       =        -2.090430	    -119.772841
	 D(1,2,5,9)       =         2.089411	     119.714412
	 D(2,4,6,9)       =         0.000027	       0.001521
	 D(2,4,6,10)      =         2.121132	     121.531905
	 D(2,4,6,11)      =        -2.121022	    -121.525637
	 D(2,5,9,6)       =        -0.001678	      -0.096121
	 D(2,5,9,12)      =         2.098709	     120.247179
	 D(2,5,9,13)      =        -2.101899	    -120.429969
	 D(3,2,4,6)       =         2.120116	     121.473682
	 D(3,2,5,7)       =         2.093222	     119.932759
	 D(3,2,5,8)       =         0.016823	       0.963882
	 D(3,2,5,9)       =        -2.086521	    -119.548865
	 D(4,2,5,7)       =        -2.101690	    -120.417987
	 D(4,2,5,8)       =         2.105096	     120.613136
	 D(4,2,5,9)       =         0.001752	       0.100389
	 D(4,6,9,5)       =         0.001085	       0.062192
	 D(4,6,9,12)      =        -2.102484	    -120.463437
	 D(4,6,9,13)      =         2.104485	     120.578131
	 D(5,2,4,6)       =        -0.001146	      -0.065637
	 D(5,9,6,10)      =        -2.086968	    -119.574482
	 D(5,9,6,11)      =         2.089151	     119.699540
	 D(6,9,5,7)       =         2.098746	     120.249275
	 D(6,9,5,8)       =        -2.101836	    -120.426324
	 D(7,5,9,12)      =        -2.084053	    -119.407425
	 D(7,5,9,13)      =        -0.001476	      -0.084573
	 D(8,5,9,12)      =        -0.001449	      -0.083024
	 D(8,5,9,13)      =         2.081128	     119.239828
	 D(10,6,9,12)     =         2.092648	     119.899889
	 D(10,6,9,13)     =         0.016432	       0.941457
	 D(11,6,9,12)     =        -0.014418	      -0.826089
	 D(11,6,9,13)     =        -2.090634	    -119.784522

	Current energy   :      -230.9709338079

	Energy change for the previous step:
		Projected    :        -0.0000061216
		Actual       :        -0.0000020362

	Performing BFGS update.
	Previous computed or guess Hessian on step 1.
	Steps to be used in Hessian update: 1
	Taking RFO optimization step.
	Going to follow RFO solution 1.
	Using RFO vector 1.
	Norm of target step-size    0.00685
	Projected energy change by RFO approximation:         0.0000012566

	Back-transformation to cartesian coordinates...
	Successfully converged to displaced geometry.

	--- Internal Coordinate Step in ANG or DEG, aJ/ANG or AJ/DEG ---
	 ---------------------------------------------------------------------------
	   Coordinate                Previous        Force       Change         New 
	   ----------                --------       ------       ------       ------
	    1 R(1,2)          =      1.084787     0.000015     0.000019     1.084807
	    2 R(2,3)          =      1.084837    -0.000248    -0.000025     1.084813
	    3 R(2,4)          =      1.403201    -0.000606    -0.000086     1.403115
	    4 R(2,5)          =      1.538731    -0.000225    -0.000052     1.538679
	    5 R(4,6)          =      1.403104    -0.000063    -0.000013     1.403090
	    6 R(5,7)          =      1.083419    -0.000182    -0.000054     1.083365
	    7 R(5,8)          =      1.083390     0.000020     0.000021     1.083412
	    8 R(5,9)          =      1.540520     0.000659     0.000178     1.540698
	    9 R(6,9)          =      1.538663     0.000026     0.000012     1.538676
	   10 R(6,10)         =      1.084788     0.000085     0.000000     1.084788
	   11 R(6,11)         =      1.084759     0.000260     0.000016     1.084774
	   12 R(9,12)         =      1.083366     0.000163    -0.000024     1.083342
	   13 R(9,13)         =      1.083362     0.000190     0.000025     1.083387
	   14 B(1,2,3)        =    107.666951    -0.000001     0.000224   107.667175
	   15 B(1,2,4)        =    108.715799    -0.000000     0.003192   108.718991
	   16 B(1,2,5)        =    111.748139     0.000003     0.016472   111.764611
	   17 B(2,4,6)        =    113.401236     0.000004     0.010095   113.411331
	   18 B(2,5,7)        =    111.050980    -0.000001    -0.007140   111.043840
	   19 B(2,5,8)        =    111.037777     0.000001     0.006239   111.044016
	   20 B(2,5,9)        =    105.163526    -0.000000    -0.001157   105.162369
	   21 B(3,2,4)        =    108.736168    -0.000001    -0.016049   108.720119
	   22 B(3,2,5)        =    111.764845     0.000000    -0.003406   111.761439
	   23 B(4,2,5)        =    108.132522    -0.000000    -0.001139   108.131383
	   24 B(4,6,9)        =    108.136897    -0.000002    -0.004606   108.132291
	   25 B(4,6,10)       =    108.725903    -0.000000    -0.007661   108.718242
	   26 B(4,6,11)       =    108.728334    -0.000000    -0.005487   108.722846
	   27 B(5,9,6)        =    105.165715    -0.000001    -0.003396   105.162319
	   28 B(5,9,12)       =    111.321018    -0.000001    -0.009325   111.311693
	   29 B(5,9,13)       =    111.315334     0.000000    -0.002754   111.312580
	   30 B(6,9,12)       =    111.044602     0.000000    -0.001189   111.043412
	   31 B(6,9,13)       =    111.039307     0.000001     0.004415   111.043722
	   32 B(7,5,8)        =    107.033753     0.000000     0.008054   107.041807
	   33 B(7,5,9)        =    111.313206     0.000000    -0.001692   111.311515
	   34 B(8,5,9)        =    111.314470    -0.000000    -0.004661   111.309809
	   35 B(9,6,10)       =    111.760323     0.000001     0.003309   111.763632
	   36 B(9,6,11)       =    111.756469     0.000001     0.005025   111.761494
	   37 B(10,6,11)      =    107.656511     0.000000     0.008791   107.665302
	   38 B(12,9,13)      =    107.027950     0.000001     0.011771   107.039721
	   39 D(1,2,4,6)      =   -121.572672    -0.000000    -0.067659  -121.640331
	   40 D(1,2,5,7)      =     -0.803965     0.000000     0.091176    -0.712789
	   41 D(1,2,5,8)      =   -119.772841    -0.000000     0.081658  -119.691183
	   42 D(1,2,5,9)      =    119.714412     0.000000     0.084578   119.798990
	   43 D(2,4,6,9)      =      0.001521    -0.000000     0.000761     0.002282
	   44 D(2,4,6,10)     =    121.531905    -0.000000    -0.002527   121.529378
	   45 D(2,4,6,11)     =   -121.525637    -0.000000     0.000685  -121.524952
	   46 D(2,5,9,6)      =     -0.096121     0.000000    -0.068573    -0.164694
	   47 D(2,5,9,12)     =    120.247179    -0.000000    -0.077135   120.170043
	   48 D(2,5,9,13)     =   -120.429969     0.000000    -0.070315  -120.500284
	   49 D(3,2,4,6)      =    121.473682    -0.000000    -0.060823   121.412859
	   50 D(3,2,5,7)      =    119.932759     0.000000     0.100634   120.033393
	   51 D(3,2,5,8)      =      0.963882     0.000000     0.091116     1.054998
	   52 D(3,2,5,9)      =   -119.548865     0.000000     0.094036  -119.454828
	   53 D(4,2,5,7)      =   -120.417987    -0.000000     0.078029  -120.339959
	   54 D(4,2,5,8)      =    120.613136    -0.000000     0.068511   120.681647
	   55 D(4,2,5,9)      =      0.100389    -0.000000     0.071431     0.171820
	   56 D(4,6,9,5)      =      0.062192    -0.000000     0.044546     0.106738
	   57 D(4,6,9,12)     =   -120.463437     0.000000     0.058444  -120.404993
	   58 D(4,6,9,13)     =    120.578131    -0.000000     0.041571   120.619702
	   59 D(5,2,4,6)      =     -0.065637     0.000000    -0.046513    -0.112150
	   60 D(5,9,6,10)     =   -119.574482     0.000000     0.054979  -119.519502
	   61 D(5,9,6,11)     =    119.699540    -0.000000     0.037833   119.737373
	   62 D(6,9,5,7)      =    120.249275    -0.000000    -0.078784   120.170491
	   63 D(6,9,5,8)      =   -120.426324     0.000000    -0.072841  -120.499165
	   64 D(7,5,9,12)     =   -119.407425    -0.000000    -0.087347  -119.494772
	   65 D(7,5,9,13)     =     -0.084573    -0.000000    -0.080526    -0.165099
	   66 D(8,5,9,12)     =     -0.083024    -0.000000    -0.081404    -0.164428
	   67 D(8,5,9,13)     =    119.239828    -0.000000    -0.074584   119.165245
	   68 D(10,6,9,12)    =    119.899889     0.000000     0.068877   119.968767
	   69 D(10,6,9,13)    =      0.941457     0.000000     0.052004     0.993461
	   70 D(11,6,9,12)    =     -0.826089     0.000000     0.051731    -0.774358
	   71 D(11,6,9,13)    =   -119.784522    -0.000000     0.034858  -119.749664
	 ---------------------------------------------------------------------------

  ==> Convergence Check <==

  Measures of convergence in internal coordinates in au.
  Criteria marked as inactive (o), active & met (*), and active & unmet ( ).
  ---------------------------------------------------------------------------------------------
   Step     Total Energy     Delta E     MAX Force     RMS Force      MAX Disp      RMS Disp   
  ---------------------------------------------------------------------------------------------
    Convergence Criteria    1.00e-06 *    3.00e-04 *             o    1.20e-03 *             o
  ---------------------------------------------------------------------------------------------
      2    -230.97093381   -2.04e-06      8.00e-05 *    1.95e-05 o    1.76e-03      8.13e-04 o  ~
  ---------------------------------------------------------------------------------------------

	Writing optimization data to binary file.
	Structure for next step:
	Cartesian Geometry (in Angstrom)
	    H     1.7600282564  -0.6796357997  -0.8739285404
	    C     1.1727585391  -0.4208919398   0.0006979041
	    H     1.7572725803  -0.6781389411   0.8776161092
	    O    -0.0001274242  -1.1910012240  -0.0005069660
	    C     0.7704437054   1.0642589319  -0.0011571597
	    C    -1.1728404727  -0.4206722535  -0.0004608884
	    H     1.1630708808   1.5725667017  -0.8735943536
	    H     1.1653682511   1.5753859270   0.8686503495
	    C    -0.7702530911   1.0644017902   0.0008856891
	    H    -1.7583460779  -0.6778869500  -0.8766963954
	    H    -1.7592278943  -0.6791918015   0.8747833384
	    H    -1.1627811189   1.5730627920   0.8731334488
	    H    -1.1651228284   1.5752996373  -0.8690503847
			--------------------------
			 OPTKING Finished Execution 
			--------------------------

    Structure for next step:
    Molecular point group: c1
    Full point group: C1

    Geometry (in Angstrom), charge = 0, multiplicity = 1:

    H            1.760034642748    -0.679700724686    -0.873822979921
    C            1.172764970329    -0.420956884562     0.000803397796
    H            1.757278966924    -0.678203866165     0.877721535915
    O           -0.000120903387    -1.191066109951    -0.000401472234
    C            0.770450167307     1.064193873768    -0.001051665892
    C           -1.172833862338    -0.420737198256    -0.000355394630
    H            1.163077312767     1.572501604744    -0.873488793144
    H            1.165374682929     1.575320829770     0.868755776832
    C           -0.770246511525     1.064336732052     0.000991182725
    H           -1.758339422861    -0.677951875170    -0.876590834730
    H           -1.759221239220    -0.679256726516     0.874888765329
    H           -1.162774509287     1.572997694930     0.873238875829
    H           -1.165116218672     1.575234540090    -0.868944824657

gradient() will perform analytic gradient computation.

*** tstart() called on cx1-3-15-2.cx1.hpc.ic.ac.uk
*** at Tue Jul  5 16:33:31 2016


         ---------------------------------------------------------
                                   SCF
            by Justin Turney, Rob Parrish, and Andy Simmonett
                              RHF Reference
                        1 Threads,   2000 MiB Core
         ---------------------------------------------------------

  ==> Geometry <==

    Molecular point group: c1
    Full point group: C1

    Geometry (in Angstrom), charge = 0, multiplicity = 1:

       Center              X                  Y                   Z               Mass       
    ------------   -----------------  -----------------  -----------------  -----------------
           H          1.760034642748    -0.679700724686    -0.873822979921     1.007825032070
           C          1.172764970329    -0.420956884562     0.000803397796    12.000000000000
           H          1.757278966924    -0.678203866165     0.877721535915     1.007825032070
           O         -0.000120903387    -1.191066109951    -0.000401472234    15.994914619560
           C          0.770450167307     1.064193873768    -0.001051665892    12.000000000000
           C         -1.172833862338    -0.420737198256    -0.000355394630    12.000000000000
           H          1.163077312767     1.572501604744    -0.873488793144     1.007825032070
           H          1.165374682929     1.575320829770     0.868755776832     1.007825032070
           C         -0.770246511525     1.064336732052     0.000991182725    12.000000000000
           H         -1.758339422861    -0.677951875170    -0.876590834730     1.007825032070
           H         -1.759221239220    -0.679256726516     0.874888765329     1.007825032070
           H         -1.162774509287     1.572997694930     0.873238875829     1.007825032070
           H         -1.165116218672     1.575234540090    -0.868944824657     1.007825032070

  Running in c1 symmetry.

  Rotational constants: A =      0.23631  B =      0.23374  C =      0.12853 [cm^-1]
  Rotational constants: A =   7084.44846  B =   7007.32883  C =   3853.26552 [MHz]
  Nuclear repulsion =  190.420317117956643

  Charge       = 0
  Multiplicity = 1
  Electrons    = 40
  Nalpha       = 20
  Nbeta        = 20

  ==> Algorithm <==

  SCF Algorithm Type is DF.
  DIIS enabled.
  MOM disabled.
  Fractional occupation disabled.
  Guess Type is READ.
  Energy threshold   = 1.00e-08
  Density threshold  = 1.00e-08
  Integral threshold = 0.00e+00

  ==> Primary Basis <==

  Basis Set: 6-31G*
    Number of shells: 46
    Number of basis function: 91
    Number of Cartesian functions: 91
    Spherical Harmonics?: false
    Max angular momentum: 2

  ==> Pre-Iterations <==

   -------------------------------------------------------
    Irrep   Nso     Nmo     Nalpha   Nbeta   Ndocc  Nsocc
   -------------------------------------------------------
     A         91      91       0       0       0       0
   -------------------------------------------------------
    Total      91      91      20      20      20       0
   -------------------------------------------------------

 OEINTS: Overlap, kinetic, potential, dipole, and quadrupole integrals
         stored in file 35.

  ==> Integral Setup <==

  ==> DFJK: Density-Fitted J/K Matrices <==

    J tasked:                  Yes
    K tasked:                  Yes
    wK tasked:                  No
    OpenMP threads:              1
    Integrals threads:           1
    Memory (MB):              1430
    Algorithm:                Core
    Integral Cache:           NONE
    Schwarz Cutoff:          1E-12
    Fitting Condition:       1E-12

   => Auxiliary Basis Set <=

  Basis Set: 
    Number of shells: 192
    Number of basis function: 605
    Number of Cartesian functions: 605
    Spherical Harmonics?: false
    Max angular momentum: 3

  Minimum eigenvalue in the overlap matrix is 3.3362300903E-03.
  Using Symmetric Orthogonalization.
  SCF Guess: Reading in previously saved MOs, projecting if necessary.

  Using orbitals from previous SCF, no projection.
  Recomputing DOCC and SOCC from number of alpha and beta electrons from previous calculation.
              A 
    DOCC [    20 ]

  ==> Iterations <==

                           Total Energy        Delta E     RMS |[F,P]|

   @DF-RHF iter   0:  -230.97096247132771   -2.30971e+02   1.43316e-05 
   @DF-RHF iter   1:  -230.97093394704649    2.85243e-05   3.08634e-06 
   @DF-RHF iter   2:  -230.97093402172851   -7.46820e-08   1.05092e-06 DIIS
   @DF-RHF iter   3:  -230.97093403181623   -1.00877e-08   3.99129e-07 DIIS
   @DF-RHF iter   4:  -230.97093403244770   -6.31474e-10   5.46535e-08 DIIS
   @DF-RHF iter   5:  -230.97093403247459   -2.68869e-11   1.54959e-08 DIIS
   @DF-RHF iter   6:  -230.97093403247595   -1.36424e-12   3.80792e-09 DIIS

  ==> Post-Iterations <==

    Orbital Energies (a.u.)
    -----------------------

    Doubly Occupied:                                                      

       1A    -20.543180     2A    -11.264644     3A    -11.264616  
       4A    -11.223486     5A    -11.222919     6A     -1.372741  
       7A     -1.052612     8A     -0.997084     9A     -0.811625  
      10A     -0.810715    11A     -0.683726    12A     -0.669149  
      13A     -0.590909    14A     -0.586809    15A     -0.581562  
      16A     -0.499778    17A     -0.487924    18A     -0.467435  
      19A     -0.462076    20A     -0.397671  

    Virtual:                                                              

      21A      0.221173    22A      0.245917    23A      0.283817  
      24A      0.303739    25A      0.315412    26A      0.320939  
      27A      0.326327    28A      0.357892    29A      0.378752  
      30A      0.400193    31A      0.417623    32A      0.484092  
      33A      0.558692    34A      0.692270    35A      0.756177  
      36A      0.780855    37A      0.793560    38A      0.835280  
      39A      0.841223    40A      0.896162    41A      0.897857  
      42A      0.917717    43A      0.952539    44A      0.983142  
      45A      1.071919    46A      1.133321    47A      1.136096  
      48A      1.136659    49A      1.136816    50A      1.149344  
      51A      1.202305    52A      1.217347    53A      1.245566  
      54A      1.263859    55A      1.318602    56A      1.329080  
      57A      1.407479    58A      1.481326    59A      1.604899  
      60A      1.661926    61A      1.771363    62A      1.948688  
      63A      2.018400    64A      2.060940    65A      2.096739  
      66A      2.127016    67A      2.129919    68A      2.195524  
      69A      2.294129    70A      2.299039    71A      2.355793  
      72A      2.375734    73A      2.499292    74A      2.508651  
      75A      2.513458    76A      2.522635    77A      2.703617  
      78A      2.778442    79A      2.829682    80A      2.830264  
      81A      2.918694    82A      2.951291    83A      2.956437  
      84A      3.029350    85A      3.170007    86A      3.380996  
      87A      4.416275    88A      4.581949    89A      4.665293  
      90A      4.868176    91A      5.007067  

    Final Occupation by Irrep:
              A 
    DOCC [    20 ]

  Energy converged.

  @DF-RHF Final Energy:  -230.97093403247595

   => Energetics <=

    Nuclear Repulsion Energy =            190.4203171179566425
    One-Electron Energy =                -690.8011786223444233
    Two-Electron Energy =                 269.4099274719116011
    DFT Exchange-Correlation Energy =       0.0000000000000000
    Empirical Dispersion Energy =           0.0000000000000000
    PCM Polarization Energy =               0.0000000000000000
    EFP Energy =                            0.0000000000000000
    Total Energy =                       -230.9709340324761797

    Alert: EFP and PCM quantities not currently incorporated into SCF psivars.

Properties will be evaluated at   0.000000,   0.000000,   0.000000 Bohr
  ==> Properties <==


Properties computed using the SCF density matrix

  Nuclear Dipole Moment: (a.u.)
     X:     0.0003      Y:     3.3513      Z:     0.0016

  Electronic Dipole Moment: (a.u.)
     X:    -0.0002      Y:    -2.5822      Z:    -0.0013

  Dipole Moment: (a.u.)
     X:     0.0001      Y:     0.7691      Z:     0.0004     Total:     0.7691

  Dipole Moment: (Debye)
     X:     0.0002      Y:     1.9548      Z:     0.0010     Total:     1.9548


  Saving occupied orbitals to File 180.

*** tstop() called on cx1-3-15-2.cx1.hpc.ic.ac.uk at Tue Jul  5 16:33:35 2016
Module time:
	user time   =       3.54 seconds =       0.06 minutes
	system time =       0.01 seconds =       0.00 minutes
	total time  =          4 seconds =       0.07 minutes
Total time:
	user time   =      22.56 seconds =       0.38 minutes
	system time =       0.12 seconds =       0.00 minutes
	total time  =         26 seconds =       0.43 minutes

*** tstart() called on cx1-3-15-2.cx1.hpc.ic.ac.uk
*** at Tue Jul  5 16:33:35 2016


         ------------------------------------------------------------
                                   SCF GRAD                          
                          Rob Parrish, Justin Turney,                
                       Andy Simmonett, and Alex Sokolov              
         ------------------------------------------------------------

  ==> Geometry <==

    Molecular point group: c1
    Full point group: C1

    Geometry (in Angstrom), charge = 0, multiplicity = 1:

       Center              X                  Y                   Z               Mass       
    ------------   -----------------  -----------------  -----------------  -----------------
           H          1.760034642748    -0.679700724686    -0.873822979921     1.007825032070
           C          1.172764970329    -0.420956884562     0.000803397796    12.000000000000
           H          1.757278966924    -0.678203866165     0.877721535915     1.007825032070
           O         -0.000120903387    -1.191066109951    -0.000401472234    15.994914619560
           C          0.770450167307     1.064193873768    -0.001051665892    12.000000000000
           C         -1.172833862338    -0.420737198256    -0.000355394630    12.000000000000
           H          1.163077312767     1.572501604744    -0.873488793144     1.007825032070
           H          1.165374682929     1.575320829770     0.868755776832     1.007825032070
           C         -0.770246511525     1.064336732052     0.000991182725    12.000000000000
           H         -1.758339422861    -0.677951875170    -0.876590834730     1.007825032070
           H         -1.759221239220    -0.679256726516     0.874888765329     1.007825032070
           H         -1.162774509287     1.572997694930     0.873238875829     1.007825032070
           H         -1.165116218672     1.575234540090    -0.868944824657     1.007825032070

  Nuclear repulsion =  190.420317117956643

  ==> Basis Set <==

  Basis Set: 6-31G*
    Number of shells: 46
    Number of basis function: 91
    Number of Cartesian functions: 91
    Spherical Harmonics?: false
    Max angular momentum: 2

  ==> DFJKGrad: Density-Fitted SCF Gradients <==

    Gradient:                    1
    J tasked:                  Yes
    K tasked:                  Yes
    wK tasked:                  No
    OpenMP threads:              1
    Integrals threads:           1
    Memory (MB):              1430
    Schwarz Cutoff:          0E+00
    Fitting Condition:       1E-12

   => Auxiliary Basis Set <=

  Basis Set: 
    Number of shells: 192
    Number of basis function: 605
    Number of Cartesian functions: 605
    Spherical Harmonics?: false
    Max angular momentum: 3


  -Total Gradient:
     Atom            X                  Y                   Z
    ------   -----------------  -----------------  -----------------
       1        0.000004972028     0.000004482733    -0.000019640772
       2        0.000005514493     0.000006961171    -0.000021867711
       3       -0.000003891954    -0.000007580732     0.000000718677
       4       -0.000014504936    -0.000006717447     0.000029570257
       5       -0.000002218309     0.000002161104    -0.000034849908
       6       -0.000006972780    -0.000008161018     0.000007994250
       7        0.000008126787     0.000000798948     0.000024652963
       8       -0.000004144291    -0.000000726918     0.000024750507
       9       -0.000003934105     0.000016189606     0.000033824250
      10        0.000003321954     0.000001422785     0.000008365270
      11        0.000013442006     0.000005763504    -0.000010302685
      12       -0.000000108192    -0.000006376987    -0.000038166673
      13        0.000000397300    -0.000008216747    -0.000005048425


*** tstop() called on cx1-3-15-2.cx1.hpc.ic.ac.uk at Tue Jul  5 16:33:41 2016
Module time:
	user time   =       6.27 seconds =       0.10 minutes
	system time =       0.03 seconds =       0.00 minutes
	total time  =          6 seconds =       0.10 minutes
Total time:
	user time   =      28.84 seconds =       0.48 minutes
	system time =       0.15 seconds =       0.00 minutes
	total time  =         32 seconds =       0.53 minutes
CURRENT ENERGY: -230.9709340325

			-----------------------------------------
			 OPTKING 2.0: for geometry optimizations 
			  - R.A. King,  Bethel University        
			-----------------------------------------

	Previous internal coordinate definitions found.
	---Fragment 1 Geometry and Gradient---
	 H           3.3259834592       -1.2844482220       -1.6512861207
	 C           2.2162046122       -0.7954932256        0.0015182018
	 H           3.3207759866       -1.2816195693        1.6586533238
	 O          -0.0002284743       -2.2507887540       -0.0007586726
	 C           1.4559398152        2.0110349737       -0.0019873605
	 C          -2.2163347992       -0.7950780786       -0.0006715985
	 H           2.1978975925        2.9715973765       -1.6506545992
	 H           2.2022389929        2.9769249397        1.6417104946
	 C          -1.4555549616        2.0113049367        0.0018730639
	 H          -3.3227799579       -1.2811433753       -1.6565166082
	 H          -3.3244463493       -1.2836091870        1.6533001632
	 H          -2.1973253769        2.9725348511        1.6501823239
	 H          -2.2017505663        2.9767618758       -1.6420677432
	             0.0000049720        0.0000044827       -0.0000196408
	             0.0000055145        0.0000069612       -0.0000218677
	            -0.0000038920       -0.0000075807        0.0000007187
	            -0.0000145049       -0.0000067174        0.0000295703
	            -0.0000022183        0.0000021611       -0.0000348499
	            -0.0000069728       -0.0000081610        0.0000079942
	             0.0000081268        0.0000007989        0.0000246530
	            -0.0000041443       -0.0000007269        0.0000247505
	            -0.0000039341        0.0000161896        0.0000338242
	             0.0000033220        0.0000014228        0.0000083653
	             0.0000134420        0.0000057635       -0.0000103027
	            -0.0000001082       -0.0000063770       -0.0000381667
	             0.0000003973       -0.0000082167       -0.0000050484

	---Fragment 1 Intrafragment Coordinates---
	 - Coordinate -           - BOHR/RAD -       - ANG/DEG -
	 R(1,2)           =         2.049987	       1.084807
	 R(2,3)           =         2.049998	       1.084813
	 R(2,4)           =         2.651503	       1.403115
	 R(2,5)           =         2.907682	       1.538679
	 R(4,6)           =         2.651456	       1.403090
	 R(5,7)           =         2.047263	       1.083365
	 R(5,8)           =         2.047352	       1.083412
	 R(5,9)           =         2.911497	       1.540698
	 R(6,9)           =         2.907676	       1.538676
	 R(6,10)          =         2.049952	       1.084788
	 R(6,11)          =         2.049926	       1.084774
	 R(9,12)          =         2.047220	       1.083342
	 R(9,13)          =         2.047305	       1.083387
	 B(1,2,3)         =         1.879147	     107.667175
	 B(1,2,4)         =         1.897504	     108.718991
	 B(1,2,5)         =         1.950660	     111.764611
	 B(2,4,6)         =         1.979401	     113.411331
	 B(2,5,7)         =         1.938081	     111.043840
	 B(2,5,8)         =         1.938084	     111.044016
	 B(2,5,9)         =         1.835430	     105.162369
	 B(3,2,4)         =         1.897524	     108.720119
	 B(3,2,5)         =         1.950605	     111.761439
	 B(4,2,5)         =         1.887249	     108.131383
	 B(4,6,9)         =         1.887265	     108.132291
	 B(4,6,10)        =         1.897491	     108.718242
	 B(4,6,11)        =         1.897572	     108.722846
	 B(5,9,6)         =         1.835429	     105.162319
	 B(5,9,12)        =         1.942756	     111.311693
	 B(5,9,13)        =         1.942771	     111.312580
	 B(6,9,12)        =         1.938073	     111.043412
	 B(6,9,13)        =         1.938079	     111.043722
	 B(7,5,8)         =         1.868232	     107.041807
	 B(7,5,9)         =         1.942752	     111.311515
	 B(8,5,9)         =         1.942723	     111.309809
	 B(9,6,10)        =         1.950643	     111.763632
	 B(9,6,11)        =         1.950606	     111.761494
	 B(10,6,11)       =         1.879114	     107.665302
	 B(12,9,13)       =         1.868196	     107.039721
	 D(1,2,4,6)       =        -2.123024	    -121.640331
	 D(1,2,5,7)       =        -0.012441	      -0.712789
	 D(1,2,5,8)       =        -2.089005	    -119.691183
	 D(1,2,5,9)       =         2.090887	     119.798990
	 D(2,4,6,9)       =         0.000040	       0.002282
	 D(2,4,6,10)      =         2.121088	     121.529378
	 D(2,4,6,11)      =        -2.121011	    -121.524952
	 D(2,5,9,6)       =        -0.002874	      -0.164694
	 D(2,5,9,12)      =         2.097363	     120.170043
	 D(2,5,9,13)      =        -2.103127	    -120.500284
	 D(3,2,4,6)       =         2.119054	     121.412859
	 D(3,2,5,7)       =         2.094978	     120.033393
	 D(3,2,5,8)       =         0.018413	       1.054998
	 D(3,2,5,9)       =        -2.084880	    -119.454828
	 D(4,2,5,7)       =        -2.100329	    -120.339959
	 D(4,2,5,8)       =         2.106292	     120.681647
	 D(4,2,5,9)       =         0.002999	       0.171820
	 D(4,6,9,5)       =         0.001863	       0.106738
	 D(4,6,9,12)      =        -2.101464	    -120.404993
	 D(4,6,9,13)      =         2.105211	     120.619702
	 D(5,2,4,6)       =        -0.001957	      -0.112150
	 D(5,9,6,10)      =        -2.086009	    -119.519502
	 D(5,9,6,11)      =         2.089811	     119.737373
	 D(6,9,5,7)       =         2.097371	     120.170491
	 D(6,9,5,8)       =        -2.103107	    -120.499165
	 D(7,5,9,12)      =        -2.085577	    -119.494772
	 D(7,5,9,13)      =        -0.002882	      -0.165099
	 D(8,5,9,12)      =        -0.002870	      -0.164428
	 D(8,5,9,13)      =         2.079826	     119.165245
	 D(10,6,9,12)     =         2.093850	     119.968767
	 D(10,6,9,13)     =         0.017339	       0.993461
	 D(11,6,9,12)     =        -0.013515	      -0.774358
	 D(11,6,9,13)     =        -2.090026	    -119.749664

	Current energy   :      -230.9709340325

	Energy change for the previous step:
		Projected    :         0.0000012566
		Actual       :        -0.0000002246

	Performing BFGS update.
	Previous computed or guess Hessian on step 1.
	Denominators (dg)(dq) or (dq)(dq) are very small.
	 Skipping Hessian update for step 2.
	Steps to be used in Hessian update: 1
	Taking RFO optimization step.
	Going to follow RFO solution 1.
	Using RFO vector 1.
	Norm of target step-size    0.01471
	Projected energy change by RFO approximation:        -0.0000098173

	Back-transformation to cartesian coordinates...
	Successfully converged to displaced geometry.

	--- Internal Coordinate Step in ANG or DEG, aJ/ANG or AJ/DEG ---
	 ---------------------------------------------------------------------------
	   Coordinate                Previous        Force       Change         New 
	   ----------                --------       ------       ------       ------
	    1 R(1,2)          =      1.084807    -0.000144     0.000021     1.084828
	    2 R(2,3)          =      1.084813    -0.000002     0.000047     1.084859
	    3 R(2,4)          =      1.403115    -0.000069    -0.000012     1.403102
	    4 R(2,5)          =      1.538679    -0.000024    -0.000010     1.538669
	    5 R(4,6)          =      1.403090     0.000060     0.000001     1.403092
	    6 R(5,7)          =      1.083365     0.000136    -0.000043     1.083322
	    7 R(5,8)          =      1.083412    -0.000148     0.000024     1.083436
	    8 R(5,9)          =      1.540698    -0.000022     0.000093     1.540791
	    9 R(6,9)          =      1.538676    -0.000006    -0.000005     1.538671
	   10 R(6,10)         =      1.084788     0.000073    -0.000026     1.084762
	   11 R(6,11)         =      1.084774     0.000140    -0.000053     1.084722
	   12 R(9,12)         =      1.083342     0.000278    -0.000093     1.083249
	   13 R(9,13)         =      1.083387    -0.000000    -0.000019     1.083368
	   14 B(1,2,3)        =    107.667175    -0.000000    -0.002491   107.664684
	   15 B(1,2,4)        =    108.718991    -0.000001    -0.006616   108.712375
	   16 B(1,2,5)        =    111.764611     0.000000    -0.012951   111.751660
	   17 B(2,4,6)        =    113.411331     0.000000    -0.003453   113.407877
	   18 B(2,5,7)        =    111.043840     0.000000     0.011580   111.055419
	   19 B(2,5,8)        =    111.044016    -0.000000     0.000915   111.044931
	   20 B(2,5,9)        =    105.162369     0.000000    -0.003103   105.159266
	   21 B(3,2,4)        =    108.720119     0.000001     0.017639   108.737758
	   22 B(3,2,5)        =    111.761439    -0.000000     0.000535   111.761974
	   23 B(4,2,5)        =    108.131383    -0.000000     0.004492   108.135875
	   24 B(4,6,9)        =    108.132291    -0.000000     0.003998   108.136289
	   25 B(4,6,10)       =    108.718242     0.000000     0.002739   108.720980
	   26 B(4,6,11)       =    108.722846    -0.000000     0.003504   108.726351
	   27 B(5,9,6)        =    105.162319     0.000000    -0.002990   105.159329
	   28 B(5,9,12)       =    111.311693    -0.000000    -0.002166   111.309527
	   29 B(5,9,13)       =    111.312580    -0.000000    -0.003598   111.308982
	   30 B(6,9,12)       =    111.043412     0.000000     0.004847   111.048259
	   31 B(6,9,13)       =    111.043722    -0.000000     0.000765   111.044487
	   32 B(7,5,8)        =    107.041807     0.000000     0.004722   107.046529
	   33 B(7,5,9)        =    111.311515    -0.000001    -0.004731   111.306783
	   34 B(8,5,9)        =    111.309809     0.000000    -0.009502   111.300307
	   35 B(9,6,10)       =    111.763632    -0.000000    -0.001356   111.762276
	   36 B(9,6,11)       =    111.761494     0.000000    -0.008652   111.752841
	   37 B(10,6,11)      =    107.665302    -0.000000     0.000154   107.665456
	   38 B(12,9,13)      =    107.039721     0.000000     0.003063   107.042784
	   39 D(1,2,4,6)      =   -121.640331    -0.000000    -0.105444  -121.745775
	   40 D(1,2,5,7)      =     -0.712789     0.000000     0.177563    -0.535225
	   41 D(1,2,5,8)      =   -119.691183     0.000000     0.163478  -119.527705
	   42 D(1,2,5,9)      =    119.798990     0.000000     0.176270   119.975260
	   43 D(2,4,6,9)      =      0.002282     0.000000     0.000528     0.002811
	   44 D(2,4,6,10)     =    121.529378     0.000000     0.002902   121.532280
	   45 D(2,4,6,11)     =   -121.524952     0.000000     0.006535  -121.518417
	   46 D(2,5,9,6)      =     -0.164694    -0.000000    -0.182568    -0.347261
	   47 D(2,5,9,12)     =    120.170043    -0.000000    -0.179739   119.990304
	   48 D(2,5,9,13)     =   -120.500284    -0.000000    -0.179712  -120.679995
	   49 D(3,2,4,6)      =    121.412859    -0.000000    -0.108564   121.304295
	   50 D(3,2,5,7)      =    120.033393     0.000000     0.165648   120.199041
	   51 D(3,2,5,8)      =      1.054998     0.000000     0.151563     1.206561
	   52 D(3,2,5,9)      =   -119.454828    -0.000000     0.164355  -119.290473
	   53 D(4,2,5,7)      =   -120.339959     0.000000     0.190648  -120.149311
	   54 D(4,2,5,8)      =    120.681647     0.000000     0.176563   120.858210
	   55 D(4,2,5,9)      =      0.171820     0.000000     0.189355     0.361175
	   56 D(4,6,9,5)      =      0.106738     0.000000     0.119465     0.226204
	   57 D(4,6,9,12)     =   -120.404993     0.000000     0.121255  -120.283737
	   58 D(4,6,9,13)     =    120.619702     0.000000     0.113747   120.733449
	   59 D(5,2,4,6)      =     -0.112150    -0.000000    -0.122349    -0.234499
	   60 D(5,9,6,10)     =   -119.519502     0.000000     0.114322  -119.405181
	   61 D(5,9,6,11)     =    119.737373     0.000000     0.121147   119.858520
	   62 D(6,9,5,7)      =    120.170491    -0.000000    -0.173103   119.997389
	   63 D(6,9,5,8)      =   -120.499165    -0.000000    -0.176623  -120.675788
	   64 D(7,5,9,12)     =   -119.494772    -0.000000    -0.170274  -119.665046
	   65 D(7,5,9,13)     =     -0.165099    -0.000000    -0.170246    -0.335345
	   66 D(8,5,9,12)     =     -0.164428    -0.000000    -0.173795    -0.338223
	   67 D(8,5,9,13)     =    119.165245    -0.000000    -0.173767   118.991478
	   68 D(10,6,9,12)    =    119.968767     0.000000     0.116112   120.084878
	   69 D(10,6,9,13)    =      0.993461     0.000000     0.108604     1.102065
	   70 D(11,6,9,12)    =     -0.774358     0.000000     0.122937    -0.651421
	   71 D(11,6,9,13)    =   -119.749664     0.000000     0.115429  -119.634234
	 ---------------------------------------------------------------------------

  ==> Convergence Check <==

  Measures of convergence in internal coordinates in au.
  Criteria marked as inactive (o), active & met (*), and active & unmet ( ).
  ---------------------------------------------------------------------------------------------
   Step     Total Energy     Delta E     MAX Force     RMS Force      MAX Disp      RMS Disp   
  ---------------------------------------------------------------------------------------------
    Convergence Criteria    1.00e-06 *    3.00e-04 *             o    1.20e-03 *             o
  ---------------------------------------------------------------------------------------------
      3    -230.97093403   -2.25e-07 *    3.37e-05 *    8.01e-06 o    3.33e-03      1.75e-03 o  ~
  ---------------------------------------------------------------------------------------------


  **** Optimization is complete! (in 3 steps) ****

  ==> Optimization Summary <==

  Measures of convergence in internal coordinates in au.
  --------------------------------------------------------------------------------------------------------------- ~
   Step         Total Energy             Delta E       MAX Force       RMS Force        MAX Disp        RMS Disp  ~
  --------------------------------------------------------------------------------------------------------------- ~
      1    -230.970931771678   -230.970931771678      0.00063052      0.00012093      0.00177713      0.00081360  ~
      2    -230.970933807899     -0.000002036221      0.00007995      0.00001947      0.00175639      0.00081274  ~
      3    -230.970934032476     -0.000000224577      0.00003368      0.00000801      0.00332744      0.00174560  ~
  --------------------------------------------------------------------------------------------------------------- ~

	Writing optimization data to binary file.
	Final energy is   -230.9709340324760
	Final (previous) structure:
	Cartesian Geometry (in Angstrom)
	    H     1.7600347772  -0.6797007766  -0.8738230466
	    C     1.1727650599  -0.4209569167   0.0008033979
	    H     1.7572791011  -0.6782039180   0.8777216029
	    O    -0.0001209034  -1.1910662009  -0.0004014723
	    C     0.7704502261   1.0641939550  -0.0010516660
	    C    -1.1728339519  -0.4207372304  -0.0003553947
	    H     1.1630774016   1.5725017248  -0.8734888598
	    H     1.1653747719   1.5753209501   0.8687558432
	    C    -0.7702465703   1.0643368133   0.0009911828
	    H    -1.7583395571  -0.6779519269  -0.8765909017
	    H    -1.7592213736  -0.6792567784   0.8748888321
	    H    -1.1627745981   1.5729978150   0.8732389425
	    H    -1.1651163076   1.5752346604  -0.8689448910
	Saving final (previous) structure.
			--------------------------
			 OPTKING Finished Execution 
			--------------------------

    Final optimized geometry and variables:
    Molecular point group: c1
    Full point group: C1

    Geometry (in Angstrom), charge = 0, multiplicity = 1:

    H            1.760034642748    -0.679700724686    -0.873822979921
    C            1.172764970329    -0.420956884562     0.000803397796
    H            1.757278966924    -0.678203866165     0.877721535915
    O           -0.000120903387    -1.191066109951    -0.000401472234
    C            0.770450167307     1.064193873768    -0.001051665892
    C           -1.172833862338    -0.420737198256    -0.000355394630
    H            1.163077312767     1.572501604744    -0.873488793144
    H            1.165374682929     1.575320829770     0.868755776832
    C           -0.770246511525     1.064336732052     0.000991182725
    H           -1.758339422861    -0.677951875170    -0.876590834730
    H           -1.759221239220    -0.679256726516     0.874888765329
    H           -1.162774509287     1.572997694930     0.873238875829
    H           -1.165116218672     1.575234540090    -0.868944824657

	Cleaning optimization helper files.


Properties will be evaluated at   0.000000,   0.000000,   0.000000 Bohr

Properties computed using the  density matrix

  Nuclear Dipole Moment: (a.u.)
     X:     0.0003      Y:     3.3513      Z:     0.0016

  Electronic Dipole Moment: (a.u.)
     X:    -0.0002      Y:    -2.5822      Z:    -0.0013

  Dipole Moment: (a.u.)
     X:     0.0001      Y:     0.7691      Z:     0.0004     Total:     0.7691

  Dipole Moment: (Debye)
     X:     0.0002      Y:     1.9548      Z:     0.0010     Total:     1.9548

  Quadrupole Moment: (Debye Ang)
    XX:   -29.0210     YY:   -35.0741     ZZ:   -30.7681
    XY:    -0.0007     XZ:     0.0004     YZ:    -0.0013

  Traceless Quadrupole Moment: (Debye Ang)
    XX:     2.6001     YY:    -3.4530     ZZ:     0.8529
    XY:    -0.0007     XZ:     0.0004     YZ:    -0.0013

  Mulliken Charges: (a.u.)
   Center  Symbol    Alpha    Beta     Spin     Total
       1     H     0.42233  0.42233  0.00000  0.15534
       2     C     2.98159  2.98159  0.00000  0.03682
       3     H     0.42239  0.42239  0.00000  0.15523
       4     O     4.32085  4.32085  0.00000 -0.64171
       5     C     3.19046  3.19046  0.00000 -0.38092
       6     C     2.98159  2.98159  0.00000  0.03682
       7     H     0.41140  0.41140  0.00000  0.17720
       8     H     0.41141  0.41141  0.00000  0.17719
       9     C     3.19046  3.19046  0.00000 -0.38092
      10     H     0.42236  0.42236  0.00000  0.15527
      11     H     0.42236  0.42236  0.00000  0.15529
      12     H     0.41140  0.41140  0.00000  0.17719
      13     H     0.41140  0.41140  0.00000  0.17720

   Total alpha = 20.00000, Total beta = 20.00000, Total charge = -0.00000


*** PSI4 exiting successfully. Buy a developer a beer!
