    -----------------------------------------------------------------------
          Psi4: An Open-Source Ab Initio Electronic Structure Package
                              Psi4 (no tag) Driver

                          Git: Rev {detached?}  

    J. M. Turney, A. C. Simmonett, R. M. Parrish, E. G. Hohenstein,
    F. A. Evangelista, J. T. Fermann, B. J. Mintz, L. A. Burns, J. J. Wilke,
    M. L. Abrams, N. J. Russ, M. L. Leininger, C. L. Janssen, E. T. Seidl,
    W. D. Allen, H. F. Schaefer, R. A. King, E. F. Valeev, C. D. Sherrill,
    and T. D. Crawford, WIREs Comput. Mol. Sci. 2, 556-565 (2012)
    (doi: 10.1002/wcms.93)

                         Additional Contributions by
    A. E. DePrince, M. Saitow, U. Bozkaya, A. Yu. Sokolov
    -----------------------------------------------------------------------


    Psi4 started on: Tue Jul  5 16:25:06 2016

    Process ID:  19841
    PSI4DATADIR: /export131/home/mjharvey/miniconda3/share
    Memory level set to 256.000 MB

  ==> Input File <==

--------------------------------------------------------------------------
set {
	reference rhf
	basis 6-31G*
}


set_num_threads( 1 )
memory 2 gb

molecule MOL {
0 1

H	 2.157560	 -2.478345	 0.987264
C	 1.714956	 -1.783068	 0.279501
C	 0.653762	 -0.929243	 0.966502
H	 1.269680	 -2.351028	 -0.529767
H	 2.518234	 -1.184537	 -0.136479
N	 -0.000257	 -0.000071	 0.054619
H	 -0.097915	 -1.592941	 1.374992
H	 1.090142	 -0.402793	 1.820381
C	 -1.363055	 0.315058	 0.462241
C	 0.798034	 1.193349	 -0.192638
C	 -2.412078	 -0.285320	 -0.468531
H	 -1.482241	 1.391144	 0.451970
H	 -1.549931	 -0.001174	 1.492681
C	 0.533673	 1.807745	 -1.563722
H	 1.844508	 0.920077	 -0.143972
H	 0.642900	 1.941286	 0.590505
H	 -2.262839	 0.075384	 -1.480151
H	 -2.369300	 -1.368867	 -0.491760
H	 -3.410332	 -0.003975	 -0.144961
H	 0.744795	 1.084284	 -2.343252
H	 -0.495718	 2.129827	 -1.678477
H	 1.167535	 2.676582	 -1.717564

	symmetry c1
}
ee = energy('scf')
oeprop('DIPOLE', 'QUADRUPOLE', 'MULLIKEN_CHARGES')
f=open( 'psi4out.xyz', 'w' )
f.write( "22  " )
f.write( str(ee) + "\n" )
f.write( MOL.save_string_xyz() )
f.close()
--------------------------------------------------------------------------

  Memory set to   2.000 GiB by Python script.

*** tstart() called on cx1-3-15-2.cx1.hpc.ic.ac.uk
*** at Tue Jul  5 16:25:06 2016


         ---------------------------------------------------------
                                   SCF
            by Justin Turney, Rob Parrish, and Andy Simmonett
                              RHF Reference
                        1 Threads,   2000 MiB Core
         ---------------------------------------------------------

  ==> Geometry <==

    Molecular point group: c1
    Full point group: C1

    Geometry (in Angstrom), charge = 0, multiplicity = 1:

       Center              X                  Y                   Z               Mass       
    ------------   -----------------  -----------------  -----------------  -----------------
           H          2.168782649997    -2.524455505961     1.060431869781     1.007825032070
           C          1.726178649997    -1.829178505961     0.352668869781    12.000000000000
           C          0.664984649997    -0.975353505961     1.039669869781    12.000000000000
           H          1.280902649997    -2.397138505961    -0.456599130219     1.007825032070
           H          2.529456649997    -1.230647505961    -0.063311130219     1.007825032070
           N          0.010965649997    -0.046181505961     0.127786869781    14.003074004780
           H         -0.086692350003    -1.639051505961     1.448159869781     1.007825032070
           H          1.101364649997    -0.448903505961     1.893548869781     1.007825032070
           C         -1.351832350003     0.268947494039     0.535408869781    12.000000000000
           C          0.809256649997     1.147238494039    -0.119470130219    12.000000000000
           C         -2.400855350003    -0.331430505961    -0.395363130219    12.000000000000
           H         -1.471018350003     1.345033494039     0.525137869781     1.007825032070
           H         -1.538708350003    -0.047284505961     1.565848869781     1.007825032070
           C          0.544895649997     1.761634494039    -1.490554130219    12.000000000000
           H          1.855730649997     0.873966494039    -0.070804130219     1.007825032070
           H          0.654122649997     1.895175494039     0.663672869781     1.007825032070
           H         -2.251616350003     0.029273494039    -1.406983130219     1.007825032070
           H         -2.358077350003    -1.414977505961    -0.418592130219     1.007825032070
           H         -3.399109350003    -0.050085505961    -0.071793130219     1.007825032070
           H          0.756017649997     1.038173494039    -2.270084130219     1.007825032070
           H         -0.484495350003     2.083716494039    -1.605309130219     1.007825032070
           H          1.178757649997     2.630471494039    -1.644396130219     1.007825032070

  Running in c1 symmetry.

  Rotational constants: A =      0.08668  B =      0.06894  C =      0.04553 [cm^-1]
  Rotational constants: A =   2598.73134  B =   2066.71258  C =   1364.85809 [MHz]
  Nuclear repulsion =  337.535521818624602

  Charge       = 0
  Multiplicity = 1
  Electrons    = 58
  Nalpha       = 29
  Nbeta        = 29

  ==> Algorithm <==

  SCF Algorithm Type is DF.
  DIIS enabled.
  MOM disabled.
  Fractional occupation disabled.
  Guess Type is CORE.
  Energy threshold   = 1.00e-06
  Density threshold  = 1.00e-06
  Integral threshold = 0.00e+00

  ==> Primary Basis <==

  Basis Set: 6-31G*
    Number of shells: 72
    Number of basis function: 135
    Number of Cartesian functions: 135
    Spherical Harmonics?: false
    Max angular momentum: 2

  ==> Pre-Iterations <==

   -------------------------------------------------------
    Irrep   Nso     Nmo     Nalpha   Nbeta   Ndocc  Nsocc
   -------------------------------------------------------
     A        135     135       0       0       0       0
   -------------------------------------------------------
    Total     135     135      29      29      29       0
   -------------------------------------------------------

 OEINTS: Overlap, kinetic, potential, dipole, and quadrupole integrals
         stored in file 35.

  ==> Integral Setup <==

  ==> DFJK: Density-Fitted J/K Matrices <==

    J tasked:                  Yes
    K tasked:                  Yes
    wK tasked:                  No
    OpenMP threads:              1
    Integrals threads:           1
    Memory (MB):              1430
    Algorithm:                Core
    Integral Cache:           NONE
    Schwarz Cutoff:          1E-12
    Fitting Condition:       1E-12

   => Auxiliary Basis Set <=

  Basis Set: 
    Number of shells: 303
    Number of basis function: 942
    Number of Cartesian functions: 942
    Spherical Harmonics?: false
    Max angular momentum: 3

  Minimum eigenvalue in the overlap matrix is 4.5065416959E-03.
  Using Symmetric Orthogonalization.
  SCF Guess: Core (One-Electron) Hamiltonian.

  ==> Iterations <==

                           Total Energy        Delta E     RMS |[F,P]|

   @DF-RHF iter   1:  -151.45598540350329   -1.51456e+02   8.76939e-02 
   @DF-RHF iter   2:  -203.18557432544071   -5.17296e+01   5.22435e-02 DIIS
   @DF-RHF iter   3:  -243.71032926566534   -4.05248e+01   5.23443e-02 DIIS
   @DF-RHF iter   4:  -285.72933428478711   -4.20190e+01   1.90901e-02 DIIS
   @DF-RHF iter   5:  -289.91924153731725   -4.18991e+00   6.88429e-03 DIIS
   @DF-RHF iter   6:  -290.34298911886219   -4.23748e-01   1.47810e-03 DIIS
   @DF-RHF iter   7:  -290.36771705462399   -2.47279e-02   3.21810e-04 DIIS
   @DF-RHF iter   8:  -290.36906513219810   -1.34808e-03   1.01648e-04 DIIS
   @DF-RHF iter   9:  -290.36921509349816   -1.49961e-04   3.62564e-05 DIIS
   @DF-RHF iter  10:  -290.36923194381529   -1.68503e-05   1.28792e-05 DIIS
   @DF-RHF iter  11:  -290.36923419436209   -2.25055e-06   3.65166e-06 DIIS
   @DF-RHF iter  12:  -290.36923436206882   -1.67707e-07   9.23470e-07 DIIS

  ==> Post-Iterations <==

    Orbital Energies (a.u.)
    -----------------------

    Doubly Occupied:                                                      

       1A    -15.536079     2A    -11.240953     3A    -11.240562  
       4A    -11.239334     5A    -11.205251     6A    -11.204747  
       7A    -11.202089     8A     -1.223708     9A     -1.024837  
      10A     -1.020976    11A     -0.955060    12A     -0.849094  
      13A     -0.839701    14A     -0.776162    15A     -0.653193  
      16A     -0.640526    17A     -0.612429    18A     -0.594202  
      19A     -0.582090    20A     -0.555325    21A     -0.534563  
      22A     -0.521320    23A     -0.516273    24A     -0.498472  
      25A     -0.494848    26A     -0.479220    27A     -0.462831  
      28A     -0.459854    29A     -0.340124  

    Virtual:                                                              

      30A      0.229287    31A      0.253190    32A      0.261594  
      33A      0.276796    34A      0.294449    35A      0.302165  
      36A      0.314059    37A      0.320715    38A      0.324232  
      39A      0.337226    40A      0.342370    41A      0.346396  
      42A      0.354257    43A      0.375460    44A      0.384823  
      45A      0.397572    46A      0.414587    47A      0.425145  
      48A      0.438350    49A      0.476583    50A      0.494706  
      51A      0.715724    52A      0.719547    53A      0.733578  
      54A      0.738687    55A      0.762088    56A      0.770716  
      57A      0.797777    58A      0.808082    59A      0.834685  
      60A      0.890163    61A      0.901311    62A      0.926560  
      63A      0.943227    64A      0.972647    65A      0.988403  
      66A      1.025324    67A      1.044720    68A      1.111563  
      69A      1.129913    70A      1.139365    71A      1.142464  
      72A      1.159928    73A      1.170430    74A      1.180536  
      75A      1.187900    76A      1.193106    77A      1.199349  
      78A      1.208356    79A      1.246058    80A      1.248370  
      81A      1.259255    82A      1.263608    83A      1.284781  
      84A      1.295395    85A      1.313294    86A      1.351147  
      87A      1.359375    88A      1.475938    89A      1.537615  
      90A      1.644892    91A      1.683775    92A      1.710096  
      93A      1.751557    94A      1.839204    95A      1.864493  
      96A      1.908451    97A      2.038533    98A      2.058880  
      99A      2.098540   100A      2.142791   101A      2.204256  
     102A      2.273406   103A      2.276832   104A      2.292690  
     105A      2.305995   106A      2.334761   107A      2.344646  
     108A      2.352680   109A      2.423373   110A      2.428702  
     111A      2.538081   112A      2.556033   113A      2.578408  
     114A      2.656288   115A      2.667068   116A      2.674142  
     117A      2.690696   118A      2.700083   119A      2.723195  
     120A      2.739992   121A      2.792135   122A      2.867965  
     123A      2.900129   124A      3.048154   125A      3.077091  
     126A      3.126386   127A      3.227949   128A      3.244600  
     129A      4.492271   130A      4.620299   131A      4.630955  
     132A      4.711181   133A      4.859809   134A      4.888786  
     135A      4.928942  

    Final Occupation by Irrep:
              A 
    DOCC [    29 ]

  Energy converged.

  @DF-RHF Final Energy:  -290.36923436206882

   => Energetics <=

    Nuclear Repulsion Energy =            337.5355218186246020
    One-Electron Energy =               -1060.8026326446342864
    Two-Electron Energy =                 432.8978764639408610
    DFT Exchange-Correlation Energy =       0.0000000000000000
    Empirical Dispersion Energy =           0.0000000000000000
    PCM Polarization Energy =               0.0000000000000000
    EFP Energy =                            0.0000000000000000
    Total Energy =                       -290.3692343620688234

    Alert: EFP and PCM quantities not currently incorporated into SCF psivars.

Properties will be evaluated at   0.000000,   0.000000,   0.000000 Bohr
  ==> Properties <==


Properties computed using the SCF density matrix

  Nuclear Dipole Moment: (a.u.)
     X:    -0.0606      Y:     0.1344      Z:    -0.7982

  Electronic Dipole Moment: (a.u.)
     X:     0.1045      Y:     0.0029      Z:     1.0921

  Dipole Moment: (a.u.)
     X:     0.0439      Y:     0.1373      Z:     0.2939     Total:     0.3273

  Dipole Moment: (Debye)
     X:     0.1116      Y:     0.3491      Z:     0.7470     Total:     0.8320


  Saving occupied orbitals to File 180.

*** tstop() called on cx1-3-15-2.cx1.hpc.ic.ac.uk at Tue Jul  5 16:25:19 2016
Module time:
	user time   =      12.91 seconds =       0.22 minutes
	system time =       0.07 seconds =       0.00 minutes
	total time  =         13 seconds =       0.22 minutes
Total time:
	user time   =      12.91 seconds =       0.22 minutes
	system time =       0.07 seconds =       0.00 minutes
	total time  =         13 seconds =       0.22 minutes


Properties will be evaluated at   0.000000,   0.000000,   0.000000 Bohr

Properties computed using the  density matrix

  Nuclear Dipole Moment: (a.u.)
     X:    -0.0606      Y:     0.1344      Z:    -0.7982

  Electronic Dipole Moment: (a.u.)
     X:     0.1045      Y:     0.0029      Z:     1.0921

  Dipole Moment: (a.u.)
     X:     0.0439      Y:     0.1373      Z:     0.2939     Total:     0.3273

  Dipole Moment: (Debye)
     X:     0.1116      Y:     0.3491      Z:     0.7470     Total:     0.8320

  Quadrupole Moment: (Debye Ang)
    XX:   -47.1183     YY:   -47.1291     ZZ:   -48.1116
    XY:     0.0900     XZ:    -0.4444     YZ:    -0.8640

  Traceless Quadrupole Moment: (Debye Ang)
    XX:     0.3347     YY:     0.3239     ZZ:    -0.6586
    XY:     0.0900     XZ:    -0.4444     YZ:    -0.8640

  Mulliken Charges: (a.u.)
   Center  Symbol    Alpha    Beta     Spin     Total
       1     H     0.42374  0.42374  0.00000  0.15252
       2     C     3.23561  3.23561  0.00000 -0.47123
       3     C     3.05881  3.05881  0.00000 -0.11761
       4     H     0.41527  0.41527  0.00000  0.16945
       5     H     0.42142  0.42142  0.00000  0.15716
       6     N     3.78279  3.78279  0.00000 -0.56557
       7     H     0.41861  0.41861  0.00000  0.16279
       8     H     0.43282  0.43282  0.00000  0.13437
       9     C     3.06151  3.06151  0.00000 -0.12302
      10     C     3.06061  3.06061  0.00000 -0.12123
      11     C     3.22832  3.22832  0.00000 -0.45663
      12     H     0.42251  0.42251  0.00000  0.15498
      13     H     0.42522  0.42522  0.00000  0.14956
      14     C     3.23553  3.23553  0.00000 -0.47106
      15     H     0.41912  0.41912  0.00000  0.16177
      16     H     0.43166  0.43166  0.00000  0.13668
      17     H     0.41804  0.41804  0.00000  0.16392
      18     H     0.42101  0.42101  0.00000  0.15797
      19     H     0.42739  0.42739  0.00000  0.14523
      20     H     0.41517  0.41517  0.00000  0.16966
      21     H     0.42113  0.42113  0.00000  0.15774
      22     H     0.42372  0.42372  0.00000  0.15255

   Total alpha = 29.00000, Total beta = 29.00000, Total charge = -0.00000


*** PSI4 exiting successfully. Buy a developer a beer!
