    -----------------------------------------------------------------------
          Psi4: An Open-Source Ab Initio Electronic Structure Package
                              Psi4 (no tag) Driver

                          Git: Rev {detached?}  

    J. M. Turney, A. C. Simmonett, R. M. Parrish, E. G. Hohenstein,
    F. A. Evangelista, J. T. Fermann, B. J. Mintz, L. A. Burns, J. J. Wilke,
    M. L. Abrams, N. J. Russ, M. L. Leininger, C. L. Janssen, E. T. Seidl,
    W. D. Allen, H. F. Schaefer, R. A. King, E. F. Valeev, C. D. Sherrill,
    and T. D. Crawford, WIREs Comput. Mol. Sci. 2, 556-565 (2012)
    (doi: 10.1002/wcms.93)

                         Additional Contributions by
    A. E. DePrince, M. Saitow, U. Bozkaya, A. Yu. Sokolov
    -----------------------------------------------------------------------


    Psi4 started on: Tue Jul  5 17:13:41 2016

    Process ID:  19025
    PSI4DATADIR: /export131/home/mjharvey/miniconda3/share
    Memory level set to 256.000 MB

  ==> Input File <==

--------------------------------------------------------------------------
set {
	reference rhf
	basis 6-31G*
}


set_num_threads( 1 )
memory 2 gb

molecule MOL {
0 1

O	 1.618826	 0.322184	 -1.074155
C	 0.548641	 0.820931	 -0.899821
C	 -0.707205	 -0.031041	 -0.842376
C	 0.390985	 2.311234	 -0.696067
C	 -1.047154	 -0.600408	 -2.229242
H	 -1.519164	 0.602551	 -0.502396
H	 -0.587671	 -0.840431	 -0.127794
C	 0.149006	 -1.302371	 -2.876593
H	 -1.878662	 -1.287183	 -2.118253
H	 -1.387375	 0.202389	 -2.881556
C	 0.075323	 -1.399736	 -4.404711
H	 0.247240	 -2.302033	 -2.457363
H	 1.057485	 -0.767858	 -2.606759
C	 -1.053427	 -2.288511	 -4.930067
H	 1.023541	 -1.787350	 -4.768483
H	 -0.024340	 -0.400645	 -4.824201
H	 -0.984148	 -3.291584	 -4.518035
H	 -1.004790	 -2.372263	 -6.011279
H	 -2.032469	 -1.894716	 -4.678683
H	 -0.157528	 2.738134	 -1.531623
H	 1.362567	 2.780365	 -0.627301
H	 -0.183077	 2.517785	 0.202595

	symmetry c1
}
set optking {
	frozen_dihedral = ("
		6 3 2 1,
		6 3 5 8,
		12 8 11 15
	")
}

ee = energy('scf')
oeprop('DIPOLE', 'QUADRUPOLE', 'MULLIKEN_CHARGES')
f=open( 'psi4out.xyz', 'w' )
f.write( "22  " )
f.write( str(ee) + "\n" )
f.write( MOL.save_string_xyz() )
f.close()
--------------------------------------------------------------------------

  Memory set to   2.000 GiB by Python script.

*** tstart() called on cx1-3-4-4.cx1.hpc.ic.ac.uk
*** at Tue Jul  5 17:13:42 2016


         ---------------------------------------------------------
                                   SCF
            by Justin Turney, Rob Parrish, and Andy Simmonett
                              RHF Reference
                        1 Threads,   2000 MiB Core
         ---------------------------------------------------------

  ==> Geometry <==

    Molecular point group: c1
    Full point group: C1

    Geometry (in Angstrom), charge = 0, multiplicity = 1:

       Center              X                  Y                   Z               Mass       
    ------------   -----------------  -----------------  -----------------  -----------------
           O          1.618377855401     0.592779128075     1.182301210190    15.994914619560
           C          0.548192855401     1.091526128075     1.356635210190    12.000000000000
           C         -0.707653144599     0.239554128075     1.414080210190    12.000000000000
           C          0.390536855401     2.581829128075     1.560389210190    12.000000000000
           C         -1.047602144599    -0.329812871925     0.027214210190    12.000000000000
           H         -1.519612144599     0.873146128075     1.754060210190     1.007825032070
           H         -0.588119144599    -0.569835871925     2.128662210190     1.007825032070
           C          0.148557855401    -1.031775871925    -0.620136789810    12.000000000000
           H         -1.879110144599    -1.016587871925     0.138203210190     1.007825032070
           H         -1.387823144599     0.472984128075    -0.625099789810     1.007825032070
           C          0.074874855401    -1.129140871925    -2.148254789810    12.000000000000
           H          0.246791855401    -2.031437871925    -0.200906789810     1.007825032070
           H          1.057036855401    -0.497262871925    -0.350302789810     1.007825032070
           C         -1.053875144599    -2.017915871925    -2.673610789810    12.000000000000
           H          1.023092855401    -1.516754871925    -2.512026789810     1.007825032070
           H         -0.024788144599    -0.130049871925    -2.567744789810     1.007825032070
           H         -0.984596144599    -3.020988871925    -2.261578789810     1.007825032070
           H         -1.005238144599    -2.101667871925    -3.754822789810     1.007825032070
           H         -2.032917144599    -1.624120871925    -2.422226789810     1.007825032070
           H         -0.157976144599     3.008729128075     0.724833210190     1.007825032070
           H          1.362118855401     3.050960128075     1.629155210190     1.007825032070
           H         -0.183525144599     2.788380128075     2.459051210190     1.007825032070

  Running in c1 symmetry.

  Rotational constants: A =      0.14435  B =      0.03050  C =      0.02869 [cm^-1]
  Rotational constants: A =   4327.59091  B =    914.25965  C =    860.19788 [MHz]
  Nuclear repulsion =  384.674539768280169

  Charge       = 0
  Multiplicity = 1
  Electrons    = 64
  Nalpha       = 32
  Nbeta        = 32

  ==> Algorithm <==

  SCF Algorithm Type is DF.
  DIIS enabled.
  MOM disabled.
  Fractional occupation disabled.
  Guess Type is CORE.
  Energy threshold   = 1.00e-06
  Density threshold  = 1.00e-06
  Integral threshold = 0.00e+00

  ==> Primary Basis <==

  Basis Set: 6-31G*
    Number of shells: 76
    Number of basis function: 148
    Number of Cartesian functions: 148
    Spherical Harmonics?: false
    Max angular momentum: 2

  ==> Pre-Iterations <==

   -------------------------------------------------------
    Irrep   Nso     Nmo     Nalpha   Nbeta   Ndocc  Nsocc
   -------------------------------------------------------
     A        148     148       0       0       0       0
   -------------------------------------------------------
    Total     148     148      32      32      32       0
   -------------------------------------------------------

 OEINTS: Overlap, kinetic, potential, dipole, and quadrupole integrals
         stored in file 35.

  ==> Integral Setup <==

  ==> DFJK: Density-Fitted J/K Matrices <==

    J tasked:                  Yes
    K tasked:                  Yes
    wK tasked:                  No
    OpenMP threads:              1
    Integrals threads:           1
    Memory (MB):              1430
    Algorithm:                Core
    Integral Cache:           NONE
    Schwarz Cutoff:          1E-12
    Fitting Condition:       1E-12

   => Auxiliary Basis Set <=

  Basis Set: 
    Number of shells: 318
    Number of basis function: 998
    Number of Cartesian functions: 998
    Spherical Harmonics?: false
    Max angular momentum: 3

  Minimum eigenvalue in the overlap matrix is 3.4232302989E-03.
  Using Symmetric Orthogonalization.
  SCF Guess: Core (One-Electron) Hamiltonian.

  ==> Iterations <==

                           Total Energy        Delta E     RMS |[F,P]|

   @DF-RHF iter   1:  -256.99785823461968   -2.56998e+02   6.89059e-02 
   @DF-RHF iter   2:  -173.78324205273975    8.32146e+01   7.08754e-02 DIIS
   @DF-RHF iter   3:  -298.31785279310418   -1.24535e+02   3.30519e-02 DIIS
   @DF-RHF iter   4:  -170.15237080816212    1.28165e+02   7.66607e-02 DIIS
   @DF-RHF iter   5:  -256.09819638528973   -8.59458e+01   6.16801e-02 DIIS
   @DF-RHF iter   6:  -295.45523405047913   -3.93570e+01   4.43231e-02 DIIS
   @DF-RHF iter   7:  -334.75368587436390   -3.92985e+01   2.49017e-02 DIIS
   @DF-RHF iter   8:  -347.73143547157349   -1.29777e+01   5.33896e-03 DIIS
   @DF-RHF iter   9:  -348.02063322498020   -2.89198e-01   2.68408e-03 DIIS
   @DF-RHF iter  10:  -348.08029047307434   -5.96572e-02   6.60138e-04 DIIS
   @DF-RHF iter  11:  -348.08554213351567   -5.25166e-03   2.17165e-04 DIIS
   @DF-RHF iter  12:  -348.08627107651716   -7.28943e-04   7.96044e-05 DIIS
   @DF-RHF iter  13:  -348.08639105189752   -1.19975e-04   2.93564e-05 DIIS
   @DF-RHF iter  14:  -348.08640620050585   -1.51486e-05   1.26369e-05 DIIS
   @DF-RHF iter  15:  -348.08640911656585   -2.91606e-06   2.77174e-06 DIIS
   @DF-RHF iter  16:  -348.08640935210531   -2.35539e-07   9.31479e-07 DIIS

  ==> Post-Iterations <==

    Orbital Energies (a.u.)
    -----------------------

    Doubly Occupied:                                                      

       1A    -20.550644     2A    -11.327878     3A    -11.230978  
       4A    -11.230918     5A    -11.225786     6A    -11.209585  
       7A    -11.204416     8A    -11.198710     9A     -1.400113  
      10A     -1.089004    11A     -1.040768    12A     -1.000114  
      13A     -0.930109    14A     -0.853591    15A     -0.778742  
      16A     -0.734679    17A     -0.666949    18A     -0.645961  
      19A     -0.622069    20A     -0.609492    21A     -0.589767  
      22A     -0.584663    23A     -0.563162    24A     -0.537505  
      25A     -0.532302    26A     -0.527883    27A     -0.495161  
      28A     -0.485102    29A     -0.457930    30A     -0.454035  
      31A     -0.447360    32A     -0.391815  

    Virtual:                                                              

      33A      0.158403    34A      0.224531    35A      0.243161  
      36A      0.271517    37A      0.280814    38A      0.289751  
      39A      0.301457    40A      0.306479    41A      0.315993  
      42A      0.321796    43A      0.335646    44A      0.343224  
      45A      0.356917    46A      0.360464    47A      0.389331  
      48A      0.391848    49A      0.419432    50A      0.427029  
      51A      0.450150    52A      0.469334    53A      0.495499  
      54A      0.538435    55A      0.707522    56A      0.722149  
      57A      0.737895    58A      0.748076    59A      0.755837  
      60A      0.762485    61A      0.774393    62A      0.826311  
      63A      0.834748    64A      0.862747    65A      0.910808  
      66A      0.930540    67A      0.941768    68A      0.966003  
      69A      0.969491    70A      0.980549    71A      1.001947  
      72A      1.030235    73A      1.101908    74A      1.105206  
      75A      1.118195    76A      1.145776    77A      1.151386  
      78A      1.153581    79A      1.162727    80A      1.172010  
      81A      1.172718    82A      1.198433    83A      1.206006  
      84A      1.209073    85A      1.218724    86A      1.233575  
      87A      1.252794    88A      1.264243    89A      1.284649  
      90A      1.298747    91A      1.337548    92A      1.371517  
      93A      1.438356    94A      1.453315    95A      1.521853  
      96A      1.566131    97A      1.658930    98A      1.717588  
      99A      1.739193   100A      1.782240   101A      1.792476  
     102A      1.857882   103A      1.939861   104A      1.960790  
     105A      1.998284   106A      2.041184   107A      2.100078  
     108A      2.116986   109A      2.142115   110A      2.155076  
     111A      2.167010   112A      2.234550   113A      2.264503  
     114A      2.273246   115A      2.280868   116A      2.322300  
     117A      2.334642   118A      2.342442   119A      2.387283  
     120A      2.474104   121A      2.498535   122A      2.516902  
     123A      2.549202   124A      2.627908   125A      2.665984  
     126A      2.682011   127A      2.686966   128A      2.724688  
     129A      2.740856   130A      2.760032   131A      2.796041  
     132A      2.863597   133A      2.925491   134A      2.987076  
     135A      2.997298   136A      3.077857   137A      3.093209  
     138A      3.155864   139A      3.374912   140A      3.397178  
     141A      4.473425   142A      4.529761   143A      4.591863  
     144A      4.684813   145A      4.787541   146A      4.882036  
     147A      4.936502   148A      5.019429  

    Final Occupation by Irrep:
              A 
    DOCC [    32 ]

  Energy converged.

  @DF-RHF Final Energy:  -348.08640935210531

   => Energetics <=

    Nuclear Repulsion Energy =            384.6745397682801695
    One-Electron Energy =               -1234.2875477751877042
    Two-Electron Energy =                 501.5265986548028536
    DFT Exchange-Correlation Energy =       0.0000000000000000
    Empirical Dispersion Energy =           0.0000000000000000
    PCM Polarization Energy =               0.0000000000000000
    EFP Energy =                            0.0000000000000000
    Total Energy =                       -348.0864093521046811

    Alert: EFP and PCM quantities not currently incorporated into SCF psivars.

Properties will be evaluated at   0.000000,   0.000000,   0.000000 Bohr
  ==> Properties <==


Properties computed using the SCF density matrix

  Nuclear Dipole Moment: (a.u.)
     X:    -5.6870      Y:    -2.1669      Z:    -5.4886

  Electronic Dipole Moment: (a.u.)
     X:     4.7309      Y:     2.6675      Z:     5.6896

  Dipole Moment: (a.u.)
     X:    -0.9561      Y:     0.5005      Z:     0.2010     Total:     1.0978

  Dipole Moment: (Debye)
     X:    -2.4302      Y:     1.2722      Z:     0.5110     Total:     2.7903


  Saving occupied orbitals to File 180.

*** tstop() called on cx1-3-4-4.cx1.hpc.ic.ac.uk at Tue Jul  5 17:14:00 2016
Module time:
	user time   =      17.80 seconds =       0.30 minutes
	system time =       0.19 seconds =       0.00 minutes
	total time  =         18 seconds =       0.30 minutes
Total time:
	user time   =      17.80 seconds =       0.30 minutes
	system time =       0.19 seconds =       0.00 minutes
	total time  =         18 seconds =       0.30 minutes


Properties will be evaluated at   0.000000,   0.000000,   0.000000 Bohr

Properties computed using the  density matrix

  Nuclear Dipole Moment: (a.u.)
     X:    -5.6870      Y:    -2.1669      Z:    -5.4886

  Electronic Dipole Moment: (a.u.)
     X:     4.7309      Y:     2.6675      Z:     5.6896

  Dipole Moment: (a.u.)
     X:    -0.9561      Y:     0.5005      Z:     0.2010     Total:     1.0978

  Dipole Moment: (Debye)
     X:    -2.4302      Y:     1.2722      Z:     0.5110     Total:     2.7903

  Quadrupole Moment: (Debye Ang)
    XX:   -57.1364     YY:   -48.3463     ZZ:   -50.7248
    XY:    -0.9385     XZ:    -3.4217     YZ:     1.3183

  Traceless Quadrupole Moment: (Debye Ang)
    XX:    -5.0673     YY:     3.7229     ZZ:     1.3444
    XY:    -0.9385     XZ:    -3.4217     YZ:     1.3183

  Mulliken Charges: (a.u.)
   Center  Symbol    Alpha    Beta     Spin     Total
       1     O     4.26201  4.26201  0.00000 -0.52402
       2     C     2.74131  2.74131  0.00000  0.51738
       3     C     3.19917  3.19917  0.00000 -0.39834
       4     C     3.28890  3.28890  0.00000 -0.57780
       5     C     3.16558  3.16558  0.00000 -0.33115
       6     H     0.41599  0.41599  0.00000  0.16802
       7     H     0.39940  0.39940  0.00000  0.20121
       8     C     3.16990  3.16990  0.00000 -0.33980
       9     H     0.41261  0.41261  0.00000  0.17477
      10     H     0.42183  0.42183  0.00000  0.15633
      11     C     3.15201  3.15201  0.00000 -0.30402
      12     H     0.42525  0.42525  0.00000  0.14951
      13     H     0.38176  0.38176  0.00000  0.23648
      14     C     3.24049  3.24049  0.00000 -0.48098
      15     H     0.41986  0.41986  0.00000  0.16027
      16     H     0.42683  0.42683  0.00000  0.14635
      17     H     0.42240  0.42240  0.00000  0.15520
      18     H     0.42044  0.42044  0.00000  0.15912
      19     H     0.42316  0.42316  0.00000  0.15368
      20     H     0.40675  0.40675  0.00000  0.18651
      21     H     0.39650  0.39650  0.00000  0.20699
      22     H     0.40785  0.40785  0.00000  0.18431

   Total alpha = 32.00000, Total beta = 32.00000, Total charge = -0.00000


*** PSI4 exiting successfully. Buy a developer a beer!
