    -----------------------------------------------------------------------
          Psi4: An Open-Source Ab Initio Electronic Structure Package
                              Psi4 (no tag) Driver

                          Git: Rev {detached?}  

    J. M. Turney, A. C. Simmonett, R. M. Parrish, E. G. Hohenstein,
    F. A. Evangelista, J. T. Fermann, B. J. Mintz, L. A. Burns, J. J. Wilke,
    M. L. Abrams, N. J. Russ, M. L. Leininger, C. L. Janssen, E. T. Seidl,
    W. D. Allen, H. F. Schaefer, R. A. King, E. F. Valeev, C. D. Sherrill,
    and T. D. Crawford, WIREs Comput. Mol. Sci. 2, 556-565 (2012)
    (doi: 10.1002/wcms.93)

                         Additional Contributions by
    A. E. DePrince, M. Saitow, U. Bozkaya, A. Yu. Sokolov
    -----------------------------------------------------------------------


    Psi4 started on: Tue Jul  5 16:31:56 2016

    Process ID:  28927
    PSI4DATADIR: /export131/home/mjharvey/miniconda3/share
    Memory level set to 256.000 MB

  ==> Input File <==

--------------------------------------------------------------------------
set {
	reference rhf
	basis 6-31G*
}


set_num_threads( 1 )
memory 2 gb

molecule MOL {
0 1

H	 -4.242096	 0.416336	 0.301259
O	 -3.522654	 -0.145860	 0.051771
C	 -2.306886	 0.532354	 0.237577
C	 -1.177863	 -0.397191	 -0.171080
H	 -2.278782	 1.440057	 -0.363750
H	 -2.188157	 0.827560	 1.279257
C	 0.198102	 0.111031	 0.262842
H	 -1.208843	 -0.518759	 -1.250427
H	 -1.368741	 -1.376554	 0.258909
C	 1.331804	 -0.827780	 -0.158768
H	 0.361943	 1.100838	 -0.156218
H	 0.217265	 0.229072	 1.345532
C	 2.723619	 -0.410569	 0.329459
H	 1.342964	 -0.912588	 -1.244120
H	 1.116806	 -1.824343	 0.220779
C	 3.243875	 0.895854	 -0.272975
H	 3.424222	 -1.207124	 0.091250
H	 2.714788	 -0.329854	 1.414619
H	 3.251977	 0.848779	 -1.358681
H	 2.637085	 1.747371	 0.016682
H	 4.259473	 1.094070	 0.055697

	symmetry c1
}
set optking {
	frozen_dihedral = ("
		8 4 7 10,
		4 7 10 14,
		16 13 10 14,
		1 2 3 5
	")
}

ee = energy('scf')
oeprop('DIPOLE', 'QUADRUPOLE', 'MULLIKEN_CHARGES')
f=open( 'psi4out.xyz', 'w' )
f.write( "21  " )
f.write( str(ee) + "\n" )
f.write( MOL.save_string_xyz() )
f.close()
--------------------------------------------------------------------------

  Memory set to   2.000 GiB by Python script.

*** tstart() called on cx1-3-2-3.cx1.hpc.ic.ac.uk
*** at Tue Jul  5 16:31:57 2016


         ---------------------------------------------------------
                                   SCF
            by Justin Turney, Rob Parrish, and Andy Simmonett
                              RHF Reference
                        1 Threads,   2000 MiB Core
         ---------------------------------------------------------

  ==> Geometry <==

    Molecular point group: c1
    Full point group: C1

    Geometry (in Angstrom), charge = 0, multiplicity = 1:

       Center              X                  Y                   Z               Mass       
    ------------   -----------------  -----------------  -----------------  -----------------
           H         -4.241215319047     0.435353375083     0.260435122634     1.007825032070
           O         -3.521773319047    -0.126842624917     0.010947122634    15.994914619560
           C         -2.306005319047     0.551371375083     0.196753122634    12.000000000000
           C         -1.176982319047    -0.378173624917    -0.211903877366    12.000000000000
           H         -2.277901319047     1.459074375083    -0.404573877366     1.007825032070
           H         -2.187276319047     0.846577375083     1.238433122634     1.007825032070
           C          0.198982680953     0.130048375083     0.222018122634    12.000000000000
           H         -1.207962319047    -0.499741624917    -1.291250877366     1.007825032070
           H         -1.367860319047    -1.357536624917     0.218085122634     1.007825032070
           C          1.332684680953    -0.808762624917    -0.199591877366    12.000000000000
           H          0.362823680953     1.119855375083    -0.197041877366     1.007825032070
           H          0.218145680953     0.248089375083     1.304708122634     1.007825032070
           C          2.724499680953    -0.391551624917     0.288635122634    12.000000000000
           H          1.343844680953    -0.893570624917    -1.284943877366     1.007825032070
           H          1.117686680953    -1.805325624917     0.179955122634     1.007825032070
           C          3.244755680953     0.914871375083    -0.313798877366    12.000000000000
           H          3.425102680953    -1.188106624917     0.050426122634     1.007825032070
           H          2.715668680953    -0.310836624917     1.373795122634     1.007825032070
           H          3.252857680953     0.867796375083    -1.399504877366     1.007825032070
           H          2.637965680953     1.766388375083    -0.024141877366     1.007825032070
           H          4.260353680953     1.113087375083     0.014873122634     1.007825032070

  Running in c1 symmetry.

  Rotational constants: A =      0.29287  B =      0.02714  C =      0.02597 [cm^-1]
  Rotational constants: A =   8779.96809  B =    813.50640  C =    778.57792 [MHz]
  Nuclear repulsion =  312.475771522350726

  Charge       = 0
  Multiplicity = 1
  Electrons    = 58
  Nalpha       = 29
  Nbeta        = 29

  ==> Algorithm <==

  SCF Algorithm Type is DF.
  DIIS enabled.
  MOM disabled.
  Fractional occupation disabled.
  Guess Type is CORE.
  Energy threshold   = 1.00e-06
  Density threshold  = 1.00e-06
  Integral threshold = 0.00e+00

  ==> Primary Basis <==

  Basis Set: 6-31G*
    Number of shells: 70
    Number of basis function: 133
    Number of Cartesian functions: 133
    Spherical Harmonics?: false
    Max angular momentum: 2

  ==> Pre-Iterations <==

   -------------------------------------------------------
    Irrep   Nso     Nmo     Nalpha   Nbeta   Ndocc  Nsocc
   -------------------------------------------------------
     A        133     133       0       0       0       0
   -------------------------------------------------------
    Total     133     133      29      29      29       0
   -------------------------------------------------------

 OEINTS: Overlap, kinetic, potential, dipole, and quadrupole integrals
         stored in file 35.

  ==> Integral Setup <==

  ==> DFJK: Density-Fitted J/K Matrices <==

    J tasked:                  Yes
    K tasked:                  Yes
    wK tasked:                  No
    OpenMP threads:              1
    Integrals threads:           1
    Memory (MB):              1430
    Algorithm:                Core
    Integral Cache:           NONE
    Schwarz Cutoff:          1E-12
    Fitting Condition:       1E-12

   => Auxiliary Basis Set <=

  Basis Set: 
    Number of shells: 294
    Number of basis function: 917
    Number of Cartesian functions: 917
    Spherical Harmonics?: false
    Max angular momentum: 3

  Minimum eigenvalue in the overlap matrix is 3.0803158374E-03.
  Using Symmetric Orthogonalization.
  SCF Guess: Core (One-Electron) Hamiltonian.

  ==> Iterations <==

                           Total Energy        Delta E     RMS |[F,P]|

   @DF-RHF iter   1:  -236.44282854929935   -2.36443e+02   6.55799e-02 
   @DF-RHF iter   2:   -91.06169244233121    1.45381e+02   7.69414e-02 DIIS
   @DF-RHF iter   3:  -240.28318152897731   -1.49221e+02   4.75036e-02 DIIS
   @DF-RHF iter   4:  -203.96918629444014    3.63140e+01   6.74365e-02 DIIS
   @DF-RHF iter   5:  -309.77349931495763   -1.05804e+02   6.37106e-03 DIIS
   @DF-RHF iter   6:  -310.16216971956641   -3.88670e-01   2.29420e-03 DIIS
   @DF-RHF iter   7:  -310.20605513912113   -4.38854e-02   6.64193e-04 DIIS
   @DF-RHF iter   8:  -310.21154886181336   -5.49372e-03   1.95323e-04 DIIS
   @DF-RHF iter   9:  -310.21215409974735   -6.05238e-04   6.88836e-05 DIIS
   @DF-RHF iter  10:  -310.21221751844411   -6.34187e-05   2.58097e-05 DIIS
   @DF-RHF iter  11:  -310.21222795004877   -1.04316e-05   8.15314e-06 DIIS
   @DF-RHF iter  12:  -310.21222882301839   -8.72970e-07   2.26490e-06 DIIS
   @DF-RHF iter  13:  -310.21222889827828   -7.52599e-08   5.04838e-07 DIIS

  ==> Post-Iterations <==

    Orbital Energies (a.u.)
    -----------------------

    Doubly Occupied:                                                      

       1A    -20.551831     2A    -11.266920     3A    -11.215605  
       4A    -11.215087     5A    -11.213465     6A    -11.210459  
       7A    -11.208209     8A     -1.358666     9A     -1.086170  
      10A     -1.033154    11A     -0.954387    12A     -0.875630  
      13A     -0.807168    14A     -0.779024    15A     -0.693309  
      16A     -0.659900    17A     -0.623738    18A     -0.605970  
      19A     -0.585562    20A     -0.570699    21A     -0.535959  
      22A     -0.520104    23A     -0.510733    24A     -0.486053  
      25A     -0.480297    26A     -0.460676    27A     -0.455714  
      28A     -0.443657    29A     -0.432987  

    Virtual:                                                              

      30A      0.228025    31A      0.229482    32A      0.257834  
      33A      0.267569    34A      0.272880    35A      0.307786  
      36A      0.309106    37A      0.314435    38A      0.331748  
      39A      0.338951    40A      0.353309    41A      0.354990  
      42A      0.361087    43A      0.379579    44A      0.387103  
      45A      0.400195    46A      0.431372    47A      0.452718  
      48A      0.488659    49A      0.497897    50A      0.701896  
      51A      0.720873    52A      0.730581    53A      0.744110  
      54A      0.767041    55A      0.782513    56A      0.789974  
      57A      0.853416    58A      0.886385    59A      0.904293  
      60A      0.941306    61A      0.953254    62A      0.975597  
      63A      0.998930    64A      1.041585    65A      1.068196  
      66A      1.103588    67A      1.118300    68A      1.124630  
      69A      1.148204    70A      1.163197    71A      1.166829  
      72A      1.179866    73A      1.198098    74A      1.199327  
      75A      1.203949    76A      1.215660    77A      1.223790  
      78A      1.251786    79A      1.257151    80A      1.264739  
      81A      1.288051    82A      1.290895    83A      1.297515  
      84A      1.424389    85A      1.469338    86A      1.516174  
      87A      1.609168    88A      1.669756    89A      1.709020  
      90A      1.724656    91A      1.796590    92A      1.842666  
      93A      1.885465    94A      1.914317    95A      1.945706  
      96A      2.035596    97A      2.060740    98A      2.137731  
      99A      2.165691   100A      2.189446   101A      2.244236  
     102A      2.257559   103A      2.281973   104A      2.290371  
     105A      2.314292   106A      2.341298   107A      2.366562  
     108A      2.431761   109A      2.465457   110A      2.485222  
     111A      2.566464   112A      2.614355   113A      2.677340  
     114A      2.677911   115A      2.694686   116A      2.757159  
     117A      2.771023   118A      2.794396   119A      2.831240  
     120A      2.873703   121A      2.957121   122A      2.965496  
     123A      2.991877   124A      3.085265   125A      3.199481  
     126A      3.263760   127A      4.206265   128A      4.558042  
     129A      4.640911   130A      4.738207   131A      4.826437  
     132A      4.896245   133A      5.001334  

    Final Occupation by Irrep:
              A 
    DOCC [    29 ]

  Energy converged.

  @DF-RHF Final Energy:  -310.21222889827828

   => Energetics <=

    Nuclear Repulsion Energy =            312.4757715223507262
    One-Electron Energy =               -1039.6938051432330212
    Two-Electron Energy =                 417.0058047226033864
    DFT Exchange-Correlation Energy =       0.0000000000000000
    Empirical Dispersion Energy =           0.0000000000000000
    PCM Polarization Energy =               0.0000000000000000
    EFP Energy =                            0.0000000000000000
    Total Energy =                       -310.2122288982789655

    Alert: EFP and PCM quantities not currently incorporated into SCF psivars.

Properties will be evaluated at   0.000000,   0.000000,   0.000000 Bohr
  ==> Properties <==


Properties computed using the SCF density matrix

  Nuclear Dipole Moment: (a.u.)
     X:     7.5318      Y:     1.6879      Z:     0.0369

  Electronic Dipole Moment: (a.u.)
     X:    -7.4525      Y:    -1.0991      Z:     0.1964

  Dipole Moment: (a.u.)
     X:     0.0793      Y:     0.5888      Z:     0.2332     Total:     0.6382

  Dipole Moment: (Debye)
     X:     0.2015      Y:     1.4965      Z:     0.5928     Total:     1.6222


  Saving occupied orbitals to File 180.

*** tstop() called on cx1-3-2-3.cx1.hpc.ic.ac.uk at Tue Jul  5 16:32:08 2016
Module time:
	user time   =      11.49 seconds =       0.19 minutes
	system time =       0.06 seconds =       0.00 minutes
	total time  =         11 seconds =       0.18 minutes
Total time:
	user time   =      11.49 seconds =       0.19 minutes
	system time =       0.06 seconds =       0.00 minutes
	total time  =         11 seconds =       0.18 minutes


Properties will be evaluated at   0.000000,   0.000000,   0.000000 Bohr

Properties computed using the  density matrix

  Nuclear Dipole Moment: (a.u.)
     X:     7.5318      Y:     1.6879      Z:     0.0369

  Electronic Dipole Moment: (a.u.)
     X:    -7.4525      Y:    -1.0991      Z:     0.1964

  Dipole Moment: (a.u.)
     X:     0.0793      Y:     0.5888      Z:     0.2332     Total:     0.6382

  Dipole Moment: (Debye)
     X:     0.2015      Y:     1.4965      Z:     0.5928     Total:     1.6222

  Quadrupole Moment: (Debye Ang)
    XX:   -45.6516     YY:   -46.7210     ZZ:   -46.5879
    XY:    -6.5615     XZ:    -2.4660     YZ:     0.1898

  Traceless Quadrupole Moment: (Debye Ang)
    XX:     0.6686     YY:    -0.4009     ZZ:    -0.2677
    XY:    -6.5615     XZ:    -2.4660     YZ:     0.1898

  Mulliken Charges: (a.u.)
   Center  Symbol    Alpha    Beta     Spin     Total
       1     H     0.28128  0.28128  0.00000  0.43743
       2     O     4.37169  4.37169  0.00000 -0.74338
       3     C     2.99006  2.99006  0.00000  0.01987
       4     C     3.15954  3.15954  0.00000 -0.31908
       5     H     0.43238  0.43238  0.00000  0.13525
       6     H     0.43298  0.43298  0.00000  0.13405
       7     C     3.16196  3.16196  0.00000 -0.32392
       8     H     0.41659  0.41659  0.00000  0.16681
       9     H     0.41236  0.41236  0.00000  0.17529
      10     C     3.15189  3.15189  0.00000 -0.30379
      11     H     0.42212  0.42212  0.00000  0.15577
      12     H     0.42340  0.42340  0.00000  0.15321
      13     C     3.15253  3.15253  0.00000 -0.30506
      14     H     0.42327  0.42327  0.00000  0.15347
      15     H     0.42076  0.42076  0.00000  0.15848
      16     C     3.24115  3.24115  0.00000 -0.48230
      17     H     0.42062  0.42062  0.00000  0.15875
      18     H     0.42346  0.42346  0.00000  0.15307
      19     H     0.42208  0.42208  0.00000  0.15585
      20     H     0.42066  0.42066  0.00000  0.15868
      21     H     0.41923  0.41923  0.00000  0.16154

   Total alpha = 29.00000, Total beta = 29.00000, Total charge =  0.00000


*** PSI4 exiting successfully. Buy a developer a beer!
