    -----------------------------------------------------------------------
          Psi4: An Open-Source Ab Initio Electronic Structure Package
                              Psi4 (no tag) Driver

                          Git: Rev {detached?}  

    J. M. Turney, A. C. Simmonett, R. M. Parrish, E. G. Hohenstein,
    F. A. Evangelista, J. T. Fermann, B. J. Mintz, L. A. Burns, J. J. Wilke,
    M. L. Abrams, N. J. Russ, M. L. Leininger, C. L. Janssen, E. T. Seidl,
    W. D. Allen, H. F. Schaefer, R. A. King, E. F. Valeev, C. D. Sherrill,
    and T. D. Crawford, WIREs Comput. Mol. Sci. 2, 556-565 (2012)
    (doi: 10.1002/wcms.93)

                         Additional Contributions by
    A. E. DePrince, M. Saitow, U. Bozkaya, A. Yu. Sokolov
    -----------------------------------------------------------------------


    Psi4 started on: Tue Jul  5 16:34:39 2016

    Process ID:  22614
    PSI4DATADIR: /export131/home/mjharvey/miniconda3/share
    Memory level set to 256.000 MB

  ==> Input File <==

--------------------------------------------------------------------------
set {
	reference rhf
	basis 6-31G*
}


set_num_threads( 1 )
memory 2 gb

molecule MOL {
0 1

H	 -2.698709	 -0.000305	 0.034435
C	 -1.693833	 0.000034	 0.434417
O	 -0.828952	 -0.000968	 -0.659236
H	 -1.574200	 0.882896	 1.055746
H	 -1.574147	 -0.881698	 1.057355
C	 0.559449	 -0.000018	 -0.420814
C	 0.904475	 0.345093	 1.026519
C	 1.234451	 -1.288368	 -0.887168
H	 0.916590	 0.807648	 -1.048633
H	 0.369307	 1.235391	 1.338790
H	 1.968752	 0.537695	 1.118465
H	 0.658684	 -0.460677	 1.710979
H	 0.927128	 -1.529063	 -1.899134
H	 2.313090	 -1.166163	 -0.878885
H	 0.997073	 -2.131810	 -0.246780

	symmetry c1
}
set optking {
	frozen_dihedral = ("
		6 3 2 1
	")
}

ee = energy('scf')
oeprop('DIPOLE', 'QUADRUPOLE', 'MULLIKEN_CHARGES')
f=open( 'psi4out.xyz', 'w' )
f.write( "15  " )
f.write( str(ee) + "\n" )
f.write( MOL.save_string_xyz() )
f.close()
--------------------------------------------------------------------------

  Memory set to   2.000 GiB by Python script.

*** tstart() called on cx1-3-4-2.cx1.hpc.ic.ac.uk
*** at Tue Jul  5 16:34:39 2016


         ---------------------------------------------------------
                                   SCF
            by Justin Turney, Rob Parrish, and Andy Simmonett
                              RHF Reference
                        1 Threads,   2000 MiB Core
         ---------------------------------------------------------

  ==> Geometry <==

    Molecular point group: c1
    Full point group: C1

    Geometry (in Angstrom), charge = 0, multiplicity = 1:

       Center              X                  Y                   Z               Mass       
    ------------   -----------------  -----------------  -----------------  -----------------
           H         -2.713789778993     0.189532335807     0.121498799320     1.007825032070
           C         -1.708913778993     0.189871335807     0.521480799320    12.000000000000
           O         -0.844032778993     0.188869335807    -0.572172200680    15.994914619560
           H         -1.589280778993     1.072733335807     1.142809799320     1.007825032070
           H         -1.589227778993    -0.691860664193     1.144418799320     1.007825032070
           C          0.544368221007     0.189819335807    -0.333750200680    12.000000000000
           C          0.889394221007     0.534930335807     1.113582799320    12.000000000000
           C          1.219370221007    -1.098530664193    -0.800104200680    12.000000000000
           H          0.901509221007     0.997485335807    -0.961569200680     1.007825032070
           H          0.354226221007     1.425228335807     1.425853799320     1.007825032070
           H          1.953671221007     0.727532335807     1.205528799320     1.007825032070
           H          0.643603221007    -0.270839664193     1.798042799320     1.007825032070
           H          0.912047221007    -1.339225664193    -1.812070200680     1.007825032070
           H          2.298009221007    -0.976325664193    -0.791821200680     1.007825032070
           H          0.981992221007    -1.941972664193    -0.159716200680     1.007825032070

  Running in c1 symmetry.

  Rotational constants: A =      0.24275  B =      0.13469  C =      0.10172 [cm^-1]
  Rotational constants: A =   7277.60809  B =   4037.88150  C =   3049.58718 [MHz]
  Nuclear repulsion =  198.680399934152319

  Charge       = 0
  Multiplicity = 1
  Electrons    = 42
  Nalpha       = 21
  Nbeta        = 21

  ==> Algorithm <==

  SCF Algorithm Type is DF.
  DIIS enabled.
  MOM disabled.
  Fractional occupation disabled.
  Guess Type is CORE.
  Energy threshold   = 1.00e-06
  Density threshold  = 1.00e-06
  Integral threshold = 0.00e+00

  ==> Primary Basis <==

  Basis Set: 6-31G*
    Number of shells: 50
    Number of basis function: 95
    Number of Cartesian functions: 95
    Spherical Harmonics?: false
    Max angular momentum: 2

  ==> Pre-Iterations <==

   -------------------------------------------------------
    Irrep   Nso     Nmo     Nalpha   Nbeta   Ndocc  Nsocc
   -------------------------------------------------------
     A         95      95       0       0       0       0
   -------------------------------------------------------
    Total      95      95      21      21      21       0
   -------------------------------------------------------

 OEINTS: Overlap, kinetic, potential, dipole, and quadrupole integrals
         stored in file 35.

  ==> Integral Setup <==

  ==> DFJK: Density-Fitted J/K Matrices <==

    J tasked:                  Yes
    K tasked:                  Yes
    wK tasked:                  No
    OpenMP threads:              1
    Integrals threads:           1
    Memory (MB):              1430
    Algorithm:                Core
    Integral Cache:           NONE
    Schwarz Cutoff:          1E-12
    Fitting Condition:       1E-12

   => Auxiliary Basis Set <=

  Basis Set: 
    Number of shells: 210
    Number of basis function: 655
    Number of Cartesian functions: 655
    Spherical Harmonics?: false
    Max angular momentum: 3

  Minimum eigenvalue in the overlap matrix is 3.8437648386E-03.
  Using Symmetric Orthogonalization.
  SCF Guess: Core (One-Electron) Hamiltonian.

  ==> Iterations <==

                           Total Energy        Delta E     RMS |[F,P]|

   @DF-RHF iter   1:  -178.97411931283773   -1.78974e+02   7.98481e-02 
   @DF-RHF iter   2:  -172.37835240510691    6.59577e+00   6.28325e-02 DIIS
   @DF-RHF iter   3:  -205.12205432012416   -3.27437e+01   4.88197e-02 DIIS
   @DF-RHF iter   4:  -219.23001436472271   -1.41080e+01   4.44387e-02 DIIS
   @DF-RHF iter   5:  -232.02839219694181   -1.27984e+01   4.54267e-03 DIIS
   @DF-RHF iter   6:  -232.11335016511327   -8.49580e-02   1.83673e-03 DIIS
   @DF-RHF iter   7:  -232.12839731930393   -1.50472e-02   5.58611e-04 DIIS
   @DF-RHF iter   8:  -232.13004121372711   -1.64389e-03   1.73977e-04 DIIS
   @DF-RHF iter   9:  -232.13021249971825   -1.71286e-04   5.92168e-05 DIIS
   @DF-RHF iter  10:  -232.13023074234275   -1.82426e-05   1.92743e-05 DIIS
   @DF-RHF iter  11:  -232.13023370940834   -2.96707e-06   7.57998e-06 DIIS
   @DF-RHF iter  12:  -232.13023410503939   -3.95631e-07   1.38164e-06 DIIS
   @DF-RHF iter  13:  -232.13023412271457   -1.76752e-08   2.84158e-07 DIIS

  ==> Post-Iterations <==

    Orbital Energies (a.u.)
    -----------------------

    Doubly Occupied:                                                      

       1A    -20.546428     2A    -11.273701     3A    -11.261440  
       4A    -11.214553     5A    -11.207650     6A     -1.369997  
       7A     -1.050197     8A     -0.950624     9A     -0.921020  
      10A     -0.780748    11A     -0.674827    12A     -0.649561  
      13A     -0.630476    14A     -0.580072    15A     -0.551354  
      16A     -0.545625    17A     -0.532907    18A     -0.511031  
      19A     -0.495296    20A     -0.446364    21A     -0.398078  

    Virtual:                                                              

      22A      0.223553    23A      0.266922    24A      0.279664  
      25A      0.295404    26A      0.314546    27A      0.318121  
      28A      0.324659    29A      0.342160    30A      0.347082  
      31A      0.364324    32A      0.394921    33A      0.417665  
      34A      0.451994    35A      0.469726    36A      0.708853  
      37A      0.716157    38A      0.737172    39A      0.767388  
      40A      0.806222    41A      0.820372    42A      0.836298  
      43A      0.902644    44A      0.969628    45A      0.972584  
      46A      0.989893    47A      1.083402    48A      1.110568  
      49A      1.143501    50A      1.147690    51A      1.167750  
      52A      1.179760    53A      1.193318    54A      1.202738  
      55A      1.213656    56A      1.242075    57A      1.254298  
      58A      1.287578    59A      1.315328    60A      1.410778  
      61A      1.478662    62A      1.578391    63A      1.642069  
      64A      1.693333    65A      1.717780    66A      1.797702  
      67A      1.904505    68A      1.966747    69A      2.064589  
      70A      2.103003    71A      2.123749    72A      2.224635  
      73A      2.291275    74A      2.312580    75A      2.399825  
      76A      2.465801    77A      2.477931    78A      2.520712  
      79A      2.545460    80A      2.584716    81A      2.609750  
      82A      2.624372    83A      2.719029    84A      2.735312  
      85A      2.895659    86A      2.915274    87A      2.931851  
      88A      3.041812    89A      3.241699    90A      3.317081  
      91A      4.427730    92A      4.620281    93A      4.680616  
      94A      4.768279    95A      4.962895  

    Final Occupation by Irrep:
              A 
    DOCC [    21 ]

  Energy converged.

  @DF-RHF Final Energy:  -232.13023412271457

   => Energetics <=

    Nuclear Repulsion Energy =            198.6803999341523195
    One-Electron Energy =                -708.4373555341812789
    Two-Electron Energy =                 277.6267214773137653
    DFT Exchange-Correlation Energy =       0.0000000000000000
    Empirical Dispersion Energy =           0.0000000000000000
    PCM Polarization Energy =               0.0000000000000000
    EFP Energy =                            0.0000000000000000
    Total Energy =                       -232.1302341227151942

    Alert: EFP and PCM quantities not currently incorporated into SCF psivars.

Properties will be evaluated at   0.000000,   0.000000,   0.000000 Bohr
  ==> Properties <==


Properties computed using the SCF density matrix

  Nuclear Dipole Moment: (a.u.)
     X:     2.0141      Y:    -0.7563      Z:     2.9156

  Electronic Dipole Moment: (a.u.)
     X:    -1.7947      Y:     0.7699      Z:    -2.3662

  Dipole Moment: (a.u.)
     X:     0.2194      Y:     0.0136      Z:     0.5494     Total:     0.5917

  Dipole Moment: (Debye)
     X:     0.5577      Y:     0.0345      Z:     1.3964     Total:     1.5040


  Saving occupied orbitals to File 180.

*** tstop() called on cx1-3-4-2.cx1.hpc.ic.ac.uk at Tue Jul  5 16:34:45 2016
Module time:
	user time   =       5.73 seconds =       0.10 minutes
	system time =       0.05 seconds =       0.00 minutes
	total time  =          6 seconds =       0.10 minutes
Total time:
	user time   =       5.73 seconds =       0.10 minutes
	system time =       0.05 seconds =       0.00 minutes
	total time  =          6 seconds =       0.10 minutes


Properties will be evaluated at   0.000000,   0.000000,   0.000000 Bohr

Properties computed using the  density matrix

  Nuclear Dipole Moment: (a.u.)
     X:     2.0141      Y:    -0.7563      Z:     2.9156

  Electronic Dipole Moment: (a.u.)
     X:    -1.7947      Y:     0.7699      Z:    -2.3662

  Dipole Moment: (a.u.)
     X:     0.2194      Y:     0.0136      Z:     0.5494     Total:     0.5917

  Dipole Moment: (Debye)
     X:     0.5577      Y:     0.0345      Z:     1.3964     Total:     1.5040

  Quadrupole Moment: (Debye Ang)
    XX:   -31.5776     YY:   -33.3050     ZZ:   -34.0454
    XY:     0.2030     XZ:    -2.2200     YZ:     0.2158

  Traceless Quadrupole Moment: (Debye Ang)
    XX:     1.3984     YY:    -0.3290     ZZ:    -1.0694
    XY:     0.2030     XZ:    -2.2200     YZ:     0.2158

  Mulliken Charges: (a.u.)
   Center  Symbol    Alpha    Beta     Spin     Total
       1     H     0.41148  0.41148  0.00000  0.17705
       2     C     3.07864  3.07864  0.00000 -0.15728
       3     O     4.31921  4.31921  0.00000 -0.63843
       4     H     0.42948  0.42948  0.00000  0.14104
       5     H     0.42995  0.42995  0.00000  0.14011
       6     C     2.89727  2.89727  0.00000  0.20547
       7     C     3.26836  3.26836  0.00000 -0.53673
       8     C     3.24427  3.24427  0.00000 -0.48853
       9     H     0.42159  0.42159  0.00000  0.15682
      10     H     0.41281  0.41281  0.00000  0.17438
      11     H     0.41350  0.41350  0.00000  0.17299
      12     H     0.41741  0.41741  0.00000  0.16518
      13     H     0.41087  0.41087  0.00000  0.17826
      14     H     0.42317  0.42317  0.00000  0.15366
      15     H     0.42199  0.42199  0.00000  0.15603

   Total alpha = 21.00000, Total beta = 21.00000, Total charge =  0.00000


*** PSI4 exiting successfully. Buy a developer a beer!
