    -----------------------------------------------------------------------
          Psi4: An Open-Source Ab Initio Electronic Structure Package
                              Psi4 (no tag) Driver

                          Git: Rev {detached?}  

    J. M. Turney, A. C. Simmonett, R. M. Parrish, E. G. Hohenstein,
    F. A. Evangelista, J. T. Fermann, B. J. Mintz, L. A. Burns, J. J. Wilke,
    M. L. Abrams, N. J. Russ, M. L. Leininger, C. L. Janssen, E. T. Seidl,
    W. D. Allen, H. F. Schaefer, R. A. King, E. F. Valeev, C. D. Sherrill,
    and T. D. Crawford, WIREs Comput. Mol. Sci. 2, 556-565 (2012)
    (doi: 10.1002/wcms.93)

                         Additional Contributions by
    A. E. DePrince, M. Saitow, U. Bozkaya, A. Yu. Sokolov
    -----------------------------------------------------------------------


    Psi4 started on: Tue Jul  5 17:08:22 2016

    Process ID:  17825
    PSI4DATADIR: /export131/home/mjharvey/miniconda3/share
    Memory level set to 256.000 MB

  ==> Input File <==

--------------------------------------------------------------------------
set {
	reference rhf
	basis 6-31G*
}


set_num_threads( 1 )
memory 2 gb

molecule MOL {
0 1

H	 -2.646374	 -0.642757	 1.268656
C	 -2.083525	 -0.384536	 0.393091
O	 -0.807605	 -0.127164	 0.768327
F	 -2.118945	 -1.383102	 -0.486752
F	 -2.621877	 0.670592	 -0.209486
C	 0.084052	 0.273579	 -0.209957
C	 0.125331	 -0.834072	 -1.254737
Cl	 1.694368	 0.544244	 0.476221
H	 -0.221628	 1.184402	 -0.694453
F	 0.695204	 -1.912030	 -0.759369
F	 0.846150	 -0.424240	 -2.279382
F	 -1.070560	 -1.150017	 -1.688322

	symmetry c1
}
set optking {
	frozen_dihedral = ("
		10 7 6 9,
		6 3 2 4
	")
}

ee = energy('scf')
oeprop('DIPOLE', 'QUADRUPOLE', 'MULLIKEN_CHARGES')
f=open( 'psi4out.xyz', 'w' )
f.write( "12  " )
f.write( str(ee) + "\n" )
f.write( MOL.save_string_xyz() )
f.close()
--------------------------------------------------------------------------

  Memory set to   2.000 GiB by Python script.

*** tstart() called on cx1-3-4-4.cx1.hpc.ic.ac.uk
*** at Tue Jul  5 17:08:22 2016


         ---------------------------------------------------------
                                   SCF
            by Justin Turney, Rob Parrish, and Andy Simmonett
                              RHF Reference
                        1 Threads,   2000 MiB Core
         ---------------------------------------------------------

  ==> Geometry <==

    Molecular point group: c1
    Full point group: C1

    Geometry (in Angstrom), charge = 0, multiplicity = 1:

       Center              X                  Y                   Z               Mass       
    ------------   -----------------  -----------------  -----------------  -----------------
           H         -2.319305123982    -0.242872676972     1.738144988784     1.007825032070
           C         -1.756456123982     0.015348323028     0.862579988784    12.000000000000
           O         -0.480536123982     0.272720323028     1.237815988784    15.994914619560
           F         -1.791876123982    -0.983217676972    -0.017263011216    18.998403224000
           F         -2.294808123982     1.070476323028     0.260002988784    18.998403224000
           C          0.411120876018     0.673463323028     0.259531988784    12.000000000000
           C          0.452399876018    -0.434187676972    -0.785248011216    12.000000000000
          CL          2.021436876018     0.944128323028     0.945709988784    34.968852682000
           H          0.105440876018     1.584286323028    -0.224964011216     1.007825032070
           F          1.022272876018    -1.512145676972    -0.289880011216    18.998403224000
           F          1.173218876018    -0.024355676972    -1.809893011216    18.998403224000
           F         -0.743491123982    -0.750132676972    -1.218833011216    18.998403224000

  Running in c1 symmetry.

  Rotational constants: A =      0.05577  B =      0.03445  C =      0.02621 [cm^-1]
  Rotational constants: A =   1672.06812  B =   1032.70782  C =    785.82294 [MHz]
  Nuclear repulsion =  773.025822156803315

  Charge       = 0
  Multiplicity = 1
  Electrons    = 90
  Nalpha       = 45
  Nbeta        = 45

  ==> Algorithm <==

  SCF Algorithm Type is DF.
  DIIS enabled.
  MOM disabled.
  Fractional occupation disabled.
  Guess Type is CORE.
  Energy threshold   = 1.00e-06
  Density threshold  = 1.00e-06
  Integral threshold = 0.00e+00

  ==> Primary Basis <==

  Basis Set: 6-31G*
    Number of shells: 66
    Number of basis function: 158
    Number of Cartesian functions: 158
    Spherical Harmonics?: false
    Max angular momentum: 2

  ==> Pre-Iterations <==

   -------------------------------------------------------
    Irrep   Nso     Nmo     Nalpha   Nbeta   Ndocc  Nsocc
   -------------------------------------------------------
     A        158     158       0       0       0       0
   -------------------------------------------------------
    Total     158     158      45      45      45       0
   -------------------------------------------------------

 OEINTS: Overlap, kinetic, potential, dipole, and quadrupole integrals
         stored in file 35.

  ==> Integral Setup <==

  ==> DFJK: Density-Fitted J/K Matrices <==

    J tasked:                  Yes
    K tasked:                  Yes
    wK tasked:                  No
    OpenMP threads:              1
    Integrals threads:           1
    Memory (MB):              1430
    Algorithm:                Core
    Integral Cache:           NONE
    Schwarz Cutoff:          1E-12
    Fitting Condition:       1E-12

   => Auxiliary Basis Set <=

  Basis Set: 
    Number of shells: 270
    Number of basis function: 909
    Number of Cartesian functions: 909
    Spherical Harmonics?: false
    Max angular momentum: 3

  Minimum eigenvalue in the overlap matrix is 1.4360044185E-03.
  Using Symmetric Orthogonalization.
  SCF Guess: Core (One-Electron) Hamiltonian.

  ==> Iterations <==

                           Total Energy        Delta E     RMS |[F,P]|

   @DF-RHF iter   1: -1054.25457276577117   -1.05425e+03   7.27426e-02 
   @DF-RHF iter   2:  -872.58554490604524    1.81669e+02   8.16533e-02 DIIS
   @DF-RHF iter   3: -1043.23225826218254   -1.70647e+02   6.05575e-02 DIIS
   @DF-RHF iter   4: -1092.61137572833809   -4.93791e+01   5.02392e-02 DIIS
   @DF-RHF iter   5: -1134.93649034342320   -4.23251e+01   2.68101e-02 DIIS
   @DF-RHF iter   6: -1138.33386005561124   -3.39737e+00   2.16874e-02 DIIS
   @DF-RHF iter   7: -1145.86180980570339   -7.52795e+00   5.68226e-03 DIIS
   @DF-RHF iter   8: -1146.13288606036667   -2.71076e-01   1.91074e-03 DIIS
   @DF-RHF iter   9: -1146.16416227221839   -3.12762e-02   5.39234e-04 DIIS
   @DF-RHF iter  10: -1146.16745698033674   -3.29471e-03   1.22530e-04 DIIS
   @DF-RHF iter  11: -1146.16771691129088   -2.59931e-04   3.77196e-05 DIIS
   @DF-RHF iter  12: -1146.16774268531572   -2.57740e-05   1.44422e-05 DIIS
   @DF-RHF iter  13: -1146.16774644392535   -3.75861e-06   4.36440e-06 DIIS
   @DF-RHF iter  14: -1146.16774681179777   -3.67872e-07   1.64695e-06 DIIS
   @DF-RHF iter  15: -1146.16774686000645   -4.82087e-08   4.59597e-07 DIIS

  ==> Post-Iterations <==

    Orbital Energies (a.u.)
    -----------------------

    Doubly Occupied:                                                      

       1A   -104.851919     2A    -26.349953     3A    -26.349109  
       4A    -26.345477     5A    -26.329390     6A    -26.308444  
       7A    -20.645026     8A    -11.517314     9A    -11.483574  
      10A    -11.398936    11A    -10.585970    12A     -8.055381  
      13A     -8.051764    14A     -8.051641    15A     -1.771112  
      16A     -1.717767    17A     -1.669124    18A     -1.648234  
      19A     -1.609891    20A     -1.485343    21A     -1.181204  
      22A     -1.041882    23A     -1.009708    24A     -0.912254  
      25A     -0.881790    26A     -0.851885    27A     -0.837128  
      28A     -0.828810    29A     -0.811774    30A     -0.777049  
      31A     -0.741503    32A     -0.716994    33A     -0.709172  
      34A     -0.697298    35A     -0.671320    36A     -0.658566  
      37A     -0.657429    38A     -0.645118    39A     -0.631219  
      40A     -0.623499    41A     -0.555813    42A     -0.532130  
      43A     -0.517697    44A     -0.483901    45A     -0.469896  

    Virtual:                                                              

      46A      0.165568    47A      0.244731    48A      0.263679  
      49A      0.284972    50A      0.352987    51A      0.385656  
      52A      0.397553    53A      0.421007    54A      0.443007  
      55A      0.477098    56A      0.488740    57A      0.551174  
      58A      0.622069    59A      0.628634    60A      0.631546  
      61A      0.684862    62A      0.699083    63A      0.712829  
      64A      0.745631    65A      0.753939    66A      0.777292  
      67A      0.799061    68A      0.824426    69A      0.927978  
      70A      0.997057    71A      1.036098    72A      1.070911  
      73A      1.100349    74A      1.128326    75A      1.149780  
      76A      1.164263    77A      1.189168    78A      1.234539  
      79A      1.285193    80A      1.296556    81A      1.335689  
      82A      1.340691    83A      1.371917    84A      1.396039  
      85A      1.430691    86A      1.447928    87A      1.493979  
      88A      1.516019    89A      1.548533    90A      1.603368  
      91A      1.619531    92A      1.631163    93A      1.645730  
      94A      1.649924    95A      1.652257    96A      1.674519  
      97A      1.699657    98A      1.708815    99A      1.751859  
     100A      1.831118   101A      1.832559   102A      1.872795  
     103A      1.929102   104A      1.959463   105A      1.965931  
     106A      2.010102   107A      2.037062   108A      2.043641  
     109A      2.064778   110A      2.077426   111A      2.115936  
     112A      2.130190   113A      2.161033   114A      2.232726  
     115A      2.256624   116A      2.266127   117A      2.283720  
     118A      2.302996   119A      2.332442   120A      2.363620  
     121A      2.370869   122A      2.423330   123A      2.436702  
     124A      2.455660   125A      2.475263   126A      2.502687  
     127A      2.535857   128A      2.561878   129A      2.631317  
     130A      2.643843   131A      2.729850   132A      2.762936  
     133A      2.826045   134A      2.883296   135A      2.946915  
     136A      3.050110   137A      3.054220   138A      3.143681  
     139A      3.189621   140A      3.222204   141A      3.253233  
     142A      3.369777   143A      3.408249   144A      3.439070  
     145A      3.442056   146A      3.488688   147A      3.519742  
     148A      3.809677   149A      4.363890   150A      4.549591  
     151A      4.710623   152A      4.733231   153A      4.752698  
     154A      4.932221   155A      5.250658   156A      5.420418  
     157A      5.777689   158A      6.592181  

    Final Occupation by Irrep:
              A 
    DOCC [    45 ]

  Energy converged.

  @DF-RHF Final Energy: -1146.16774686000645

   => Energetics <=

    Nuclear Repulsion Energy =            773.0258221568033150
    One-Electron Energy =               -3129.0463240807866896
    Two-Electron Energy =                1209.8527550639776109
    DFT Exchange-Correlation Energy =       0.0000000000000000
    Empirical Dispersion Energy =           0.0000000000000000
    PCM Polarization Energy =               0.0000000000000000
    EFP Energy =                            0.0000000000000000
    Total Energy =                      -1146.1677468600057637

    Alert: EFP and PCM quantities not currently incorporated into SCF psivars.

Properties will be evaluated at   0.000000,   0.000000,   0.000000 Bohr
  ==> Properties <==


Properties computed using the SCF density matrix

  Nuclear Dipole Moment: (a.u.)
     X:    -1.4428      Y:     2.4693      Z:     3.4604

  Electronic Dipole Moment: (a.u.)
     X:     0.9264      Y:    -2.0847      Z:    -3.0888

  Dipole Moment: (a.u.)
     X:    -0.5164      Y:     0.3847      Z:     0.3716     Total:     0.7434

  Dipole Moment: (Debye)
     X:    -1.3125      Y:     0.9777      Z:     0.9446     Total:     1.8896


  Saving occupied orbitals to File 180.

*** tstop() called on cx1-3-4-4.cx1.hpc.ic.ac.uk at Tue Jul  5 17:08:42 2016
Module time:
	user time   =      18.75 seconds =       0.31 minutes
	system time =       0.20 seconds =       0.00 minutes
	total time  =         20 seconds =       0.33 minutes
Total time:
	user time   =      18.75 seconds =       0.31 minutes
	system time =       0.20 seconds =       0.00 minutes
	total time  =         20 seconds =       0.33 minutes


Properties will be evaluated at   0.000000,   0.000000,   0.000000 Bohr

Properties computed using the  density matrix

  Nuclear Dipole Moment: (a.u.)
     X:    -1.4428      Y:     2.4693      Z:     3.4604

  Electronic Dipole Moment: (a.u.)
     X:     0.9264      Y:    -2.0847      Z:    -3.0888

  Dipole Moment: (a.u.)
     X:    -0.5164      Y:     0.3847      Z:     0.3716     Total:     0.7434

  Dipole Moment: (Debye)
     X:    -1.3125      Y:     0.9777      Z:     0.9446     Total:     1.8896

  Quadrupole Moment: (Debye Ang)
    XX:   -59.8600     YY:   -60.2484     ZZ:   -60.3792
    XY:     1.1702     XZ:    -3.3595     YZ:    -1.4984

  Traceless Quadrupole Moment: (Debye Ang)
    XX:     0.3026     YY:    -0.0859     ZZ:    -0.2167
    XY:     1.1702     XZ:    -3.3595     YZ:    -1.4984

  Mulliken Charges: (a.u.)
   Center  Symbol    Alpha    Beta     Spin     Total
       1     H     0.40121  0.40121  0.00000  0.19758
       2     C     2.56309  2.56309  0.00000  0.87382
       3     O     4.30505  4.30505  0.00000 -0.61011
       4     F     4.67898  4.67898  0.00000 -0.35795
       5     F     4.68967  4.68967  0.00000 -0.37933
       6     C     3.04791  3.04791  0.00000 -0.09582
       7     C     2.44558  2.44558  0.00000  1.10884
       8    CL     8.48506  8.48506  0.00000  0.02989
       9     H     0.36871  0.36871  0.00000  0.26258
      10     F     4.67269  4.67269  0.00000 -0.34538
      11     F     4.67859  4.67859  0.00000 -0.35719
      12     F     4.66346  4.66346  0.00000 -0.32692

   Total alpha = 45.00000, Total beta = 45.00000, Total charge = -0.00000


*** PSI4 exiting successfully. Buy a developer a beer!
