    -----------------------------------------------------------------------
          Psi4: An Open-Source Ab Initio Electronic Structure Package
                              Psi4 (no tag) Driver

                          Git: Rev {detached?}  

    J. M. Turney, A. C. Simmonett, R. M. Parrish, E. G. Hohenstein,
    F. A. Evangelista, J. T. Fermann, B. J. Mintz, L. A. Burns, J. J. Wilke,
    M. L. Abrams, N. J. Russ, M. L. Leininger, C. L. Janssen, E. T. Seidl,
    W. D. Allen, H. F. Schaefer, R. A. King, E. F. Valeev, C. D. Sherrill,
    and T. D. Crawford, WIREs Comput. Mol. Sci. 2, 556-565 (2012)
    (doi: 10.1002/wcms.93)

                         Additional Contributions by
    A. E. DePrince, M. Saitow, U. Bozkaya, A. Yu. Sokolov
    -----------------------------------------------------------------------


    Psi4 started on: Tue Jul  5 17:01:02 2016

    Process ID:   9976
    PSI4DATADIR: /export131/home/mjharvey/miniconda3/share
    Memory level set to 256.000 MB

  ==> Input File <==

--------------------------------------------------------------------------
set {
	reference rhf
	basis 6-31G*
}


set_num_threads( 1 )
memory 2 gb

molecule MOL {
0 1

O	 -0.389695	 0.092980	 2.453461
C	 -0.833093	 0.610524	 1.479901
C	 -1.689737	 1.847648	 1.474314
O	 -0.632575	 0.154573	 0.251549
H	 -2.647636	 1.627754	 1.017121
H	 -1.833848	 2.193421	 2.486988
H	 -1.213112	 2.620317	 0.882227
C	 0.160891	 -1.019931	 0.106212
C	 1.589627	 -0.672828	 0.480843
H	 0.089836	 -1.367806	 -0.916050
H	 -0.238459	 -1.792301	 0.749618
C	 1.836550	 0.825461	 0.666741
H	 2.235882	 -1.054380	 -0.307006
H	 1.854276	 -1.207730	 1.389193
C	 0.783923	 1.487217	 1.555030
H	 2.822670	 0.974843	 1.101888
H	 1.850054	 1.310144	 -0.303959
H	 0.980349	 2.548399	 1.670540
H	 0.769884	 1.043644	 2.546657
H	 -0.210434	 1.379481	 1.131088

	symmetry c1
}
set optking {
	frozen_dihedral = ("
		16 12 9 8,
		2 4 8 10,
		1 2 4 8
	")
}

ee = energy('scf')
oeprop('DIPOLE', 'QUADRUPOLE', 'MULLIKEN_CHARGES')
f=open( 'psi4out.xyz', 'w' )
f.write( "20  " )
f.write( str(ee) + "\n" )
f.write( MOL.save_string_xyz() )
f.close()
--------------------------------------------------------------------------

  Memory set to   2.000 GiB by Python script.

*** tstart() called on cx1-1-1-1.cx1.hpc.ic.ac.uk
*** at Tue Jul  5 17:01:02 2016


         ---------------------------------------------------------
                                   SCF
            by Justin Turney, Rob Parrish, and Andy Simmonett
                              RHF Reference
                        1 Threads,   2000 MiB Core
         ---------------------------------------------------------

  ==> Geometry <==

    Molecular point group: c1
    Full point group: C1

    Geometry (in Angstrom), charge = 0, multiplicity = 1:

       Center              X                  Y                   Z               Mass       
    ------------   -----------------  -----------------  -----------------  -----------------
           O         -0.478606409880    -0.331172683147     1.385604335243    15.994914619560
           C         -0.922004409880     0.186371316853     0.412044335243    12.000000000000
           C         -1.778648409880     1.423495316853     0.406457335243    12.000000000000
           O         -0.721486409880    -0.269579683147    -0.816307664757    15.994914619560
           H         -2.736547409880     1.203601316853    -0.050735664757     1.007825032070
           H         -1.922759409880     1.769268316853     1.419131335243     1.007825032070
           H         -1.302023409880     2.196164316853    -0.185629664757     1.007825032070
           C          0.071979590120    -1.444083683147    -0.961644664757    12.000000000000
           C          1.500715590120    -1.096980683147    -0.587013664757    12.000000000000
           H          0.000924590120    -1.791958683147    -1.983906664757     1.007825032070
           H         -0.327370409880    -2.216453683147    -0.318238664757     1.007825032070
           C          1.747638590120     0.401308316853    -0.401115664757    12.000000000000
           H          2.146970590120    -1.478532683147    -1.374862664757     1.007825032070
           H          1.765364590120    -1.631882683147     0.321336335243     1.007825032070
           C          0.695011590120     1.063064316853     0.487173335243    12.000000000000
           H          2.733758590120     0.550690316853     0.034031335243     1.007825032070
           H          1.761142590120     0.885991316853    -1.371815664757     1.007825032070
           H          0.891437590120     2.124246316853     0.602683335243     1.007825032070
           H          0.680972590120     0.619491316853     1.478800335243     1.007825032070
           H         -0.299345409880     0.955328316853     0.063231335243     1.007825032070

  Running in c1 symmetry.

  Rotational constants: A =      0.11498  B =      0.06597  C =      0.05559 [cm^-1]
  Rotational constants: A =   3447.02511  B =   1977.78743  C =   1666.42615 [MHz]
  Nuclear repulsion =  444.213308748967847

  Charge       = 0
  Multiplicity = 1
  Electrons    = 64
  Nalpha       = 32
  Nbeta        = 32

  ==> Algorithm <==

  SCF Algorithm Type is DF.
  DIIS enabled.
  MOM disabled.
  Fractional occupation disabled.
  Guess Type is CORE.
  Energy threshold   = 1.00e-06
  Density threshold  = 1.00e-06
  Integral threshold = 0.00e+00

  ==> Primary Basis <==

  Basis Set: 6-31G*
    Number of shells: 72
    Number of basis function: 144
    Number of Cartesian functions: 144
    Spherical Harmonics?: false
    Max angular momentum: 2

  ==> Pre-Iterations <==

   -------------------------------------------------------
    Irrep   Nso     Nmo     Nalpha   Nbeta   Ndocc  Nsocc
   -------------------------------------------------------
     A        144     144       0       0       0       0
   -------------------------------------------------------
    Total     144     144      32      32      32       0
   -------------------------------------------------------

 OEINTS: Overlap, kinetic, potential, dipole, and quadrupole integrals
         stored in file 35.

  ==> Integral Setup <==

  ==> DFJK: Density-Fitted J/K Matrices <==

    J tasked:                  Yes
    K tasked:                  Yes
    wK tasked:                  No
    OpenMP threads:              1
    Integrals threads:           1
    Memory (MB):              1430
    Algorithm:                Core
    Integral Cache:           NONE
    Schwarz Cutoff:          1E-12
    Fitting Condition:       1E-12

   => Auxiliary Basis Set <=

  Basis Set: 
    Number of shells: 300
    Number of basis function: 948
    Number of Cartesian functions: 948
    Spherical Harmonics?: false
    Max angular momentum: 3

  Minimum eigenvalue in the overlap matrix is 1.5979479274E-03.
  Using Symmetric Orthogonalization.
  SCF Guess: Core (One-Electron) Hamiltonian.

  ==> Iterations <==

                           Total Energy        Delta E     RMS |[F,P]|

   @DF-RHF iter   1:  -276.47251104930717   -2.76473e+02   7.61571e-02 
   @DF-RHF iter   2:  -266.21220807025304    1.02603e+01   5.66322e-02 DIIS
   @DF-RHF iter   3:  -339.90544070319606   -7.36932e+01   4.79169e-02 DIIS
   @DF-RHF iter   4:  -380.77457638339934   -4.08691e+01   1.59300e-02 DIIS
   @DF-RHF iter   5:  -382.87855644499541   -2.10398e+00   8.23239e-03 DIIS
   @DF-RHF iter   6:  -383.53436282140831   -6.55806e-01   2.47951e-03 DIIS
   @DF-RHF iter   7:  -383.60700776656586   -7.26449e-02   9.82041e-04 DIIS
   @DF-RHF iter   8:  -383.61716281829922   -1.01551e-02   2.96948e-04 DIIS
   @DF-RHF iter   9:  -383.61832007791281   -1.15726e-03   1.09537e-04 DIIS
   @DF-RHF iter  10:  -383.61847727700808   -1.57199e-04   2.78741e-05 DIIS
   @DF-RHF iter  11:  -383.61849900710456   -2.17301e-05   8.74126e-06 DIIS
   @DF-RHF iter  12:  -383.61850156118703   -2.55408e-06   4.48506e-06 DIIS
   @DF-RHF iter  13:  -383.61850214240144   -5.81214e-07   1.77976e-06 DIIS
   @DF-RHF iter  14:  -383.61850227606647   -1.33665e-07   6.19111e-07 DIIS

  ==> Post-Iterations <==

    Orbital Energies (a.u.)
    -----------------------

    Doubly Occupied:                                                      

       1A    -20.576263     2A    -20.476749     3A    -11.376717  
       4A    -11.278601     5A    -11.230652     6A    -11.227731  
       7A    -11.217696     8A    -11.211496     9A     -1.491021  
      10A     -1.359075    11A     -1.117863    12A     -1.080741  
      13A     -0.980613    14A     -0.903920    15A     -0.862709  
      16A     -0.750839    17A     -0.726108    18A     -0.699233  
      19A     -0.660477    20A     -0.641870    21A     -0.615459  
      22A     -0.604117    23A     -0.577416    24A     -0.560360  
      25A     -0.541362    26A     -0.534924    27A     -0.512901  
      28A     -0.477720    29A     -0.466394    30A     -0.429024  
      31A     -0.402966    32A     -0.353913  

    Virtual:                                                              

      33A      0.180797    34A      0.239268    35A      0.261911  
      36A      0.264115    37A      0.278955    38A      0.293139  
      39A      0.311118    40A      0.317952    41A      0.322841  
      42A      0.341344    43A      0.345899    44A      0.365943  
      45A      0.392603    46A      0.395379    47A      0.419273  
      48A      0.444424    49A      0.461343    50A      0.513039  
      51A      0.557223    52A      0.597135    53A      0.696842  
      54A      0.721971    55A      0.746063    56A      0.762277  
      57A      0.781476    58A      0.789625    59A      0.808931  
      60A      0.836388    61A      0.867586    62A      0.883970  
      63A      0.914544    64A      0.919550    65A      0.969554  
      66A      0.997711    67A      1.025517    68A      1.034544  
      69A      1.072360    70A      1.101633    71A      1.118532  
      72A      1.140993    73A      1.144113    74A      1.153989  
      75A      1.167035    76A      1.173745    77A      1.190079  
      78A      1.203463    79A      1.224916    80A      1.230275  
      81A      1.245935    82A      1.260694    83A      1.263159  
      84A      1.321445    85A      1.347001    86A      1.427490  
      87A      1.482315    88A      1.527126    89A      1.556695  
      90A      1.595561    91A      1.640571    92A      1.667252  
      93A      1.701913    94A      1.756460    95A      1.821747  
      96A      1.886651    97A      1.964484    98A      1.973330  
      99A      2.004745   100A      2.021747   101A      2.046429  
     102A      2.113291   103A      2.141601   104A      2.160223  
     105A      2.206863   106A      2.213989   107A      2.251804  
     108A      2.271022   109A      2.309422   110A      2.338673  
     111A      2.390938   112A      2.434046   113A      2.438275  
     114A      2.478366   115A      2.502656   116A      2.553398  
     117A      2.577563   118A      2.593371   119A      2.661501  
     120A      2.671121   121A      2.685134   122A      2.719358  
     123A      2.738249   124A      2.764211   125A      2.811112  
     126A      2.875405   127A      2.946823   128A      2.959509  
     129A      3.032625   130A      3.071725   131A      3.097836  
     132A      3.245717   133A      3.289378   134A      3.420242  
     135A      3.459069   136A      3.570504   137A      4.547573  
     138A      4.655808   139A      4.703307   140A      4.783557  
     141A      4.908830   142A      4.937456   143A      4.968298  
     144A      5.058485  

    Final Occupation by Irrep:
              A 
    DOCC [    32 ]

  Energy converged.

  @DF-RHF Final Energy:  -383.61850227606647

   => Energetics <=

    Nuclear Repulsion Energy =            444.2133087489678474
    One-Electron Energy =               -1403.7697459113110199
    Two-Electron Energy =                 575.9379348862764800
    DFT Exchange-Correlation Energy =       0.0000000000000000
    Empirical Dispersion Energy =           0.0000000000000000
    PCM Polarization Energy =               0.0000000000000000
    EFP Energy =                            0.0000000000000000
    Total Energy =                       -383.6185022760666925

    Alert: EFP and PCM quantities not currently incorporated into SCF psivars.

Properties will be evaluated at   0.000000,   0.000000,   0.000000 Bohr
  ==> Properties <==


Properties computed using the SCF density matrix

  Nuclear Dipole Moment: (a.u.)
     X:     3.1746      Y:     2.9838      Z:    -1.2778

  Electronic Dipole Moment: (a.u.)
     X:    -2.9235      Y:    -2.5463      Z:     0.5664

  Dipole Moment: (a.u.)
     X:     0.2511      Y:     0.4375      Z:    -0.7115     Total:     0.8722

  Dipole Moment: (Debye)
     X:     0.6383      Y:     1.1121      Z:    -1.8084     Total:     2.2168


  Saving occupied orbitals to File 180.

*** tstop() called on cx1-1-1-1.cx1.hpc.ic.ac.uk at Tue Jul  5 17:01:19 2016
Module time:
	user time   =      16.05 seconds =       0.27 minutes
	system time =       0.15 seconds =       0.00 minutes
	total time  =         17 seconds =       0.28 minutes
Total time:
	user time   =      16.05 seconds =       0.27 minutes
	system time =       0.15 seconds =       0.00 minutes
	total time  =         17 seconds =       0.28 minutes


Properties will be evaluated at   0.000000,   0.000000,   0.000000 Bohr

Properties computed using the  density matrix

  Nuclear Dipole Moment: (a.u.)
     X:     3.1746      Y:     2.9838      Z:    -1.2778

  Electronic Dipole Moment: (a.u.)
     X:    -2.9235      Y:    -2.5463      Z:     0.5664

  Dipole Moment: (a.u.)
     X:     0.2511      Y:     0.4375      Z:    -0.7115     Total:     0.8722

  Dipole Moment: (Debye)
     X:     0.6383      Y:     1.1121      Z:    -1.8084     Total:     2.2168

  Quadrupole Moment: (Debye Ang)
    XX:   -47.9632     YY:   -46.2113     ZZ:   -54.3290
    XY:    -2.2706     XZ:    -0.0259     YZ:     3.6925

  Traceless Quadrupole Moment: (Debye Ang)
    XX:     1.5380     YY:     3.2899     ZZ:    -4.8278
    XY:    -2.2706     XZ:    -0.0259     YZ:     3.6925

  Mulliken Charges: (a.u.)
   Center  Symbol    Alpha    Beta     Spin     Total
       1     O     4.33839  4.33839  0.00000 -0.67677
       2     C     2.65564  2.65564  0.00000  0.68872
       3     C     3.28033  3.28033  0.00000 -0.56067
       4     O     4.33536  4.33536  0.00000 -0.67071
       5     H     0.40413  0.40413  0.00000  0.19174
       6     H     0.39370  0.39370  0.00000  0.21260
       7     H     0.39629  0.39629  0.00000  0.20742
       8     C     2.99802  2.99802  0.00000  0.00397
       9     C     3.18202  3.18202  0.00000 -0.36403
      10     H     0.40808  0.40808  0.00000  0.18384
      11     H     0.40289  0.40289  0.00000  0.19422
      12     C     3.15103  3.15103  0.00000 -0.30205
      13     H     0.41955  0.41955  0.00000  0.16090
      14     H     0.40630  0.40630  0.00000  0.18739
      15     C     3.23934  3.23934  0.00000 -0.47869
      16     H     0.40984  0.40984  0.00000  0.18031
      17     H     0.41804  0.41804  0.00000  0.16391
      18     H     0.42059  0.42059  0.00000  0.15883
      19     H     0.34486  0.34486  0.00000  0.31029
      20     H     0.39561  0.39561  0.00000  0.20878

   Total alpha = 32.00000, Total beta = 32.00000, Total charge =  0.00000


*** PSI4 exiting successfully. Buy a developer a beer!
