    -----------------------------------------------------------------------
          Psi4: An Open-Source Ab Initio Electronic Structure Package
                              Psi4 (no tag) Driver

                          Git: Rev {detached?}  

    J. M. Turney, A. C. Simmonett, R. M. Parrish, E. G. Hohenstein,
    F. A. Evangelista, J. T. Fermann, B. J. Mintz, L. A. Burns, J. J. Wilke,
    M. L. Abrams, N. J. Russ, M. L. Leininger, C. L. Janssen, E. T. Seidl,
    W. D. Allen, H. F. Schaefer, R. A. King, E. F. Valeev, C. D. Sherrill,
    and T. D. Crawford, WIREs Comput. Mol. Sci. 2, 556-565 (2012)
    (doi: 10.1002/wcms.93)

                         Additional Contributions by
    A. E. DePrince, M. Saitow, U. Bozkaya, A. Yu. Sokolov
    -----------------------------------------------------------------------


    Psi4 started on: Tue Jul  5 16:41:25 2016

    Process ID:  17698
    PSI4DATADIR: /export131/home/mjharvey/miniconda3/share
    Memory level set to 256.000 MB

  ==> Input File <==

--------------------------------------------------------------------------
set {
	reference rhf
	basis 6-31G*
}


set_num_threads( 1 )
memory 2 gb

molecule MOL {
0 1

H	 -1.776480	 -2.920158	 -1.751450
C	 -1.346974	 -2.506484	 -0.831015
C	 -0.414791	 -1.338711	 -1.026665
O	 -1.626546	 -2.979034	 0.222866
C	 -0.558097	 -0.297372	 0.091132
H	 -0.613686	 -0.904396	 -1.999440
H	 0.604049	 -1.724418	 -1.031735
C	 -1.850991	 0.512573	 -0.019058
H	 -0.527822	 -0.799848	 1.055173
H	 0.293577	 0.380148	 0.069309
C	 -3.096943	 -0.368295	 -0.099594
H	 -1.800724	 1.150330	 -0.898172
H	 -1.931651	 1.177355	 0.838044
H	 -3.060452	 -1.020287	 -0.967456
H	 -3.996858	 0.233488	 -0.175704
H	 -3.191959	 -0.995686	 0.782074

	symmetry c1
}
set optking {
	frozen_dihedral = ("
		9 5 8 12,
		6 3 5 9
	")
}

ee = energy('scf')
oeprop('DIPOLE', 'QUADRUPOLE', 'MULLIKEN_CHARGES')
f=open( 'psi4out.xyz', 'w' )
f.write( "16  " )
f.write( str(ee) + "\n" )
f.write( MOL.save_string_xyz() )
f.close()
--------------------------------------------------------------------------

  Memory set to   2.000 GiB by Python script.

*** tstart() called on cx1-1-3-3.cx1.hpc.ic.ac.uk
*** at Tue Jul  5 16:41:26 2016


         ---------------------------------------------------------
                                   SCF
            by Justin Turney, Rob Parrish, and Andy Simmonett
                              RHF Reference
                        1 Threads,   2000 MiB Core
         ---------------------------------------------------------

  ==> Geometry <==

    Molecular point group: c1
    Full point group: C1

    Geometry (in Angstrom), charge = 0, multiplicity = 1:

       Center              X                  Y                   Z               Mass       
    ------------   -----------------  -----------------  -----------------  -----------------
           H         -0.273604641638    -1.745636610072    -1.482272545287     1.007825032070
           C          0.155901358362    -1.331962610072    -0.561837545287    12.000000000000
           C          1.088084358362    -0.164189610072    -0.757487545287    12.000000000000
           O         -0.123670641638    -1.804512610072     0.492043454713    15.994914619560
           C          0.944778358362     0.877149389928     0.360309454713    12.000000000000
           H          0.889189358362     0.270125389928    -1.730262545287     1.007825032070
           H          2.106924358362    -0.549896610072    -0.762557545287     1.007825032070
           C         -0.348115641638     1.687094389928     0.250119454713    12.000000000000
           H          0.975053358362     0.374673389928     1.324350454713     1.007825032070
           H          1.796452358362     1.554669389928     0.338486454713     1.007825032070
           C         -1.594067641638     0.806226389928     0.169583454713    12.000000000000
           H         -0.297848641638     2.324851389928    -0.628994545287     1.007825032070
           H         -0.428775641638     2.351876389928     1.107221454713     1.007825032070
           H         -1.557576641638     0.154234389928    -0.698278545287     1.007825032070
           H         -2.493982641638     1.408009389928     0.093473454713     1.007825032070
           H         -1.689083641638     0.178835389928     1.051251454713     1.007825032070

  Running in c1 symmetry.

  Rotational constants: A =      0.16665  B =      0.09699  C =      0.07428 [cm^-1]
  Rotational constants: A =   4995.96062  B =   2907.79640  C =   2226.75623 [MHz]
  Nuclear repulsion =  246.857492844988911

  Charge       = 0
  Multiplicity = 1
  Electrons    = 48
  Nalpha       = 24
  Nbeta        = 24

  ==> Algorithm <==

  SCF Algorithm Type is DF.
  DIIS enabled.
  MOM disabled.
  Fractional occupation disabled.
  Guess Type is CORE.
  Energy threshold   = 1.00e-06
  Density threshold  = 1.00e-06
  Integral threshold = 0.00e+00

  ==> Primary Basis <==

  Basis Set: 6-31G*
    Number of shells: 56
    Number of basis function: 110
    Number of Cartesian functions: 110
    Spherical Harmonics?: false
    Max angular momentum: 2

  ==> Pre-Iterations <==

   -------------------------------------------------------
    Irrep   Nso     Nmo     Nalpha   Nbeta   Ndocc  Nsocc
   -------------------------------------------------------
     A        110     110       0       0       0       0
   -------------------------------------------------------
    Total     110     110      24      24      24       0
   -------------------------------------------------------

 OEINTS: Overlap, kinetic, potential, dipole, and quadrupole integrals
         stored in file 35.

  ==> Integral Setup <==

  ==> DFJK: Density-Fitted J/K Matrices <==

    J tasked:                  Yes
    K tasked:                  Yes
    wK tasked:                  No
    OpenMP threads:              1
    Integrals threads:           1
    Memory (MB):              1430
    Algorithm:                Core
    Integral Cache:           NONE
    Schwarz Cutoff:          1E-12
    Fitting Condition:       1E-12

   => Auxiliary Basis Set <=

  Basis Set: 
    Number of shells: 234
    Number of basis function: 736
    Number of Cartesian functions: 736
    Spherical Harmonics?: false
    Max angular momentum: 3

  Minimum eigenvalue in the overlap matrix is 3.6112503365E-03.
  Using Symmetric Orthogonalization.
  SCF Guess: Core (One-Electron) Hamiltonian.

  ==> Iterations <==

                           Total Energy        Delta E     RMS |[F,P]|

   @DF-RHF iter   1:  -211.78656358772949   -2.11787e+02   7.42181e-02 
   @DF-RHF iter   2:  -164.85822644783471    4.69283e+01   6.49416e-02 DIIS
   @DF-RHF iter   3:  -228.54880713244987   -6.36906e+01   4.64951e-02 DIIS
   @DF-RHF iter   4:  -247.06089645739391   -1.85121e+01   4.56645e-02 DIIS
   @DF-RHF iter   5:  -267.43650711474538   -2.03756e+01   1.50106e-02 DIIS
   @DF-RHF iter   6:  -269.76995182466817   -2.33344e+00   6.11771e-03 DIIS
   @DF-RHF iter   7:  -269.99243842009867   -2.22487e-01   1.67930e-03 DIIS
   @DF-RHF iter   8:  -270.00706448464325   -1.46261e-02   7.26557e-04 DIIS
   @DF-RHF iter   9:  -270.01011707384464   -3.05259e-03   3.05127e-04 DIIS
   @DF-RHF iter  10:  -270.01083137471096   -7.14301e-04   9.51775e-05 DIIS
   @DF-RHF iter  11:  -270.01093275035441   -1.01376e-04   3.12932e-05 DIIS
   @DF-RHF iter  12:  -270.01094767426730   -1.49239e-05   9.06000e-06 DIIS
   @DF-RHF iter  13:  -270.01095012631140   -2.45204e-06   4.08984e-06 DIIS
   @DF-RHF iter  14:  -270.01095070270253   -5.76391e-07   1.79528e-06 DIIS
   @DF-RHF iter  15:  -270.01095082394613   -1.21244e-07   5.20309e-07 DIIS

  ==> Post-Iterations <==

    Orbital Energies (a.u.)
    -----------------------

    Doubly Occupied:                                                      

       1A    -20.559085     2A    -11.327717     3A    -11.236003  
       4A    -11.224633     5A    -11.220866     6A    -11.209645  
       7A     -1.402722     8A     -1.091949     9A     -1.007061  
      10A     -0.916823    11A     -0.814211    12A     -0.762748  
      13A     -0.684503    14A     -0.649826    15A     -0.637417  
      16A     -0.592919    17A     -0.568486    18A     -0.546161  
      19A     -0.527952    20A     -0.519563    21A     -0.479108  
      22A     -0.470366    23A     -0.456481    24A     -0.409603  

    Virtual:                                                              

      25A      0.156640    26A      0.230361    27A      0.253353  
      28A      0.286635    29A      0.292158    30A      0.306831  
      31A      0.308609    32A      0.325536    33A      0.340720  
      34A      0.352805    35A      0.369600    36A      0.400671  
      37A      0.407315    38A      0.434551    39A      0.464809  
      40A      0.490960    41A      0.710710    42A      0.719881  
      43A      0.731341    44A      0.760225    45A      0.791599  
      46A      0.813808    47A      0.855997    48A      0.897393  
      49A      0.931229    50A      0.950428    51A      0.977387  
      52A      1.008083    53A      1.026917    54A      1.055565  
      55A      1.084081    56A      1.104623    57A      1.133461  
      58A      1.144791    59A      1.159836    60A      1.176754  
      61A      1.196191    62A      1.207275    63A      1.233273  
      64A      1.246152    65A      1.255412    66A      1.267311  
      67A      1.321684    68A      1.352934    69A      1.401307  
      70A      1.437613    71A      1.573606    72A      1.655140  
      73A      1.734515    74A      1.768344    75A      1.836040  
      76A      1.860979    77A      1.890099    78A      1.972149  
      79A      2.025650    80A      2.079192    81A      2.115611  
      82A      2.124089    83A      2.193771    84A      2.240604  
      85A      2.281481    86A      2.293135    87A      2.328614  
      88A      2.408147    89A      2.453152    90A      2.468393  
      91A      2.582354    92A      2.661318    93A      2.671167  
      94A      2.690589    95A      2.696299    96A      2.770246  
      97A      2.781451    98A      2.823896    99A      2.966698  
     100A      2.972661   101A      3.030189   102A      3.102608  
     103A      3.258477   104A      3.374856   105A      4.331936  
     106A      4.538737   107A      4.634833   108A      4.727043  
     109A      4.918993   110A      4.958430  

    Final Occupation by Irrep:
              A 
    DOCC [    24 ]

  Energy converged.

  @DF-RHF Final Energy:  -270.01095082394613

   => Energetics <=

    Nuclear Repulsion Energy =            246.8574928449889114
    One-Electron Energy =                -855.1051479156127471
    Two-Electron Energy =                 338.2367042466776184
    DFT Exchange-Correlation Energy =       0.0000000000000000
    Empirical Dispersion Energy =           0.0000000000000000
    PCM Polarization Energy =               0.0000000000000000
    EFP Energy =                            0.0000000000000000
    Total Energy =                       -270.0109508239462457

    Alert: EFP and PCM quantities not currently incorporated into SCF psivars.

Properties will be evaluated at   0.000000,   0.000000,   0.000000 Bohr
  ==> Properties <==


Properties computed using the SCF density matrix

  Nuclear Dipole Moment: (a.u.)
     X:    -0.9130      Y:     5.9178      Z:    -1.2985

  Electronic Dipole Moment: (a.u.)
     X:     1.2723      Y:    -5.3086      Z:     0.5038

  Dipole Moment: (a.u.)
     X:     0.3593      Y:     0.6091      Z:    -0.7946     Total:     1.0638

  Dipole Moment: (Debye)
     X:     0.9133      Y:     1.5482      Z:    -2.0197     Total:     2.7038


  Saving occupied orbitals to File 180.

*** tstop() called on cx1-1-3-3.cx1.hpc.ic.ac.uk at Tue Jul  5 16:41:35 2016
Module time:
	user time   =       8.86 seconds =       0.15 minutes
	system time =       0.07 seconds =       0.00 minutes
	total time  =          9 seconds =       0.15 minutes
Total time:
	user time   =       8.86 seconds =       0.15 minutes
	system time =       0.07 seconds =       0.00 minutes
	total time  =          9 seconds =       0.15 minutes


Properties will be evaluated at   0.000000,   0.000000,   0.000000 Bohr

Properties computed using the  density matrix

  Nuclear Dipole Moment: (a.u.)
     X:    -0.9130      Y:     5.9178      Z:    -1.2985

  Electronic Dipole Moment: (a.u.)
     X:     1.2723      Y:    -5.3086      Z:     0.5038

  Dipole Moment: (a.u.)
     X:     0.3593      Y:     0.6091      Z:    -0.7946     Total:     1.0638

  Dipole Moment: (Debye)
     X:     0.9133      Y:     1.5482      Z:    -2.0197     Total:     2.7038

  Quadrupole Moment: (Debye Ang)
    XX:   -37.5949     YY:   -42.2474     ZZ:   -37.6675
    XY:    -1.2470     XZ:    -0.2625     YZ:     3.8442

  Traceless Quadrupole Moment: (Debye Ang)
    XX:     1.5750     YY:    -3.0775     ZZ:     1.5024
    XY:    -1.2470     XZ:    -0.2625     YZ:     3.8442

  Mulliken Charges: (a.u.)
   Center  Symbol    Alpha    Beta     Spin     Total
       1     H     0.42662  0.42662  0.00000  0.14676
       2     C     2.84427  2.84427  0.00000  0.31145
       3     C     3.20678  3.20678  0.00000 -0.41356
       4     O     4.24067  4.24067  0.00000 -0.48134
       5     C     3.15888  3.15888  0.00000 -0.31777
       6     H     0.41328  0.41328  0.00000  0.17344
       7     H     0.39818  0.39818  0.00000  0.20364
       8     C     3.15291  3.15291  0.00000 -0.30582
       9     H     0.40311  0.40311  0.00000  0.19379
      10     H     0.41724  0.41724  0.00000  0.16553
      11     C     3.24652  3.24652  0.00000 -0.49304
      12     H     0.42377  0.42377  0.00000  0.15246
      13     H     0.41687  0.41687  0.00000  0.16626
      14     H     0.42914  0.42914  0.00000  0.14171
      15     H     0.41780  0.41780  0.00000  0.16440
      16     H     0.40396  0.40396  0.00000  0.19208

   Total alpha = 24.00000, Total beta = 24.00000, Total charge = -0.00000


*** PSI4 exiting successfully. Buy a developer a beer!
