
    -----------------------------------------------------------------------
          Psi4: An Open-Source Ab Initio Electronic Structure Package
                               Psi4 1.1 release

                         Git: Rev {HEAD} add49b9 


    R. M. Parrish, L. A. Burns, D. G. A. Smith, A. C. Simmonett,
    A. E. DePrince III, E. G. Hohenstein, U. Bozkaya, A. Yu. Sokolov,
    R. Di Remigio, R. M. Richard, J. F. Gonthier, A. M. James,
    H. R. McAlexander, A. Kumar, M. Saitow, X. Wang, B. P. Pritchard,
    P. Verma, H. F. Schaefer III, K. Patkowski, R. A. King, E. F. Valeev,
    F. A. Evangelista, J. M. Turney, T. D. Crawford, and C. D. Sherrill,
    J. Chem. Theory Comput. in press (2017).
    (doi: 10.1021/acs.jctc.7b00174)

    -----------------------------------------------------------------------


    Psi4 started on: Tuesday, 30 January 2018 01:48PM

    Process ID:  24191
    PSIDATADIR: /shared/raimis/opt/miniconda/envs/htmd/share/psi4
    Memory:     500.0 MiB
    Threads:    1
    
  ==> Input File <==

--------------------------------------------------------------------------
set_num_threads(1)
set_memory(4203741184)

set { reference rks }
set { basis cc-pVDZ }

molecule MOL {
    0 1
    noreorient
    nocom
    symmetry c1
    O    1.141000   0.017000   0.083000
    C    2.558000   0.086000  -0.005000
    C    3.192000  -0.789000   1.067000
    O    4.610000  -0.719000   0.979000
    H    0.860947  -0.719185  -0.488003
    H    2.874000   1.128000   0.115000
    H    2.871000  -0.243000  -1.001000
    H    2.876000  -1.830000   0.947000
    H    2.879000  -0.459000   2.064000
    H    4.961000  -1.293000   1.682000
}

set optking { frozen_dihedral = (" 3 2 1 5 ") }

energy, wfn = energy('B3LYP-D3', return_wfn=True)

import os
os.chdir(os.environ['HTMD_PSI4_WORKDIR'])

oeprop(wfn, 'DIPOLE', 'QUADRUPOLE', 'MULLIKEN_CHARGES')

with open('psi4out.xyz', 'w') as f:
    f.write('10 ' )
    f.write('%.12f\n' % energy)
    f.write(MOL.save_string_xyz())
--------------------------------------------------------------------------
  Threads set to 1 by Python driver.

  Memory set to   3.915 GiB by Python driver.

*** tstart() called on computer06
*** at Tue Jan 30 13:48:52 2018

   => Loading Basis Set <=

    Name: CC-PVDZ
    Role: ORBITAL
    Keyword: BASIS
    atoms 1, 4 entry O          line   190 file /shared/raimis/opt/miniconda/envs/htmd/share/psi4/basis/cc-pvdz.gbs 
    atoms 2-3  entry C          line   130 file /shared/raimis/opt/miniconda/envs/htmd/share/psi4/basis/cc-pvdz.gbs 
    atoms 5-10 entry H          line    20 file /shared/raimis/opt/miniconda/envs/htmd/share/psi4/basis/cc-pvdz.gbs 


         ---------------------------------------------------------
                                   SCF
            by Justin Turney, Rob Parrish, and Andy Simmonett
                              RKS Reference
                        1 Threads,   4009 MiB Core
         ---------------------------------------------------------

  ==> Geometry <==

    Molecular point group: c1
    Full point group: C1

    Geometry (in Angstrom), charge = 0, multiplicity = 1:

       Center              X                  Y                   Z               Mass       
    ------------   -----------------  -----------------  -----------------  -----------------
           O          1.141000000000     0.017000000000     0.083000000000    15.994914619560
           C          2.558000000000     0.086000000000    -0.005000000000    12.000000000000
           C          3.192000000000    -0.789000000000     1.067000000000    12.000000000000
           O          4.610000000000    -0.719000000000     0.979000000000    15.994914619560
           H          0.860947000000    -0.719185000000    -0.488003000000     1.007825032070
           H          2.874000000000     1.128000000000     0.115000000000     1.007825032070
           H          2.871000000000    -0.243000000000    -1.001000000000     1.007825032070
           H          2.876000000000    -1.830000000000     0.947000000000     1.007825032070
           H          2.879000000000    -0.459000000000     2.064000000000     1.007825032070
           H          4.961000000000    -1.293000000000     1.682000000000     1.007825032070

  Running in c1 symmetry.

  Rotational constants: A =      0.83516  B =      0.02533  C =      0.02487 [cm^-1]
  Rotational constants: A =  25037.55191  B =    759.30838  C =    745.59741 [MHz]
  Nuclear repulsion =  129.714404460571643

  Charge       = 0
  Multiplicity = 1
  Electrons    = 34
  Nalpha       = 17
  Nbeta        = 17

  ==> Algorithm <==

  SCF Algorithm Type is DF.
  DIIS enabled.
  MOM disabled.
  Fractional occupation disabled.
  Guess Type is SAD.
  Energy threshold   = 1.00e-06
  Density threshold  = 1.00e-06
  Integral threshold = 0.00e+00

  ==> Primary Basis <==

  Basis Set: CC-PVDZ
    Blend: CC-PVDZ
    Number of shells: 42
    Number of basis function: 86
    Number of Cartesian functions: 90
    Spherical Harmonics?: true
    Max angular momentum: 2

  ==> DFT Potential <==

   => B3LYP Composite Functional <= 

    B3LYP Hybrid-GGA Exchange-Correlation Functional (VWN1-RPA)

    P.J. Stephens et. al., J. Phys. Chem., 98, 11623-11627, 1994

    Points   =           5000
    Deriv    =              1
    GGA      =           TRUE
    Meta     =          FALSE

    X_LRC        =          FALSE
    X_Hybrid     =           TRUE
    X_Alpha      =   2.000000E-01
    X_Omega      =   0.000000E+00
    C_LRC        =          FALSE
    C_Hybrid     =          FALSE
    C_Alpha      =   0.000000E+00
    C_Omega      =   0.000000E+00

   => Exchange Functionals <=

    0.8000    B3_X
    0.2000      HF 

   => Correlation Functionals <=

    0.1900 VWN3RPA_C
    0.8100   LYP_C

   => Molecular Quadrature <=

    Radial Scheme    =       TREUTLER
    Pruning Scheme   =           FLAT
    Nuclear Scheme   =       TREUTLER

    BS radius alpha  =              1
    Pruning alpha    =              1
    Radial Points    =             75
    Spherical Points =            302
    Total Points     =         222546
    Total Blocks     =            209
    Max Points       =           4706
    Max Functions    =             86

   => -D3ZERO: Empirical Dispersion <=

    Grimme's -D3 (zero-damping) Dispersion Correction
    Grimme S.; Antony J.; Ehrlich S.; Krieg H. (2010), J. Chem. Phys., 132: 154104

        S6 =   1.000000E+00
        S8 =   1.703000E+00
       SR6 =   1.261000E+00
    ALPHA6 =   1.400000E+01

   => Loading Basis Set <=

    Name: (CC-PVDZ AUX)
    Role: JKFIT
    Keyword: DF_BASIS_SCF
    atoms 1, 4 entry O          line   220 file /shared/raimis/opt/miniconda/envs/htmd/share/psi4/basis/cc-pvdz-jkfit.gbs 
    atoms 2-3  entry C          line   120 file /shared/raimis/opt/miniconda/envs/htmd/share/psi4/basis/cc-pvdz-jkfit.gbs 
    atoms 5-10 entry H          line    50 file /shared/raimis/opt/miniconda/envs/htmd/share/psi4/basis/cc-pvdz-jkfit.gbs 

  ==> Pre-Iterations <==

   -------------------------------------------------------
    Irrep   Nso     Nmo     Nalpha   Nbeta   Ndocc  Nsocc
   -------------------------------------------------------
     A         86      86       0       0       0       0
   -------------------------------------------------------
    Total      86      86      17      17      17       0
   -------------------------------------------------------

  ==> Integral Setup <==

  ==> DFJK: Density-Fitted J/K Matrices <==

    J tasked:                  Yes
    K tasked:                  Yes
    wK tasked:                  No
    OpenMP threads:              1
    Integrals threads:           1
    Memory (MB):              3006
    Algorithm:                Core
    Integral Cache:           NONE
    Schwarz Cutoff:          1E-12
    Fitting Condition:       1E-12

   => Auxiliary Basis Set <=

  Basis Set: (CC-PVDZ AUX)
    Blend: CC-PVDZ-JKFIT
    Number of shells: 150
    Number of basis function: 418
    Number of Cartesian functions: 474
    Spherical Harmonics?: true
    Max angular momentum: 3

  Minimum eigenvalue in the overlap matrix is 5.0779565471E-03.
  Using Symmetric Orthogonalization.

  SCF Guess: Superposition of Atomic Densities via on-the-fly atomic UHF.

  ==> Iterations <==

                           Total Energy        Delta E     RMS |[F,P]|

   @DF-RKS iter   0:  -230.98173695494410   -2.30982e+02   4.09725e-02 
   @DF-RKS iter   1:  -230.17625458813788    8.05482e-01   5.29982e-03 
   @DF-RKS iter   2:  -230.12045937939084    5.57952e-02   7.16716e-03 DIIS
   @DF-RKS iter   3:  -230.25689461843336   -1.36435e-01   6.36719e-04 DIIS
   @DF-RKS iter   4:  -230.25802524340020   -1.13062e-03   2.19264e-04 DIIS
   @DF-RKS iter   5:  -230.25819545915266   -1.70216e-04   4.65107e-05 DIIS
   @DF-RKS iter   6:  -230.25820284511352   -7.38596e-06   8.00082e-06 DIIS
   @DF-RKS iter   7:  -230.25820297025797   -1.25144e-07   4.59460e-06 DIIS
   @DF-RKS iter   8:  -230.25820302675675   -5.64988e-08   3.83986e-07 DIIS

  ==> Post-Iterations <==

    Orbital Energies (a.u.)
    -----------------------

    Doubly Occupied:                                                      

       1A    -19.134952     2A    -19.131415     3A    -10.227141  
       4A    -10.224732     5A     -1.020846     6A     -1.009508  
       7A     -0.730847     8A     -0.611458     9A     -0.522777  
      10A     -0.494480    11A     -0.451610    12A     -0.428085  
      13A     -0.397199    14A     -0.338453    15A     -0.325891  
      16A     -0.270048    17A     -0.264672  

    Virtual:                                                              

      18A      0.043722    19A      0.050977    20A      0.105937  
      21A      0.118342    22A      0.126890    23A      0.163688  
      24A      0.186471    25A      0.244897    26A      0.251699  
      27A      0.435386    28A      0.441578    29A      0.503342  
      30A      0.518688    31A      0.552829    32A      0.585480  
      33A      0.604016    34A      0.623330    35A      0.637616  
      36A      0.648156    37A      0.665169    38A      0.682637  
      39A      0.882441    40A      0.904436    41A      0.909876  
      42A      0.972079    43A      1.014948    44A      1.058495  
      45A      1.064241    46A      1.082241    47A      1.201947  
      48A      1.217730    49A      1.303226    50A      1.332427  
      51A      1.344730    52A      1.396444    53A      1.443746  
      54A      1.516198    55A      1.599583    56A      1.600347  
      57A      1.644345    58A      1.651031    59A      1.665060  
      60A      1.707185    61A      1.727106    62A      1.766591  
      63A      1.834010    64A      1.853753    65A      1.916461  
      66A      1.978758    67A      2.034490    68A      2.076021  
      69A      2.098311    70A      2.166600    71A      2.244600  
      72A      2.289912    73A      2.404664    74A      2.425152  
      75A      2.471652    76A      2.519290    77A      2.910803  
      78A      2.945072    79A      2.969150    80A      3.029070  
      81A      3.065576    82A      3.141049    83A      3.190204  
      84A      3.236496    85A      3.667023    86A      3.688720  

    Final Occupation by Irrep:
              A 
    DOCC [    17 ]

  Energy converged.

  @DF-RKS Final Energy:  -230.25820302675675

   => Energetics <=

    Nuclear Repulsion Energy =            129.7144044605716431
    One-Electron Energy =                -571.1441384417078098
    Two-Electron Energy =                 235.7146840068561744
    DFT Exchange-Correlation Energy =     -24.5385827124767708
    Empirical Dispersion Energy =          -0.0045703400000000
    PCM Polarization Energy =               0.0000000000000000
    EFP Energy =                            0.0000000000000000
    Total Energy =                       -230.2582030267567461



Properties will be evaluated at   0.000000,   0.000000,   0.000000 Bohr

Properties computed using the SCF density matrix

  Nuclear Dipole Moment: (a.u.)
     X:   184.8718      Y:   -25.0392      Z:    34.3684

  Electronic Dipole Moment: (a.u.)
     X:  -184.8345      Y:    24.3130      Z:   -34.3174

  Dipole Moment: (a.u.)
     X:     0.0373      Y:    -0.7262      Z:     0.0510     Total:     0.7290

  Dipole Moment: (Debye)
     X:     0.0949      Y:    -1.8459      Z:     0.1296     Total:     1.8529


*** tstop() called on computer06 at Tue Jan 30 13:49:13 2018
Module time:
	user time   =      19.78 seconds =       0.33 minutes
	system time =       0.18 seconds =       0.00 minutes
	total time  =         21 seconds =       0.35 minutes
Total time:
	user time   =      19.78 seconds =       0.33 minutes
	system time =       0.18 seconds =       0.00 minutes
	total time  =         21 seconds =       0.35 minutes


Properties will be evaluated at   0.000000,   0.000000,   0.000000 Bohr

Properties computed using the  density matrix

  Nuclear Dipole Moment: (a.u.)
     X:   184.8718      Y:   -25.0392      Z:    34.3684

  Electronic Dipole Moment: (a.u.)
     X:  -184.8345      Y:    24.3130      Z:   -34.3174

  Dipole Moment: (a.u.)
     X:     0.0373      Y:    -0.7262      Z:     0.0510     Total:     0.7290

  Dipole Moment: (Debye)
     X:     0.0949      Y:    -1.8459      Z:     0.1296     Total:     1.8529

  Quadrupole Moment: (Debye Ang)
    XX:   -26.5284     YY:   -22.0121     ZZ:   -21.3191
    XY:    -4.3688     XZ:     4.4480     YZ:    -1.5745

  Traceless Quadrupole Moment: (Debye Ang)
    XX:    -3.2418     YY:     1.2744     ZZ:     1.9674
    XY:    -4.3688     XZ:     4.4480     YZ:    -1.5745

  Mulliken Charges: (a.u.)
   Center  Symbol    Alpha    Beta     Spin     Total
       1     O     4.13935  4.13935  0.00000 -0.27871
       2     C     2.93387  2.93387  0.00000  0.13225
       3     C     2.93851  2.93851  0.00000  0.12298
       4     O     4.14097  4.14097  0.00000 -0.28193
       5     H     0.42931  0.42931  0.00000  0.14137
       6     H     0.48732  0.48732  0.00000  0.02535
       7     H     0.49717  0.49717  0.00000  0.00566
       8     H     0.50739  0.50739  0.00000 -0.01479
       9     H     0.49796  0.49796  0.00000  0.00408
      10     H     0.42814  0.42814  0.00000  0.14373

   Total alpha = 17.00000, Total beta = 17.00000, Total charge =  0.00000


*** Psi4 exiting successfully. Buy a developer a beer!
