    -----------------------------------------------------------------------
          Psi4: An Open-Source Ab Initio Electronic Structure Package
                              Psi4 (no tag) Driver

                          Git: Rev {detached?}  

    J. M. Turney, A. C. Simmonett, R. M. Parrish, E. G. Hohenstein,
    F. A. Evangelista, J. T. Fermann, B. J. Mintz, L. A. Burns, J. J. Wilke,
    M. L. Abrams, N. J. Russ, M. L. Leininger, C. L. Janssen, E. T. Seidl,
    W. D. Allen, H. F. Schaefer, R. A. King, E. F. Valeev, C. D. Sherrill,
    and T. D. Crawford, WIREs Comput. Mol. Sci. 2, 556-565 (2012)
    (doi: 10.1002/wcms.93)

                         Additional Contributions by
    A. E. DePrince, M. Saitow, U. Bozkaya, A. Yu. Sokolov
    -----------------------------------------------------------------------


    Psi4 started on: Tue Jul  5 16:40:53 2016

    Process ID:  30883
    PSI4DATADIR: /export131/home/mjharvey/miniconda3/share
    Memory level set to 256.000 MB

  ==> Input File <==

--------------------------------------------------------------------------
set {
	reference rhf
	basis 6-31G*
}


set_num_threads( 1 )
memory 2 gb

molecule MOL {
0 1

H	 -3.439213	 -0.768750	 -0.392761
O	 -2.609848	 -0.419713	 -0.686193
C	 -2.026376	 0.340750	 0.341611
C	 -0.673256	 0.843270	 -0.132153
H	 -2.663217	 1.186068	 0.596185
H	 -1.905194	 -0.261650	 1.241101
C	 0.486613	 -0.083066	 0.235839
H	 -0.715586	 0.970948	 -1.210718
H	 -0.508072	 1.829858	 0.297090
C	 0.765248	 -0.120712	 1.739421
H	 1.378736	 0.236967	 -0.292564
H	 0.264762	 -1.091045	 -0.112873
C	 1.446297	 1.148314	 2.250711
H	 -0.170518	 -0.267562	 2.274673
H	 1.387866	 -0.982475	 1.972133
H	 0.831797	 2.024275	 2.063706
H	 1.629342	 1.094331	 3.319601
H	 2.402341	 1.305563	 1.759016

	symmetry c1
}
set optking {
	frozen_dihedral = ("
		14 10 7 11,
		10 7 4 8,
		1 2 3 4
	")
}

ee = energy('scf')
oeprop('DIPOLE', 'QUADRUPOLE', 'MULLIKEN_CHARGES')
f=open( 'psi4out.xyz', 'w' )
f.write( "18  " )
f.write( str(ee) + "\n" )
f.write( MOL.save_string_xyz() )
f.close()
--------------------------------------------------------------------------

  Memory set to   2.000 GiB by Python script.

*** tstart() called on cx1-3-2-3.cx1.hpc.ic.ac.uk
*** at Tue Jul  5 16:40:53 2016


         ---------------------------------------------------------
                                   SCF
            by Justin Turney, Rob Parrish, and Andy Simmonett
                              RHF Reference
                        1 Threads,   2000 MiB Core
         ---------------------------------------------------------

  ==> Geometry <==

    Molecular point group: c1
    Full point group: C1

    Geometry (in Angstrom), charge = 0, multiplicity = 1:

       Center              X                  Y                   Z               Mass       
    ------------   -----------------  -----------------  -----------------  -----------------
           H         -2.947882382067    -1.042873512729    -1.004123981531     1.007825032070
           O         -2.118517382067    -0.693836512729    -1.297555981531    15.994914619560
           C         -1.535045382067     0.066626487271    -0.269751981531    12.000000000000
           C         -0.181925382067     0.569146487271    -0.743515981531    12.000000000000
           H         -2.171886382067     0.911944487271    -0.015177981531     1.007825032070
           H         -1.413863382067    -0.535773512729     0.629738018469     1.007825032070
           C          0.977943617933    -0.357189512729    -0.375523981531    12.000000000000
           H         -0.224255382067     0.696824487271    -1.822080981531     1.007825032070
           H         -0.016741382067     1.555734487271    -0.314272981531     1.007825032070
           C          1.256578617933    -0.394835512729     1.128058018469    12.000000000000
           H          1.870066617933    -0.037156512729    -0.903926981531     1.007825032070
           H          0.756092617933    -1.365168512729    -0.724235981531     1.007825032070
           C          1.937627617933     0.874190487271     1.639348018469    12.000000000000
           H          0.320812617933    -0.541685512729     1.663310018469     1.007825032070
           H          1.879196617933    -1.256598512729     1.360770018469     1.007825032070
           H          1.323127617933     1.750151487271     1.452343018469     1.007825032070
           H          2.120672617933     0.820207487271     2.708238018469     1.007825032070
           H          2.893671617933     1.031439487271     1.147653018469     1.007825032070

  Running in c1 symmetry.

  Rotational constants: A =      0.27155  B =      0.05205  C =      0.05128 [cm^-1]
  Rotational constants: A =   8140.86840  B =   1560.56686  C =   1537.18912 [MHz]
  Nuclear repulsion =  254.310982852686749

  Charge       = 0
  Multiplicity = 1
  Electrons    = 50
  Nalpha       = 25
  Nbeta        = 25

  ==> Algorithm <==

  SCF Algorithm Type is DF.
  DIIS enabled.
  MOM disabled.
  Fractional occupation disabled.
  Guess Type is CORE.
  Energy threshold   = 1.00e-06
  Density threshold  = 1.00e-06
  Integral threshold = 0.00e+00

  ==> Primary Basis <==

  Basis Set: 6-31G*
    Number of shells: 60
    Number of basis function: 114
    Number of Cartesian functions: 114
    Spherical Harmonics?: false
    Max angular momentum: 2

  ==> Pre-Iterations <==

   -------------------------------------------------------
    Irrep   Nso     Nmo     Nalpha   Nbeta   Ndocc  Nsocc
   -------------------------------------------------------
     A        114     114       0       0       0       0
   -------------------------------------------------------
    Total     114     114      25      25      25       0
   -------------------------------------------------------

 OEINTS: Overlap, kinetic, potential, dipole, and quadrupole integrals
         stored in file 35.

  ==> Integral Setup <==

  ==> DFJK: Density-Fitted J/K Matrices <==

    J tasked:                  Yes
    K tasked:                  Yes
    wK tasked:                  No
    OpenMP threads:              1
    Integrals threads:           1
    Memory (MB):              1430
    Algorithm:                Core
    Integral Cache:           NONE
    Schwarz Cutoff:          1E-12
    Fitting Condition:       1E-12

   => Auxiliary Basis Set <=

  Basis Set: 
    Number of shells: 252
    Number of basis function: 786
    Number of Cartesian functions: 786
    Spherical Harmonics?: false
    Max angular momentum: 3

  Minimum eigenvalue in the overlap matrix is 4.6556917891E-03.
  Using Symmetric Orthogonalization.
  SCF Guess: Core (One-Electron) Hamiltonian.

  ==> Iterations <==

                           Total Energy        Delta E     RMS |[F,P]|

   @DF-RHF iter   1:  -208.52066430647184   -2.08521e+02   7.37556e-02 
   @DF-RHF iter   2:  -106.06122989884645    1.02459e+02   9.01343e-02 DIIS
   @DF-RHF iter   3:  -230.16037341977940   -1.24099e+02   4.23000e-02 DIIS
   @DF-RHF iter   4:  -175.73846562608472    5.44219e+01   7.23496e-02 DIIS
   @DF-RHF iter   5:  -236.55019147902604   -6.08117e+01   4.22032e-02 DIIS
   @DF-RHF iter   6:  -270.66208685223364   -3.41119e+01   9.11330e-03 DIIS
   @DF-RHF iter   7:  -271.07298630478579   -4.10899e-01   4.25307e-03 DIIS
   @DF-RHF iter   8:  -271.16789384487856   -9.49075e-02   6.45111e-04 DIIS
   @DF-RHF iter   9:  -271.17156858776616   -3.67474e-03   1.73448e-04 DIIS
   @DF-RHF iter  10:  -271.17187988171213   -3.11294e-04   6.85781e-05 DIIS
   @DF-RHF iter  11:  -271.17191925715713   -3.93754e-05   2.37950e-05 DIIS
   @DF-RHF iter  12:  -271.17192501682621   -5.75967e-06   6.00634e-06 DIIS
   @DF-RHF iter  13:  -271.17192538440236   -3.67576e-07   1.98185e-06 DIIS
   @DF-RHF iter  14:  -271.17192543079602   -4.63937e-08   7.16558e-07 DIIS

  ==> Post-Iterations <==

    Orbital Energies (a.u.)
    -----------------------

    Doubly Occupied:                                                      

       1A    -20.551536     2A    -11.266002     3A    -11.214264  
       4A    -11.210602     5A    -11.209987     6A    -11.208322  
       7A     -1.358229     8A     -1.081502     9A     -1.004637  
      10A     -0.915264    11A     -0.840375    12A     -0.764934  
      13A     -0.704598    14A     -0.652618    15A     -0.615671  
      16A     -0.595006    17A     -0.578825    18A     -0.537309  
      19A     -0.524313    20A     -0.523607    21A     -0.494370  
      22A     -0.460262    23A     -0.455900    24A     -0.450068  
      25A     -0.427819  

    Virtual:                                                              

      26A      0.223758    27A      0.242359    28A      0.266937  
      29A      0.272596    30A      0.293338    31A      0.309806  
      32A      0.313715    33A      0.333671    34A      0.346720  
      35A      0.353818    36A      0.366861    37A      0.390257  
      38A      0.396785    39A      0.422469    40A      0.442252  
      41A      0.464916    42A      0.509419    43A      0.709957  
      44A      0.729300    45A      0.737630    46A      0.744602  
      47A      0.768406    48A      0.821573    49A      0.838031  
      50A      0.893320    51A      0.931646    52A      0.951366  
      53A      0.970055    54A      0.989193    55A      1.026868  
      56A      1.075019    57A      1.114701    58A      1.133332  
      59A      1.149929    60A      1.158506    61A      1.170275  
      62A      1.180549    63A      1.191819    64A      1.209595  
      65A      1.228510    66A      1.230857    67A      1.252311  
      68A      1.257426    69A      1.286337    70A      1.297115  
      71A      1.306974    72A      1.334799    73A      1.405156  
      74A      1.515889    75A      1.631457    76A      1.699433  
      77A      1.740243    78A      1.819006    79A      1.858030  
      80A      1.871568    81A      1.928514    82A      2.020584  
      83A      2.068654    84A      2.127726    85A      2.152941  
      86A      2.167842    87A      2.224674    88A      2.254225  
      89A      2.294907    90A      2.365334    91A      2.375980  
      92A      2.427046    93A      2.438055    94A      2.489115  
      95A      2.563981    96A      2.629338    97A      2.650521  
      98A      2.686259    99A      2.726948   100A      2.756253  
     101A      2.816639   102A      2.855931   103A      2.927353  
     104A      2.943607   105A      2.990063   106A      3.033322  
     107A      3.101537   108A      3.237491   109A      4.188867  
     110A      4.561795   111A      4.659960   112A      4.823338  
     113A      4.917936   114A      4.992315  

    Final Occupation by Irrep:
              A 
    DOCC [    25 ]

  Energy converged.

  @DF-RHF Final Energy:  -271.17192543079602

   => Energetics <=

    Nuclear Repulsion Energy =            254.3109828526867489
    One-Electron Energy =                -871.6739801313289036
    Two-Electron Energy =                 346.1910718478455351
    DFT Exchange-Correlation Energy =       0.0000000000000000
    Empirical Dispersion Energy =           0.0000000000000000
    PCM Polarization Energy =               0.0000000000000000
    EFP Energy =                            0.0000000000000000
    Total Energy =                       -271.1719254307966480

    Alert: EFP and PCM quantities not currently incorporated into SCF psivars.

Properties will be evaluated at   0.000000,   0.000000,   0.000000 Bohr
  ==> Properties <==


Properties computed using the SCF density matrix

  Nuclear Dipole Moment: (a.u.)
     X:     4.1044      Y:     1.8595      Z:     3.9107

  Electronic Dipole Moment: (a.u.)
     X:    -4.3625      Y:    -1.8006      Z:    -3.3365

  Dipole Moment: (a.u.)
     X:    -0.2581      Y:     0.0588      Z:     0.5742     Total:     0.6323

  Dipole Moment: (Debye)
     X:    -0.6561      Y:     0.1496      Z:     1.4595     Total:     1.6072


  Saving occupied orbitals to File 180.

*** tstop() called on cx1-3-2-3.cx1.hpc.ic.ac.uk at Tue Jul  5 16:41:03 2016
Module time:
	user time   =       8.70 seconds =       0.14 minutes
	system time =       0.05 seconds =       0.00 minutes
	total time  =         10 seconds =       0.17 minutes
Total time:
	user time   =       8.70 seconds =       0.14 minutes
	system time =       0.05 seconds =       0.00 minutes
	total time  =         10 seconds =       0.17 minutes


Properties will be evaluated at   0.000000,   0.000000,   0.000000 Bohr

Properties computed using the  density matrix

  Nuclear Dipole Moment: (a.u.)
     X:     4.1044      Y:     1.8595      Z:     3.9107

  Electronic Dipole Moment: (a.u.)
     X:    -4.3625      Y:    -1.8006      Z:    -3.3365

  Dipole Moment: (a.u.)
     X:    -0.2581      Y:     0.0588      Z:     0.5742     Total:     0.6323

  Dipole Moment: (Debye)
     X:    -0.6561      Y:     0.1496      Z:     1.4595     Total:     1.6072

  Quadrupole Moment: (Debye Ang)
    XX:   -35.2262     YY:   -39.9444     ZZ:   -43.6228
    XY:     1.0277     XZ:    -2.7553     YZ:    -1.2176

  Traceless Quadrupole Moment: (Debye Ang)
    XX:     4.3716     YY:    -0.3466     ZZ:    -4.0250
    XY:     1.0277     XZ:    -2.7553     YZ:    -1.2176

  Mulliken Charges: (a.u.)
   Center  Symbol    Alpha    Beta     Spin     Total
       1     H     0.28165  0.28165  0.00000  0.43671
       2     O     4.37122  4.37122  0.00000 -0.74245
       3     C     2.99571  2.99571  0.00000  0.00857
       4     C     3.16617  3.16617  0.00000 -0.33233
       5     H     0.43031  0.43031  0.00000  0.13939
       6     H     0.43049  0.43049  0.00000  0.13903
       7     C     3.15986  3.15986  0.00000 -0.31971
       8     H     0.40513  0.40513  0.00000  0.18975
       9     H     0.42201  0.42201  0.00000  0.15597
      10     C     3.15685  3.15685  0.00000 -0.31370
      11     H     0.42049  0.42049  0.00000  0.15902
      12     H     0.41376  0.41376  0.00000  0.17249
      13     C     3.24024  3.24024  0.00000 -0.48048
      14     H     0.42422  0.42422  0.00000  0.15155
      15     H     0.41949  0.41949  0.00000  0.16102
      16     H     0.42197  0.42197  0.00000  0.15606
      17     H     0.41949  0.41949  0.00000  0.16102
      18     H     0.42096  0.42096  0.00000  0.15809

   Total alpha = 25.00000, Total beta = 25.00000, Total charge = -0.00000


*** PSI4 exiting successfully. Buy a developer a beer!
