    -----------------------------------------------------------------------
          Psi4: An Open-Source Ab Initio Electronic Structure Package
                              Psi4 (no tag) Driver

                          Git: Rev {detached?}  

    J. M. Turney, A. C. Simmonett, R. M. Parrish, E. G. Hohenstein,
    F. A. Evangelista, J. T. Fermann, B. J. Mintz, L. A. Burns, J. J. Wilke,
    M. L. Abrams, N. J. Russ, M. L. Leininger, C. L. Janssen, E. T. Seidl,
    W. D. Allen, H. F. Schaefer, R. A. King, E. F. Valeev, C. D. Sherrill,
    and T. D. Crawford, WIREs Comput. Mol. Sci. 2, 556-565 (2012)
    (doi: 10.1002/wcms.93)

                         Additional Contributions by
    A. E. DePrince, M. Saitow, U. Bozkaya, A. Yu. Sokolov
    -----------------------------------------------------------------------


    Psi4 started on: Tue Jul  5 16:41:57 2016

    Process ID:  22569
    PSI4DATADIR: /export131/home/mjharvey/miniconda3/share
    Memory level set to 256.000 MB

  ==> Input File <==

--------------------------------------------------------------------------
set {
	reference rhf
	basis 6-31G*
}


set_num_threads( 1 )
memory 2 gb

molecule MOL {
0 1

H	 2.548937	 -5.580792	 -1.403861
C	 2.408077	 -4.554396	 -1.117957
C	 1.157576	 -4.100031	 -0.712959
C	 3.464258	 -3.667211	 -1.146872
H	 0.322713	 -4.777532	 -0.684245
C	 0.973147	 -2.784637	 -0.345640
H	 4.438612	 -4.000814	 -1.457402
C	 3.294797	 -2.336560	 -0.779301
H	 0.012810	 -2.420599	 -0.030896
C	 2.044290	 -1.894206	 -0.377261
H	 4.135529	 -1.671171	 -0.812375
O	 1.765256	 -0.628444	 0.000000
C	 2.778419	 0.335181	 0.000000
H	 2.731280	 0.961222	 -0.884976
H	 3.711703	 -0.207767	 0.000000
H	 2.731280	 0.961222	 0.884976

	symmetry c1
}
set optking {
	frozen_dihedral = ("
		13 12 10 8
	")
}

ee = energy('scf')
oeprop('DIPOLE', 'QUADRUPOLE', 'MULLIKEN_CHARGES')
f=open( 'psi4out.xyz', 'w' )
f.write( "16  " )
f.write( str(ee) + "\n" )
f.write( MOL.save_string_xyz() )
f.close()
--------------------------------------------------------------------------

  Memory set to   2.000 GiB by Python script.

*** tstart() called on cx1-3-2-1.cx1.hpc.ic.ac.uk
*** at Tue Jul  5 16:41:57 2016


         ---------------------------------------------------------
                                   SCF
            by Justin Turney, Rob Parrish, and Andy Simmonett
                              RHF Reference
                        1 Threads,   2000 MiB Core
         ---------------------------------------------------------

  ==> Geometry <==

    Molecular point group: c1
    Full point group: C1

    Geometry (in Angstrom), charge = 0, multiplicity = 1:

       Center              X                  Y                   Z               Mass       
    ------------   -----------------  -----------------  -----------------  -----------------
           H          0.304981971956    -3.221479730421    -0.865416252283     1.007825032070
           C          0.164121971956    -2.195083730421    -0.579512252283    12.000000000000
           C         -1.086379028044    -1.740718730421    -0.174514252283    12.000000000000
           C          1.220302971956    -1.307898730421    -0.608427252283    12.000000000000
           H         -1.921242028044    -2.418219730421    -0.145800252283     1.007825032070
           C         -1.270808028044    -0.425324730421     0.192804747717    12.000000000000
           H          2.194656971956    -1.641501730421    -0.918957252283     1.007825032070
           C          1.050841971956     0.022752269579    -0.240856252283    12.000000000000
           H         -2.231145028044    -0.061286730421     0.507548747717     1.007825032070
           C         -0.199665028044     0.465106269579     0.161183747717    12.000000000000
           H          1.891573971956     0.688141269579    -0.273930252283     1.007825032070
           O         -0.478699028044     1.730868269579     0.538444747717    15.994914619560
           C          0.534463971956     2.694493269579     0.538444747717    12.000000000000
           H          0.487324971956     3.320534269579    -0.346531252283     1.007825032070
           H          1.467747971956     2.151545269579     0.538444747717     1.007825032070
           H          0.487324971956     3.320534269579     1.423420747717     1.007825032070

  Running in c1 symmetry.

  Rotational constants: A =      0.17189  B =      0.05271  C =      0.04065 [cm^-1]
  Rotational constants: A =   5153.11745  B =   1580.33457  C =   1218.62737 [MHz]
  Nuclear repulsion =  348.435166133236237

  Charge       = 0
  Multiplicity = 1
  Electrons    = 58
  Nalpha       = 29
  Nbeta        = 29

  ==> Algorithm <==

  SCF Algorithm Type is DF.
  DIIS enabled.
  MOM disabled.
  Fractional occupation disabled.
  Guess Type is CORE.
  Energy threshold   = 1.00e-06
  Density threshold  = 1.00e-06
  Integral threshold = 0.00e+00

  ==> Primary Basis <==

  Basis Set: 6-31G*
    Number of shells: 64
    Number of basis function: 136
    Number of Cartesian functions: 136
    Spherical Harmonics?: false
    Max angular momentum: 2

  ==> Pre-Iterations <==

   -------------------------------------------------------
    Irrep   Nso     Nmo     Nalpha   Nbeta   Ndocc  Nsocc
   -------------------------------------------------------
     A        136     136       0       0       0       0
   -------------------------------------------------------
    Total     136     136      29      29      29       0
   -------------------------------------------------------

 OEINTS: Overlap, kinetic, potential, dipole, and quadrupole integrals
         stored in file 35.

  ==> Integral Setup <==

  ==> DFJK: Density-Fitted J/K Matrices <==

    J tasked:                  Yes
    K tasked:                  Yes
    wK tasked:                  No
    OpenMP threads:              1
    Integrals threads:           1
    Memory (MB):              1430
    Algorithm:                Core
    Integral Cache:           NONE
    Schwarz Cutoff:          1E-12
    Fitting Condition:       1E-12

   => Auxiliary Basis Set <=

  Basis Set: 
    Number of shells: 264
    Number of basis function: 848
    Number of Cartesian functions: 848
    Spherical Harmonics?: false
    Max angular momentum: 3

  Minimum eigenvalue in the overlap matrix is 4.4603485165E-04.
  Using Symmetric Orthogonalization.
  SCF Guess: Core (One-Electron) Hamiltonian.

  ==> Iterations <==

                           Total Energy        Delta E     RMS |[F,P]|

   @DF-RHF iter   1:  -265.39607895307171   -2.65396e+02   7.06147e-02 
   @DF-RHF iter   2:  -246.14224981559909    1.92538e+01   5.39004e-02 DIIS
   @DF-RHF iter   3:  -320.26563478915040   -7.41234e+01   3.60634e-02 DIIS
   @DF-RHF iter   4:  -339.48810672608641   -1.92225e+01   2.09562e-02 DIIS
   @DF-RHF iter   5:  -343.38903838173968   -3.90093e+00   1.09561e-02 DIIS
   @DF-RHF iter   6:  -344.51664417595219   -1.12761e+00   2.16119e-03 DIIS
   @DF-RHF iter   7:  -344.56479734664725   -4.81532e-02   7.60133e-04 DIIS
   @DF-RHF iter   8:  -344.57252583418375   -7.72849e-03   2.38235e-04 DIIS
   @DF-RHF iter   9:  -344.57338654940503   -8.60715e-04   8.58176e-05 DIIS
   @DF-RHF iter  10:  -344.57349789592303   -1.11347e-04   2.37676e-05 DIIS
   @DF-RHF iter  11:  -344.57351428339081   -1.63875e-05   9.82711e-06 DIIS
   @DF-RHF iter  12:  -344.57351761156684   -3.32818e-06   4.62599e-06 DIIS
   @DF-RHF iter  13:  -344.57351857698785   -9.65421e-07   1.93439e-06 DIIS
   @DF-RHF iter  14:  -344.57351880579557   -2.28808e-07   6.67271e-07 DIIS

  ==> Post-Iterations <==

    Orbital Energies (a.u.)
    -----------------------

    Doubly Occupied:                                                      

       1A    -20.583729     2A    -11.295995     3A    -11.278208  
       4A    -11.233508     5A    -11.231868     6A    -11.223421  
       7A    -11.218995     8A    -11.218849     9A     -1.414281  
      10A     -1.145947    11A     -1.021800    12A     -1.012877  
      13A     -0.943067    14A     -0.831498    15A     -0.804443  
      16A     -0.724383    17A     -0.665087    18A     -0.661132  
      19A     -0.654218    20A     -0.620920    21A     -0.588856  
      22A     -0.573852    23A     -0.526302    24A     -0.517837  
      25A     -0.511813    26A     -0.470651    27A     -0.461207  
      28A     -0.335125    29A     -0.303880  

    Virtual:                                                              

      30A      0.145727    31A      0.166607    32A      0.237470  
      33A      0.263473    34A      0.288462    35A      0.305803  
      36A      0.313110    37A      0.321871    38A      0.330411  
      39A      0.341959    40A      0.382805    41A      0.403878  
      42A      0.452206    43A      0.482022    44A      0.502309  
      45A      0.538432    46A      0.559322    47A      0.667545  
      48A      0.712120    49A      0.734176    50A      0.753955  
      51A      0.756714    52A      0.767933    53A      0.816830  
      54A      0.832625    55A      0.835070    56A      0.839150  
      57A      0.844050    58A      0.854806    59A      0.866250  
      60A      0.894579    61A      0.919644    62A      0.938324  
      63A      0.984937    64A      1.013604    65A      1.060041  
      66A      1.116714    67A      1.120781    68A      1.123963  
      69A      1.127847    70A      1.144081    71A      1.173469  
      72A      1.187516    73A      1.207190    74A      1.212314  
      75A      1.253465    76A      1.267571    77A      1.299476  
      78A      1.333163    79A      1.352054    80A      1.377436  
      81A      1.441744    82A      1.447541    83A      1.511306  
      84A      1.528738    85A      1.610217    86A      1.637889  
      87A      1.690278    88A      1.715426    89A      1.725991  
      90A      1.749320    91A      1.777971    92A      1.799263  
      93A      1.856549    94A      1.980137    95A      2.066182  
      96A      2.116049    97A      2.135575    98A      2.155790  
      99A      2.198636   100A      2.267940   101A      2.318074  
     102A      2.328212   103A      2.348084   104A      2.409411  
     105A      2.424984   106A      2.448304   107A      2.472923  
     108A      2.495182   109A      2.504091   110A      2.568052  
     111A      2.604535   112A      2.608565   113A      2.652933  
     114A      2.676796   115A      2.755840   116A      2.876382  
     117A      2.894340   118A      2.938265   119A      3.000396  
     120A      3.039040   121A      3.042788   122A      3.105569  
     123A      3.120510   124A      3.147735   125A      3.281923  
     126A      3.373029   127A      3.595124   128A      3.850016  
     129A      4.490767   130A      4.534169   131A      4.550700  
     132A      4.650641   133A      4.744679   134A      4.771584  
     135A      4.881586   136A      5.185489  

    Final Occupation by Irrep:
              A 
    DOCC [    29 ]

  Energy converged.

  @DF-RHF Final Energy:  -344.57351880579557

   => Energetics <=

    Nuclear Repulsion Energy =            348.4351661332362369
    One-Electron Energy =               -1157.8696384154354746
    Two-Electron Energy =                 464.8609534764028126
    DFT Exchange-Correlation Energy =       0.0000000000000000
    Empirical Dispersion Energy =           0.0000000000000000
    PCM Polarization Energy =               0.0000000000000000
    EFP Energy =                            0.0000000000000000
    Total Energy =                       -344.5735188057964820

    Alert: EFP and PCM quantities not currently incorporated into SCF psivars.

Properties will be evaluated at   0.000000,   0.000000,   0.000000 Bohr
  ==> Properties <==


Properties computed using the SCF density matrix

  Nuclear Dipole Moment: (a.u.)
     X:     2.5113      Y:     2.0129      Z:    -0.0736

  Electronic Dipole Moment: (a.u.)
     X:    -2.0003      Y:    -1.8215      Z:     0.0143

  Dipole Moment: (a.u.)
     X:     0.5109      Y:     0.1914      Z:    -0.0593     Total:     0.5488

  Dipole Moment: (Debye)
     X:     1.2987      Y:     0.4864      Z:    -0.1507     Total:     1.3950


  Saving occupied orbitals to File 180.

*** tstop() called on cx1-3-2-1.cx1.hpc.ic.ac.uk at Tue Jul  5 16:42:10 2016
Module time:
	user time   =      12.04 seconds =       0.20 minutes
	system time =       0.08 seconds =       0.00 minutes
	total time  =         13 seconds =       0.22 minutes
Total time:
	user time   =      12.04 seconds =       0.20 minutes
	system time =       0.08 seconds =       0.00 minutes
	total time  =         13 seconds =       0.22 minutes


Properties will be evaluated at   0.000000,   0.000000,   0.000000 Bohr

Properties computed using the  density matrix

  Nuclear Dipole Moment: (a.u.)
     X:     2.5113      Y:     2.0129      Z:    -0.0736

  Electronic Dipole Moment: (a.u.)
     X:    -2.0003      Y:    -1.8215      Z:     0.0143

  Dipole Moment: (a.u.)
     X:     0.5109      Y:     0.1914      Z:    -0.0593     Total:     0.5488

  Dipole Moment: (Debye)
     X:     1.2987      Y:     0.4864      Z:    -0.1507     Total:     1.3950

  Quadrupole Moment: (Debye Ang)
    XX:   -43.7836     YY:   -41.0243     ZZ:   -50.4668
    XY:     3.9741     XZ:    -0.7304     YZ:     1.6679

  Traceless Quadrupole Moment: (Debye Ang)
    XX:     1.3080     YY:     4.0673     ZZ:    -5.3753
    XY:     3.9741     XZ:    -0.7304     YZ:     1.6679

  Mulliken Charges: (a.u.)
   Center  Symbol    Alpha    Beta     Spin     Total
       1     H     0.40143  0.40143  0.00000  0.19714
       2     C     3.11297  3.11297  0.00000 -0.22594
       3     C     3.09098  3.09098  0.00000 -0.18196
       4     C     3.09017  3.09017  0.00000 -0.18034
       5     H     0.39860  0.39860  0.00000  0.20280
       6     C     3.12664  3.12664  0.00000 -0.25327
       7     H     0.39960  0.39960  0.00000  0.20081
       8     C     3.14885  3.14885  0.00000 -0.29770
       9     H     0.39275  0.39275  0.00000  0.21449
      10     C     2.78200  2.78200  0.00000  0.43601
      11     H     0.39413  0.39413  0.00000  0.21174
      12     O     4.32848  4.32848  0.00000 -0.65696
      13     C     3.08183  3.08183  0.00000 -0.16366
      14     H     0.41678  0.41678  0.00000  0.16645
      15     H     0.42461  0.42461  0.00000  0.15078
      16     H     0.41020  0.41020  0.00000  0.17961

   Total alpha = 29.00000, Total beta = 29.00000, Total charge = -0.00000


*** PSI4 exiting successfully. Buy a developer a beer!
