    -----------------------------------------------------------------------
          Psi4: An Open-Source Ab Initio Electronic Structure Package
                              Psi4 (no tag) Driver

                          Git: Rev {detached?}  

    J. M. Turney, A. C. Simmonett, R. M. Parrish, E. G. Hohenstein,
    F. A. Evangelista, J. T. Fermann, B. J. Mintz, L. A. Burns, J. J. Wilke,
    M. L. Abrams, N. J. Russ, M. L. Leininger, C. L. Janssen, E. T. Seidl,
    W. D. Allen, H. F. Schaefer, R. A. King, E. F. Valeev, C. D. Sherrill,
    and T. D. Crawford, WIREs Comput. Mol. Sci. 2, 556-565 (2012)
    (doi: 10.1002/wcms.93)

                         Additional Contributions by
    A. E. DePrince, M. Saitow, U. Bozkaya, A. Yu. Sokolov
    -----------------------------------------------------------------------


    Psi4 started on: Tue Jul  5 16:32:45 2016

    Process ID:  17074
    PSI4DATADIR: /export131/home/mjharvey/miniconda3/share
    Memory level set to 256.000 MB

  ==> Input File <==

--------------------------------------------------------------------------
set {
	reference rhf
	basis 6-31G*
}


set_num_threads( 1 )
memory 2 gb

molecule MOL {
0 1

O	 -0.682937	 1.318834	 -0.186099
C	 -0.860635	 0.152188	 -0.042321
C	 -2.173363	 -0.477127	 0.338347
O	 0.083258	 -0.765189	 -0.202595
H	 -2.477673	 -1.180929	 -0.427595
H	 -2.923125	 0.290956	 0.455536
H	 -2.058825	 -1.029004	 1.264191
C	 1.391937	 -0.334737	 -0.569838
C	 2.323056	 -1.512130	 -0.792124
H	 1.773636	 0.329182	 0.190858
H	 1.247255	 0.222590	 -1.484143
H	 3.286992	 -1.156756	 -1.143220
H	 2.477741	 -2.060885	 0.128369
H	 1.915486	 -2.185107	 -1.538718

	symmetry c1
}
set optking {
	frozen_dihedral = ("
		8 4 2 1
	")
}

ee = energy('scf')
oeprop('DIPOLE', 'QUADRUPOLE', 'MULLIKEN_CHARGES')
f=open( 'psi4out.xyz', 'w' )
f.write( "14  " )
f.write( str(ee) + "\n" )
f.write( MOL.save_string_xyz() )
f.close()
--------------------------------------------------------------------------

  Memory set to   2.000 GiB by Python script.

*** tstart() called on cx1-1-2-4.cx1.hpc.ic.ac.uk
*** at Tue Jul  5 16:32:46 2016


         ---------------------------------------------------------
                                   SCF
            by Justin Turney, Rob Parrish, and Andy Simmonett
                              RHF Reference
                        1 Threads,   2000 MiB Core
         ---------------------------------------------------------

  ==> Geometry <==

    Molecular point group: c1
    Full point group: C1

    Geometry (in Angstrom), charge = 0, multiplicity = 1:

       Center              X                  Y                   Z               Mass       
    ------------   -----------------  -----------------  -----------------  -----------------
           O         -0.703912881599     1.591729316261     0.059017145555    15.994914619560
           C         -0.881610881599     0.425083316261     0.202795145555    12.000000000000
           C         -2.194338881599    -0.204231683739     0.583463145555    12.000000000000
           O          0.062282118401    -0.492293683739     0.042521145555    15.994914619560
           H         -2.498648881599    -0.908033683739    -0.182478854445     1.007825032070
           H         -2.944100881599     0.563851316261     0.700652145555     1.007825032070
           H         -2.079800881599    -0.756108683739     1.509307145555     1.007825032070
           C          1.370961118401    -0.061841683739    -0.324721854445    12.000000000000
           C          2.302080118401    -1.239234683739    -0.547007854445    12.000000000000
           H          1.752660118401     0.602077316261     0.435974145555     1.007825032070
           H          1.226279118401     0.495485316261    -1.239026854445     1.007825032070
           H          3.266016118401    -0.883860683739    -0.898103854445     1.007825032070
           H          2.456765118401    -1.787989683739     0.373485145555     1.007825032070
           H          1.894510118401    -1.912211683739    -1.293601854445     1.007825032070

  Running in c1 symmetry.

  Rotational constants: A =      0.29039  B =      0.06891  C =      0.05748 [cm^-1]
  Rotational constants: A =   8705.64298  B =   2065.75409  C =   1723.12383 [MHz]
  Nuclear repulsion =  244.785875290663057

  Charge       = 0
  Multiplicity = 1
  Electrons    = 48
  Nalpha       = 24
  Nbeta        = 24

  ==> Algorithm <==

  SCF Algorithm Type is DF.
  DIIS enabled.
  MOM disabled.
  Fractional occupation disabled.
  Guess Type is CORE.
  Energy threshold   = 1.00e-06
  Density threshold  = 1.00e-06
  Integral threshold = 0.00e+00

  ==> Primary Basis <==

  Basis Set: 6-31G*
    Number of shells: 52
    Number of basis function: 106
    Number of Cartesian functions: 106
    Spherical Harmonics?: false
    Max angular momentum: 2

  ==> Pre-Iterations <==

   -------------------------------------------------------
    Irrep   Nso     Nmo     Nalpha   Nbeta   Ndocc  Nsocc
   -------------------------------------------------------
     A        106     106       0       0       0       0
   -------------------------------------------------------
    Total     106     106      24      24      24       0
   -------------------------------------------------------

 OEINTS: Overlap, kinetic, potential, dipole, and quadrupole integrals
         stored in file 35.

  ==> Integral Setup <==

  ==> DFJK: Density-Fitted J/K Matrices <==

    J tasked:                  Yes
    K tasked:                  Yes
    wK tasked:                  No
    OpenMP threads:              1
    Integrals threads:           1
    Memory (MB):              1430
    Algorithm:                Core
    Integral Cache:           NONE
    Schwarz Cutoff:          1E-12
    Fitting Condition:       1E-12

   => Auxiliary Basis Set <=

  Basis Set: 
    Number of shells: 216
    Number of basis function: 686
    Number of Cartesian functions: 686
    Spherical Harmonics?: false
    Max angular momentum: 3

  Minimum eigenvalue in the overlap matrix is 3.8555085880E-03.
  Using Symmetric Orthogonalization.
  SCF Guess: Core (One-Electron) Hamiltonian.

  ==> Iterations <==

                           Total Energy        Delta E     RMS |[F,P]|

   @DF-RHF iter   1:  -234.23504913075840   -2.34235e+02   8.21408e-02 
   @DF-RHF iter   2:  -194.89027064779009    3.93448e+01   6.10032e-02 DIIS
   @DF-RHF iter   3:  -269.90682063686916   -7.50165e+01   5.59986e-02 DIIS
   @DF-RHF iter   4:  -290.45490273638814   -2.05481e+01   3.51118e-02 DIIS
   @DF-RHF iter   5:  -305.17042527063848   -1.47155e+01   1.08608e-02 DIIS
   @DF-RHF iter   6:  -305.80161393460367   -6.31189e-01   3.47739e-03 DIIS
   @DF-RHF iter   7:  -305.86901466602865   -6.74007e-02   7.80869e-04 DIIS
   @DF-RHF iter   8:  -305.87340320167061   -4.38854e-03   3.74958e-04 DIIS
   @DF-RHF iter   9:  -305.87424224025347   -8.39039e-04   1.43088e-04 DIIS
   @DF-RHF iter  10:  -305.87449025748003   -2.48017e-04   5.76092e-05 DIIS
   @DF-RHF iter  11:  -305.87452882197283   -3.85645e-05   2.33009e-05 DIIS
   @DF-RHF iter  12:  -305.87453482253329   -6.00056e-06   8.09998e-06 DIIS
   @DF-RHF iter  13:  -305.87453565687656   -8.34343e-07   1.97004e-06 DIIS
   @DF-RHF iter  14:  -305.87453570376249   -4.68859e-08   4.14593e-07 DIIS

  ==> Post-Iterations <==

    Orbital Energies (a.u.)
    -----------------------

    Doubly Occupied:                                                      

       1A    -20.600626     2A    -20.544024     3A    -11.374968  
       4A    -11.285824     5A    -11.232876     6A    -11.225794  
       7A     -1.466432     8A     -1.361805     9A     -1.057385  
      10A     -1.000901    11A     -0.873741    12A     -0.776862  
      13A     -0.689661    14A     -0.687822    15A     -0.665375  
      16A     -0.612018    17A     -0.580471    18A     -0.565552  
      19A     -0.554470    20A     -0.544485    21A     -0.506158  
      22A     -0.500238    23A     -0.451627    24A     -0.438802  

    Virtual:                                                              

      25A      0.199524    26A      0.239777    27A      0.257464  
      28A      0.295330    29A      0.299531    30A      0.302379  
      31A      0.316189    32A      0.327954    33A      0.353391  
      34A      0.361440    35A      0.403668    36A      0.420648  
      37A      0.502785    38A      0.550740    39A      0.728046  
      40A      0.732075    41A      0.741866    42A      0.747934  
      43A      0.757106    44A      0.811093    45A      0.813941  
      46A      0.837884    47A      0.922216    48A      0.941112  
      49A      0.962337    50A      0.998234    51A      1.072076  
      52A      1.104118    53A      1.122427    54A      1.136134  
      55A      1.161137    56A      1.174553    57A      1.186566  
      58A      1.194695    59A      1.201994    60A      1.225443  
      61A      1.241476    62A      1.296067    63A      1.358511  
      64A      1.401960    65A      1.427078    66A      1.494630  
      67A      1.620459    68A      1.641594    69A      1.650510  
      70A      1.741709    71A      1.790304    72A      1.820369  
      73A      1.945866    74A      1.988126    75A      2.027109  
      76A      2.080303    77A      2.102671    78A      2.180237  
      79A      2.201113    80A      2.210285    81A      2.293934  
      82A      2.298864    83A      2.375485    84A      2.440971  
      85A      2.488270    86A      2.507050    87A      2.509881  
      88A      2.581276    89A      2.666860    90A      2.680958  
      91A      2.689532    92A      2.732162    93A      2.837302  
      94A      2.968426    95A      2.998937    96A      3.061352  
      97A      3.163323    98A      3.347229    99A      3.417048  
     100A      3.568115   101A      4.418918   102A      4.526708  
     103A      4.595234   104A      4.637668   105A      4.822664  
     106A      4.906300  

    Final Occupation by Irrep:
              A 
    DOCC [    24 ]

  Energy converged.

  @DF-RHF Final Energy:  -305.87453570376249

   => Energetics <=

    Nuclear Repulsion Energy =            244.7858752906630571
    One-Electron Energy =                -902.1249273499655601
    Two-Electron Energy =                 351.4645163555404679
    DFT Exchange-Correlation Energy =       0.0000000000000000
    Empirical Dispersion Energy =           0.0000000000000000
    PCM Polarization Energy =               0.0000000000000000
    EFP Energy =                            0.0000000000000000
    Total Energy =                       -305.8745357037620352

    Alert: EFP and PCM quantities not currently incorporated into SCF psivars.

Properties will be evaluated at   0.000000,   0.000000,   0.000000 Bohr
  ==> Properties <==


Properties computed using the SCF density matrix

  Nuclear Dipole Moment: (a.u.)
     X:     2.8784      Y:    -4.2947      Z:    -0.5562

  Electronic Dipole Moment: (a.u.)
     X:    -2.6763      Y:     3.4496      Z:     0.5722

  Dipole Moment: (a.u.)
     X:     0.2021      Y:    -0.8451      Z:     0.0161     Total:     0.8691

  Dipole Moment: (Debye)
     X:     0.5137      Y:    -2.1481      Z:     0.0408     Total:     2.2090


  Saving occupied orbitals to File 180.

*** tstop() called on cx1-1-2-4.cx1.hpc.ic.ac.uk at Tue Jul  5 16:32:52 2016
Module time:
	user time   =       5.66 seconds =       0.09 minutes
	system time =       0.03 seconds =       0.00 minutes
	total time  =          6 seconds =       0.10 minutes
Total time:
	user time   =       5.66 seconds =       0.09 minutes
	system time =       0.03 seconds =       0.00 minutes
	total time  =          6 seconds =       0.10 minutes


Properties will be evaluated at   0.000000,   0.000000,   0.000000 Bohr

Properties computed using the  density matrix

  Nuclear Dipole Moment: (a.u.)
     X:     2.8784      Y:    -4.2947      Z:    -0.5562

  Electronic Dipole Moment: (a.u.)
     X:    -2.6763      Y:     3.4496      Z:     0.5722

  Dipole Moment: (a.u.)
     X:     0.2021      Y:    -0.8451      Z:     0.0161     Total:     0.8691

  Dipole Moment: (Debye)
     X:     0.5137      Y:    -2.1481      Z:     0.0408     Total:     2.2090

  Quadrupole Moment: (Debye Ang)
    XX:   -30.6167     YY:   -43.0465     ZZ:   -35.0523
    XY:     1.8209     XZ:    -1.3169     YZ:     0.1896

  Traceless Quadrupole Moment: (Debye Ang)
    XX:     5.6218     YY:    -6.8080     ZZ:     1.1862
    XY:     1.8209     XZ:    -1.3169     YZ:     0.1896

  Mulliken Charges: (a.u.)
   Center  Symbol    Alpha    Beta     Spin     Total
       1     O     4.28322  4.28322  0.00000 -0.56643
       2     C     2.62000  2.62000  0.00000  0.76001
       3     C     3.28109  3.28109  0.00000 -0.56218
       4     O     4.30957  4.30957  0.00000 -0.61914
       5     H     0.40071  0.40071  0.00000  0.19858
       6     H     0.39710  0.39710  0.00000  0.20581
       7     H     0.40059  0.40059  0.00000  0.19882
       8     C     2.99958  2.99958  0.00000  0.00084
       9     C     3.24956  3.24956  0.00000 -0.49912
      10     H     0.41044  0.41044  0.00000  0.17912
      11     H     0.41084  0.41084  0.00000  0.17831
      12     H     0.41394  0.41394  0.00000  0.17213
      13     H     0.41202  0.41202  0.00000  0.17597
      14     H     0.41136  0.41136  0.00000  0.17728

   Total alpha = 24.00000, Total beta = 24.00000, Total charge = -0.00000


*** PSI4 exiting successfully. Buy a developer a beer!
