
    -----------------------------------------------------------------------
          Psi4: An Open-Source Ab Initio Electronic Structure Package
                               Psi4 1.1 release

                         Git: Rev {HEAD} add49b9 


    R. M. Parrish, L. A. Burns, D. G. A. Smith, A. C. Simmonett,
    A. E. DePrince III, E. G. Hohenstein, U. Bozkaya, A. Yu. Sokolov,
    R. Di Remigio, R. M. Richard, J. F. Gonthier, A. M. James,
    H. R. McAlexander, A. Kumar, M. Saitow, X. Wang, B. P. Pritchard,
    P. Verma, H. F. Schaefer III, K. Patkowski, R. A. King, E. F. Valeev,
    F. A. Evangelista, J. M. Turney, T. D. Crawford, and C. D. Sherrill,
    J. Chem. Theory Comput. in press (2017).
    (doi: 10.1021/acs.jctc.7b00174)

    -----------------------------------------------------------------------


    Psi4 started on: Tuesday, 12 December 2017 11:17AM

    Process ID:  26574
    PSIDATADIR: /shared/raimis/opt/miniconda/envs/htmd/share/psi4
    Memory:     500.0 MiB
    Threads:    1
    
  ==> Input File <==

--------------------------------------------------------------------------
set_num_threads(1)
set_memory(4203741184)

set { reference rks }
set { basis cc-pVDZ }

molecule MOL {
    0 1
    noreorient
    nocom
    symmetry c1
    O    1.050400   0.042900  -0.048100
    C    2.474100   0.047400  -0.029000
    C    3.002600  -1.068900  -0.932000
    N    2.747621  -2.396075  -0.374243
    H    0.760400   0.728400   0.578000
    H    2.809900  -0.097900   1.003200
    H    2.817400   1.026800  -0.378600
    H    4.078583  -0.936668  -1.094831
    H    2.531287  -0.990321  -1.918279
    H    3.284514  -2.509970   0.484974
    H    3.105329  -3.098270  -1.021713
}

set optking { frozen_dihedral = (" 1 2 3 4 ") }

energy, wfn = energy('B3LYP-D3', return_wfn=True)

import os
os.chdir(os.environ['HTMD_PSI4_WORKDIR'])

oeprop(wfn, 'DIPOLE', 'QUADRUPOLE', 'MULLIKEN_CHARGES')

with open('psi4out.xyz', 'w') as f:
    f.write('11 ' )
    f.write('%.12f\n' % energy)
    f.write(MOL.save_string_xyz())
--------------------------------------------------------------------------
  Threads set to 1 by Python driver.

  Memory set to   3.915 GiB by Python driver.

*** tstart() called on computer06
*** at Tue Dec 12 11:17:03 2017

   => Loading Basis Set <=

    Name: CC-PVDZ
    Role: ORBITAL
    Keyword: BASIS
    atoms 1    entry O          line   190 file /shared/raimis/opt/miniconda/envs/htmd/share/psi4/basis/cc-pvdz.gbs 
    atoms 2-3  entry C          line   130 file /shared/raimis/opt/miniconda/envs/htmd/share/psi4/basis/cc-pvdz.gbs 
    atoms 4    entry N          line   160 file /shared/raimis/opt/miniconda/envs/htmd/share/psi4/basis/cc-pvdz.gbs 
    atoms 5-11 entry H          line    20 file /shared/raimis/opt/miniconda/envs/htmd/share/psi4/basis/cc-pvdz.gbs 


         ---------------------------------------------------------
                                   SCF
            by Justin Turney, Rob Parrish, and Andy Simmonett
                              RKS Reference
                        1 Threads,   4009 MiB Core
         ---------------------------------------------------------

  ==> Geometry <==

    Molecular point group: c1
    Full point group: C1

    Geometry (in Angstrom), charge = 0, multiplicity = 1:

       Center              X                  Y                   Z               Mass       
    ------------   -----------------  -----------------  -----------------  -----------------
           O          1.050400000000     0.042900000000    -0.048100000000    15.994914619560
           C          2.474100000000     0.047400000000    -0.029000000000    12.000000000000
           C          3.002600000000    -1.068900000000    -0.932000000000    12.000000000000
           N          2.747621000000    -2.396075000000    -0.374243000000    14.003074004780
           H          0.760400000000     0.728400000000     0.578000000000     1.007825032070
           H          2.809900000000    -0.097900000000     1.003200000000     1.007825032070
           H          2.817400000000     1.026800000000    -0.378600000000     1.007825032070
           H          4.078583000000    -0.936668000000    -1.094831000000     1.007825032070
           H          2.531287000000    -0.990321000000    -1.918279000000     1.007825032070
           H          3.284514000000    -2.509970000000     0.484974000000     1.007825032070
           H          3.105329000000    -3.098270000000    -1.021713000000     1.007825032070

  Running in c1 symmetry.

  Rotational constants: A =      0.31227  B =      0.03704  C =      0.03446 [cm^-1]
  Rotational constants: A =   9361.58085  B =   1110.34080  C =   1033.13796 [MHz]
  Nuclear repulsion =  132.279096112204655

  Charge       = 0
  Multiplicity = 1
  Electrons    = 34
  Nalpha       = 17
  Nbeta        = 17

  ==> Algorithm <==

  SCF Algorithm Type is DF.
  DIIS enabled.
  MOM disabled.
  Fractional occupation disabled.
  Guess Type is SAD.
  Energy threshold   = 1.00e-06
  Density threshold  = 1.00e-06
  Integral threshold = 0.00e+00

  ==> Primary Basis <==

  Basis Set: CC-PVDZ
    Blend: CC-PVDZ
    Number of shells: 45
    Number of basis function: 91
    Number of Cartesian functions: 95
    Spherical Harmonics?: true
    Max angular momentum: 2

  ==> DFT Potential <==

   => B3LYP Composite Functional <= 

    B3LYP Hybrid-GGA Exchange-Correlation Functional (VWN1-RPA)

    P.J. Stephens et. al., J. Phys. Chem., 98, 11623-11627, 1994

    Points   =           5000
    Deriv    =              1
    GGA      =           TRUE
    Meta     =          FALSE

    X_LRC        =          FALSE
    X_Hybrid     =           TRUE
    X_Alpha      =   2.000000E-01
    X_Omega      =   0.000000E+00
    C_LRC        =          FALSE
    C_Hybrid     =          FALSE
    C_Alpha      =   0.000000E+00
    C_Omega      =   0.000000E+00

   => Exchange Functionals <=

    0.8000    B3_X
    0.2000      HF 

   => Correlation Functionals <=

    0.1900 VWN3RPA_C
    0.8100   LYP_C

   => Molecular Quadrature <=

    Radial Scheme    =       TREUTLER
    Pruning Scheme   =           FLAT
    Nuclear Scheme   =       TREUTLER

    BS radius alpha  =              1
    Pruning alpha    =              1
    Radial Points    =             75
    Spherical Points =            302
    Total Points     =         245105
    Total Blocks     =            225
    Max Points       =           4927
    Max Functions    =             91

   => -D3ZERO: Empirical Dispersion <=

    Grimme's -D3 (zero-damping) Dispersion Correction
    Grimme S.; Antony J.; Ehrlich S.; Krieg H. (2010), J. Chem. Phys., 132: 154104

        S6 =   1.000000E+00
        S8 =   1.703000E+00
       SR6 =   1.261000E+00
    ALPHA6 =   1.400000E+01

   => Loading Basis Set <=

    Name: (CC-PVDZ AUX)
    Role: JKFIT
    Keyword: DF_BASIS_SCF
    atoms 1    entry O          line   220 file /shared/raimis/opt/miniconda/envs/htmd/share/psi4/basis/cc-pvdz-jkfit.gbs 
    atoms 2-3  entry C          line   120 file /shared/raimis/opt/miniconda/envs/htmd/share/psi4/basis/cc-pvdz-jkfit.gbs 
    atoms 4    entry N          line   170 file /shared/raimis/opt/miniconda/envs/htmd/share/psi4/basis/cc-pvdz-jkfit.gbs 
    atoms 5-11 entry H          line    50 file /shared/raimis/opt/miniconda/envs/htmd/share/psi4/basis/cc-pvdz-jkfit.gbs 

  ==> Pre-Iterations <==

   -------------------------------------------------------
    Irrep   Nso     Nmo     Nalpha   Nbeta   Ndocc  Nsocc
   -------------------------------------------------------
     A         91      91       0       0       0       0
   -------------------------------------------------------
    Total      91      91      17      17      17       0
   -------------------------------------------------------

  ==> Integral Setup <==

  ==> DFJK: Density-Fitted J/K Matrices <==

    J tasked:                  Yes
    K tasked:                  Yes
    wK tasked:                  No
    OpenMP threads:              1
    Integrals threads:           1
    Memory (MB):              3006
    Algorithm:                Core
    Integral Cache:           NONE
    Schwarz Cutoff:          1E-12
    Fitting Condition:       1E-12

   => Auxiliary Basis Set <=

  Basis Set: (CC-PVDZ AUX)
    Blend: CC-PVDZ-JKFIT
    Number of shells: 159
    Number of basis function: 441
    Number of Cartesian functions: 499
    Spherical Harmonics?: true
    Max angular momentum: 3

  Minimum eigenvalue in the overlap matrix is 4.8882492515E-03.
  Using Symmetric Orthogonalization.

  SCF Guess: Superposition of Atomic Densities via on-the-fly atomic UHF.

  ==> Iterations <==

                           Total Energy        Delta E     RMS |[F,P]|

   @DF-RKS iter   0:  -210.92645445625678   -2.10926e+02   3.73060e-02 
   @DF-RKS iter   1:  -210.24575819321524    6.80696e-01   6.32333e-03 
   @DF-RKS iter   2:  -210.10920202775691    1.36556e-01   9.14845e-03 DIIS
   @DF-RKS iter   3:  -210.38732080440508   -2.78119e-01   6.27146e-04 DIIS
   @DF-RKS iter   4:  -210.38836384063455   -1.04304e-03   3.45431e-04 DIIS
   @DF-RKS iter   5:  -210.38880611113129   -4.42270e-04   5.72906e-05 DIIS
   @DF-RKS iter   6:  -210.38881837502205   -1.22639e-05   1.24094e-05 DIIS
   @DF-RKS iter   7:  -210.38881886109183   -4.86070e-07   4.70857e-06 DIIS
   @DF-RKS iter   8:  -210.38881893954630   -7.84545e-08   6.14895e-07 DIIS

  ==> Post-Iterations <==

    Orbital Energies (a.u.)
    -----------------------

    Doubly Occupied:                                                      

       1A    -19.120990     2A    -14.298498     3A    -10.224788  
       4A    -10.202991     5A     -1.004569     6A     -0.871923  
       7A     -0.713695     8A     -0.595517     9A     -0.506351  
      10A     -0.484711    11A     -0.448633    12A     -0.408424  
      13A     -0.387550    14A     -0.369983    15A     -0.318418  
      16A     -0.257668    17A     -0.224401  

    Virtual:                                                              

      18A      0.049582    19A      0.074081    20A      0.100596  
      21A      0.107378    22A      0.137103    23A      0.141960  
      24A      0.158830    25A      0.208543    26A      0.226453  
      27A      0.251626    28A      0.439471    29A      0.471834  
      30A      0.495258    31A      0.504235    32A      0.548055  
      33A      0.558906    34A      0.608753    35A      0.622126  
      36A      0.641852    37A      0.651090    38A      0.667809  
      39A      0.682685    40A      0.700122    41A      0.818570  
      42A      0.845345    43A      0.865608    44A      0.918565  
      45A      0.968543    46A      0.997834    47A      1.008178  
      48A      1.065152    49A      1.185612    50A      1.200658  
      51A      1.219566    52A      1.288910    53A      1.315025  
      54A      1.359721    55A      1.446388    56A      1.489055  
      57A      1.542352    58A      1.580851    59A      1.602852  
      60A      1.614167    61A      1.635006    62A      1.668351  
      63A      1.695446    64A      1.725659    65A      1.737560  
      66A      1.776860    67A      1.852738    68A      1.899077  
      69A      1.923191    70A      1.941814    71A      1.974584  
      72A      2.024378    73A      2.035180    74A      2.129188  
      75A      2.190404    76A      2.205843    77A      2.314510  
      78A      2.369125    79A      2.398961    80A      2.457227  
      81A      2.477678    82A      2.546217    83A      2.611143  
      84A      2.680265    85A      2.828879    86A      2.972452  
      87A      3.025237    88A      3.053862    89A      3.117111  
      90A      3.210619    91A      3.704756  

    Final Occupation by Irrep:
              A 
    DOCC [    17 ]

  Energy converged.

  @DF-RKS Final Energy:  -210.38881893954630

   => Energetics <=

    Nuclear Repulsion Energy =            132.2790961122046554
    One-Electron Energy =                -547.5762259433356576
    Two-Electron Energy =                 228.3986109867671530
    DFT Exchange-Correlation Energy =     -23.4853328651824711
    Empirical Dispersion Energy =          -0.0049672300000000
    PCM Polarization Energy =               0.0000000000000000
    EFP Energy =                            0.0000000000000000
    Total Energy =                       -210.3888189395462973



Properties will be evaluated at   0.000000,   0.000000,   0.000000 Bohr

Properties computed using the SCF density matrix

  Nuclear Dipole Moment: (a.u.)
     X:   150.9592      Y:   -53.7367      Z:   -21.0095

  Electronic Dipole Moment: (a.u.)
     X:  -150.1884      Y:    54.0789      Z:    21.2775

  Dipole Moment: (a.u.)
     X:     0.7708      Y:     0.3422      Z:     0.2680     Total:     0.8849

  Dipole Moment: (Debye)
     X:     1.9592      Y:     0.8698      Z:     0.6812     Total:     2.2492


*** tstop() called on computer06 at Tue Dec 12 11:17:27 2017
Module time:
	user time   =      22.95 seconds =       0.38 minutes
	system time =       0.24 seconds =       0.00 minutes
	total time  =         24 seconds =       0.40 minutes
Total time:
	user time   =      22.95 seconds =       0.38 minutes
	system time =       0.24 seconds =       0.00 minutes
	total time  =         24 seconds =       0.40 minutes


Properties will be evaluated at   0.000000,   0.000000,   0.000000 Bohr

Properties computed using the  density matrix

  Nuclear Dipole Moment: (a.u.)
     X:   150.9592      Y:   -53.7367      Z:   -21.0095

  Electronic Dipole Moment: (a.u.)
     X:  -150.1884      Y:    54.0789      Z:    21.2775

  Dipole Moment: (a.u.)
     X:     0.7708      Y:     0.3422      Z:     0.2680     Total:     0.8849

  Dipole Moment: (Debye)
     X:     1.9592      Y:     0.8698      Z:     0.6812     Total:     2.2492

  Quadrupole Moment: (Debye Ang)
    XX:   -16.8010     YY:   -23.6072     ZZ:   -23.5474
    XY:    -3.5873     XZ:    -0.2111     YZ:     1.6771

  Traceless Quadrupole Moment: (Debye Ang)
    XX:     4.5175     YY:    -2.2886     ZZ:    -2.2289
    XY:    -3.5873     XZ:    -0.2111     YZ:     1.6771

  Mulliken Charges: (a.u.)
   Center  Symbol    Alpha    Beta     Spin     Total
       1     O     4.13487  4.13487  0.00000 -0.26973
       2     C     2.92656  2.92656  0.00000  0.14687
       3     C     2.97950  2.97950  0.00000  0.04100
       4     N     3.58639  3.58639  0.00000 -0.17278
       5     H     0.43257  0.43257  0.00000  0.13485
       6     H     0.50525  0.50525  0.00000 -0.01050
       7     H     0.50387  0.50387  0.00000 -0.00774
       8     H     0.50776  0.50776  0.00000 -0.01553
       9     H     0.48902  0.48902  0.00000  0.02195
      10     H     0.46782  0.46782  0.00000  0.06436
      11     H     0.46638  0.46638  0.00000  0.06725

   Total alpha = 17.00000, Total beta = 17.00000, Total charge =  0.00000


*** Psi4 exiting successfully. Buy a developer a beer!
