    -----------------------------------------------------------------------
          Psi4: An Open-Source Ab Initio Electronic Structure Package
                              Psi4 (no tag) Driver

                          Git: Rev {detached?}  

    J. M. Turney, A. C. Simmonett, R. M. Parrish, E. G. Hohenstein,
    F. A. Evangelista, J. T. Fermann, B. J. Mintz, L. A. Burns, J. J. Wilke,
    M. L. Abrams, N. J. Russ, M. L. Leininger, C. L. Janssen, E. T. Seidl,
    W. D. Allen, H. F. Schaefer, R. A. King, E. F. Valeev, C. D. Sherrill,
    and T. D. Crawford, WIREs Comput. Mol. Sci. 2, 556-565 (2012)
    (doi: 10.1002/wcms.93)

                         Additional Contributions by
    A. E. DePrince, M. Saitow, U. Bozkaya, A. Yu. Sokolov
    -----------------------------------------------------------------------


    Psi4 started on: Tue Jul  5 16:24:04 2016

    Process ID:  16409
    PSI4DATADIR: /export131/home/mjharvey/miniconda3/share
    Memory level set to 256.000 MB

  ==> Input File <==

--------------------------------------------------------------------------
set {
	reference rhf
	basis 6-31G*
}


set_num_threads( 1 )
memory 2 gb

molecule MOL {
0 1

H	 0.763062	 1.781470	 0.242629
O	 0.055946	 1.300438	 -0.164479
C	 0.004957	 -0.004114	 0.366649
C	 1.201664	 -0.828089	 -0.095740
C	 -1.317755	 -0.601827	 -0.081511
H	 0.013527	 0.048298	 1.454924
H	 1.216388	 -0.895289	 -1.178704
H	 2.135132	 -0.372895	 0.226467
H	 1.166770	 -1.832878	 0.313827
H	 -1.355732	 -0.658248	 -1.164429
H	 -2.141614	 0.017037	 0.254547
H	 -1.447303	 -1.600817	 0.322594

	symmetry c1
}
ee = energy('scf')
oeprop('DIPOLE', 'QUADRUPOLE', 'MULLIKEN_CHARGES')
f=open( 'psi4out.xyz', 'w' )
f.write( "12  " )
f.write( str(ee) + "\n" )
f.write( MOL.save_string_xyz() )
f.close()
--------------------------------------------------------------------------

  Memory set to   2.000 GiB by Python script.

*** tstart() called on cx1-3-15-4.cx1.hpc.ic.ac.uk
*** at Tue Jul  5 16:24:04 2016


         ---------------------------------------------------------
                                   SCF
            by Justin Turney, Rob Parrish, and Andy Simmonett
                              RHF Reference
                        1 Threads,   2000 MiB Core
         ---------------------------------------------------------

  ==> Geometry <==

    Molecular point group: c1
    Full point group: C1

    Geometry (in Angstrom), charge = 0, multiplicity = 1:

       Center              X                  Y                   Z               Mass       
    ------------   -----------------  -----------------  -----------------  -----------------
           H          0.764490396528     1.780617135528     0.240672613376     1.007825032070
           O          0.057374396528     1.299585135528    -0.166435386624    15.994914619560
           C          0.006385396528    -0.004966864472     0.364692613376    12.000000000000
           C          1.203092396528    -0.828941864472    -0.097696386624    12.000000000000
           C         -1.316326603472    -0.602679864472    -0.083467386624    12.000000000000
           H          0.014955396528     0.047445135528     1.452967613376     1.007825032070
           H          1.217816396528    -0.896141864472    -1.180660386624     1.007825032070
           H          2.136560396528    -0.373747864472     0.224510613376     1.007825032070
           H          1.168198396528    -1.833730864472     0.311870613376     1.007825032070
           H         -1.354303603472    -0.659100864472    -1.166385386624     1.007825032070
           H         -2.140185603472     0.016184135528     0.252590613376     1.007825032070
           H         -1.445874603472    -1.601669864472     0.320637613376     1.007825032070

  Running in c1 symmetry.

  Rotational constants: A =      0.29278  B =      0.26987  C =      0.16049 [cm^-1]
  Rotational constants: A =   8777.29795  B =   8090.38727  C =   4811.37872 [MHz]
  Nuclear repulsion =  135.501367654583902

  Charge       = 0
  Multiplicity = 1
  Electrons    = 34
  Nalpha       = 17
  Nbeta        = 17

  ==> Algorithm <==

  SCF Algorithm Type is DF.
  DIIS enabled.
  MOM disabled.
  Fractional occupation disabled.
  Guess Type is CORE.
  Energy threshold   = 1.00e-06
  Density threshold  = 1.00e-06
  Integral threshold = 0.00e+00

  ==> Primary Basis <==

  Basis Set: 6-31G*
    Number of shells: 40
    Number of basis function: 76
    Number of Cartesian functions: 76
    Spherical Harmonics?: false
    Max angular momentum: 2

  ==> Pre-Iterations <==

   -------------------------------------------------------
    Irrep   Nso     Nmo     Nalpha   Nbeta   Ndocc  Nsocc
   -------------------------------------------------------
     A         76      76       0       0       0       0
   -------------------------------------------------------
    Total      76      76      17      17      17       0
   -------------------------------------------------------

 OEINTS: Overlap, kinetic, potential, dipole, and quadrupole integrals
         stored in file 35.

  ==> Integral Setup <==

  ==> DFJK: Density-Fitted J/K Matrices <==

    J tasked:                  Yes
    K tasked:                  Yes
    wK tasked:                  No
    OpenMP threads:              1
    Integrals threads:           1
    Memory (MB):              1430
    Algorithm:                Core
    Integral Cache:           NONE
    Schwarz Cutoff:          1E-12
    Fitting Condition:       1E-12

   => Auxiliary Basis Set <=

  Basis Set: 
    Number of shells: 168
    Number of basis function: 524
    Number of Cartesian functions: 524
    Spherical Harmonics?: false
    Max angular momentum: 3

  Minimum eigenvalue in the overlap matrix is 4.2082545606E-03.
  Using Symmetric Orthogonalization.
  SCF Guess: Core (One-Electron) Hamiltonian.

  ==> Iterations <==

                           Total Energy        Delta E     RMS |[F,P]|

   @DF-RHF iter   1:  -158.64086972298597   -1.58641e+02   8.54953e-02 
   @DF-RHF iter   2:  -157.54944260956827    1.09143e+00   5.73470e-02 DIIS
   @DF-RHF iter   3:  -175.27610297244294   -1.77267e+01   6.14249e-02 DIIS
   @DF-RHF iter   4:  -191.54204256718154   -1.62659e+01   2.34585e-02 DIIS
   @DF-RHF iter   5:  -192.60996449405164   -1.06792e+00   1.26650e-02 DIIS
   @DF-RHF iter   6:  -193.01661118841477   -4.06647e-01   5.55158e-03 DIIS
   @DF-RHF iter   7:  -193.10938784636150   -9.27767e-02   1.22358e-03 DIIS
   @DF-RHF iter   8:  -193.11425510509670   -4.86726e-03   4.32421e-04 DIIS
   @DF-RHF iter   9:  -193.11511377022057   -8.58665e-04   1.09607e-04 DIIS
   @DF-RHF iter  10:  -193.11516764897365   -5.38788e-05   2.55223e-05 DIIS
   @DF-RHF iter  11:  -193.11517087692593   -3.22795e-06   4.71518e-06 DIIS
   @DF-RHF iter  12:  -193.11517097802331   -1.01097e-07   1.53456e-06 DIIS
   @DF-RHF iter  13:  -193.11517098898562   -1.09623e-08   3.51912e-07 DIIS

  ==> Post-Iterations <==

    Orbital Energies (a.u.)
    -----------------------

    Doubly Occupied:                                                      

       1A    -20.551147     2A    -11.275705     3A    -11.211106  
       4A    -11.206306     5A     -1.360410     6A     -1.041303  
       7A     -0.938381     8A     -0.800560     9A     -0.703394  
      10A     -0.621158    11A     -0.602385    12A     -0.547073  
      13A     -0.536821    14A     -0.526140    15A     -0.508779  
      16A     -0.466488    17A     -0.429900  

    Virtual:                                                              

      18A      0.216864    19A      0.268543    20A      0.298703  
      21A      0.298873    22A      0.311491    23A      0.323050  
      24A      0.354219    25A      0.355204    26A      0.396174  
      27A      0.435114    28A      0.446711    29A      0.709344  
      30A      0.728515    31A      0.791580    32A      0.796878  
      33A      0.814614    34A      0.910882    35A      0.958759  
      36A      0.963692    37A      0.993556    38A      1.096134  
      39A      1.155036    40A      1.166228    41A      1.178005  
      42A      1.183522    43A      1.192492    44A      1.211392  
      45A      1.231629    46A      1.258823    47A      1.309310  
      48A      1.322958    49A      1.447707    50A      1.625045  
      51A      1.682683    52A      1.688579    53A      1.815537  
      54A      1.921449    55A      2.051446    56A      2.075318  
      57A      2.105017    58A      2.168957    59A      2.272259  
      60A      2.310330    61A      2.395045    62A      2.473588  
      63A      2.531838    64A      2.588461    65A      2.605894  
      66A      2.633554    67A      2.749208    68A      2.868231  
      69A      2.904407    70A      2.954751    71A      3.079235  
      72A      3.244937    73A      4.182582    74A      4.612796  
      75A      4.726046    76A      4.936868  

    Final Occupation by Irrep:
              A 
    DOCC [    17 ]

  Energy converged.

  @DF-RHF Final Energy:  -193.11517098898562

   => Energetics <=

    Nuclear Repulsion Energy =            135.5013676545839019
    One-Electron Energy =                -530.5790183559089428
    Two-Electron Energy =                 201.9624797123391886
    DFT Exchange-Correlation Energy =       0.0000000000000000
    Empirical Dispersion Energy =           0.0000000000000000
    PCM Polarization Energy =               0.0000000000000000
    EFP Energy =                            0.0000000000000000
    Total Energy =                       -193.1151709889858807

    Alert: EFP and PCM quantities not currently incorporated into SCF psivars.

Properties will be evaluated at   0.000000,   0.000000,   0.000000 Bohr
  ==> Properties <==


Properties computed using the SCF density matrix

  Nuclear Dipole Moment: (a.u.)
     X:     0.3393      Y:    -3.2938      Z:     0.4269

  Electronic Dipole Moment: (a.u.)
     X:     0.0792      Y:     3.0632      Z:     0.0446

  Dipole Moment: (a.u.)
     X:     0.4185      Y:    -0.2306      Z:     0.4715     Total:     0.6713

  Dipole Moment: (Debye)
     X:     1.0638      Y:    -0.5861      Z:     1.1983     Total:     1.7062


  Saving occupied orbitals to File 180.

*** tstop() called on cx1-3-15-4.cx1.hpc.ic.ac.uk at Tue Jul  5 16:24:07 2016
Module time:
	user time   =       2.85 seconds =       0.05 minutes
	system time =       0.03 seconds =       0.00 minutes
	total time  =          3 seconds =       0.05 minutes
Total time:
	user time   =       2.85 seconds =       0.05 minutes
	system time =       0.03 seconds =       0.00 minutes
	total time  =          3 seconds =       0.05 minutes


Properties will be evaluated at   0.000000,   0.000000,   0.000000 Bohr

Properties computed using the  density matrix

  Nuclear Dipole Moment: (a.u.)
     X:     0.3393      Y:    -3.2938      Z:     0.4269

  Electronic Dipole Moment: (a.u.)
     X:     0.0792      Y:     3.0632      Z:     0.0446

  Dipole Moment: (a.u.)
     X:     0.4185      Y:    -0.2306      Z:     0.4715     Total:     0.6713

  Dipole Moment: (Debye)
     X:     1.0638      Y:    -0.5861      Z:     1.1983     Total:     1.7062

  Quadrupole Moment: (Debye Ang)
    XX:   -25.7346     YY:   -26.4238     ZZ:   -26.5516
    XY:     2.5605     XZ:     0.5113     YZ:     1.7494

  Traceless Quadrupole Moment: (Debye Ang)
    XX:     0.5020     YY:    -0.1871     ZZ:    -0.3149
    XY:     2.5605     XZ:     0.5113     YZ:     1.7494

  Mulliken Charges: (a.u.)
   Center  Symbol    Alpha    Beta     Spin     Total
       1     H     0.28234  0.28234  0.00000  0.43532
       2     O     4.37130  4.37130  0.00000 -0.74260
       3     C     2.92085  2.92085  0.00000  0.15830
       4     C     3.24475  3.24475  0.00000 -0.48950
       5     C     3.23904  3.23904  0.00000 -0.47807
       6     H     0.43086  0.43086  0.00000  0.13829
       7     H     0.41382  0.41382  0.00000  0.17237
       8     H     0.42496  0.42496  0.00000  0.15008
       9     H     0.42169  0.42169  0.00000  0.15662
      10     H     0.41499  0.41499  0.00000  0.17003
      11     H     0.41199  0.41199  0.00000  0.17602
      12     H     0.42342  0.42342  0.00000  0.15315

   Total alpha = 17.00000, Total beta = 17.00000, Total charge = -0.00000


*** PSI4 exiting successfully. Buy a developer a beer!
