    -----------------------------------------------------------------------
          Psi4: An Open-Source Ab Initio Electronic Structure Package
                              Psi4 (no tag) Driver

                          Git: Rev {detached?}  

    J. M. Turney, A. C. Simmonett, R. M. Parrish, E. G. Hohenstein,
    F. A. Evangelista, J. T. Fermann, B. J. Mintz, L. A. Burns, J. J. Wilke,
    M. L. Abrams, N. J. Russ, M. L. Leininger, C. L. Janssen, E. T. Seidl,
    W. D. Allen, H. F. Schaefer, R. A. King, E. F. Valeev, C. D. Sherrill,
    and T. D. Crawford, WIREs Comput. Mol. Sci. 2, 556-565 (2012)
    (doi: 10.1002/wcms.93)

                         Additional Contributions by
    A. E. DePrince, M. Saitow, U. Bozkaya, A. Yu. Sokolov
    -----------------------------------------------------------------------


    Psi4 started on: Tue Jul  5 16:29:41 2016

    Process ID:  11344
    PSI4DATADIR: /export131/home/mjharvey/miniconda3/share
    Memory level set to 256.000 MB

  ==> Input File <==

--------------------------------------------------------------------------
set {
	reference rhf
	basis 6-31G*
}


set_num_threads( 1 )
memory 2 gb

molecule MOL {
0 1

H	 -0.258483	 1.627725	 -1.589608
C	 0.557503	 1.679937	 -0.867300
N	 0.538815	 0.649616	 0.000000
O	 1.356772	 2.568888	 -0.879323
C	 1.521968	 -0.411503	 0.000000
H	 -0.192644	 0.624219	 0.672761
H	 2.150599	 -0.357004	 -0.881901
H	 0.999455	 -1.354525	 0.000000
H	 2.150599	 -0.357004	 0.881901

	symmetry c1
}
set optking {
	frozen_dihedral = ("
		6 3 5 7
	")
}

ee = energy('scf')
oeprop('DIPOLE', 'QUADRUPOLE', 'MULLIKEN_CHARGES')
f=open( 'psi4out.xyz', 'w' )
f.write( "9  " )
f.write( str(ee) + "\n" )
f.write( MOL.save_string_xyz() )
f.close()
--------------------------------------------------------------------------

  Memory set to   2.000 GiB by Python script.

*** tstart() called on cx1-1-4-3.cx1.hpc.ic.ac.uk
*** at Tue Jul  5 16:29:41 2016


         ---------------------------------------------------------
                                   SCF
            by Justin Turney, Rob Parrish, and Andy Simmonett
                              RHF Reference
                        1 Threads,   2000 MiB Core
         ---------------------------------------------------------

  ==> Geometry <==

    Molecular point group: c1
    Full point group: C1

    Geometry (in Angstrom), charge = 0, multiplicity = 1:

       Center              X                  Y                   Z               Mass       
    ------------   -----------------  -----------------  -----------------  -----------------
           H         -1.259338911250     0.516698136694    -1.159432538547     1.007825032070
           C         -0.443352911250     0.568910136694    -0.437124538547    12.000000000000
           N         -0.462040911250    -0.461410863306     0.430175461453    14.003074004780
           O          0.355916088750     1.457861136694    -0.449147538547    15.994914619560
           C          0.521112088750    -1.522529863306     0.430175461453    12.000000000000
           H         -1.193499911250    -0.486807863306     1.102936461453     1.007825032070
           H          1.149743088750    -1.468030863306    -0.451725538547     1.007825032070
           H         -0.001400911250    -2.465551863306     0.430175461453     1.007825032070
           H          1.149743088750    -1.468030863306     1.312076461453     1.007825032070

  Running in c1 symmetry.

  Rotational constants: A =      0.80675  B =      0.17758  C =      0.15869 [cm^-1]
  Rotational constants: A =  24185.75859  B =   5323.70269  C =   4757.51749 [MHz]
  Nuclear repulsion =  121.417048695656391

  Charge       = 0
  Multiplicity = 1
  Electrons    = 32
  Nalpha       = 16
  Nbeta        = 16

  ==> Algorithm <==

  SCF Algorithm Type is DF.
  DIIS enabled.
  MOM disabled.
  Fractional occupation disabled.
  Guess Type is CORE.
  Energy threshold   = 1.00e-06
  Density threshold  = 1.00e-06
  Integral threshold = 0.00e+00

  ==> Primary Basis <==

  Basis Set: 6-31G*
    Number of shells: 34
    Number of basis function: 70
    Number of Cartesian functions: 70
    Spherical Harmonics?: false
    Max angular momentum: 2

  ==> Pre-Iterations <==

   -------------------------------------------------------
    Irrep   Nso     Nmo     Nalpha   Nbeta   Ndocc  Nsocc
   -------------------------------------------------------
     A         70      70       0       0       0       0
   -------------------------------------------------------
    Total      70      70      16      16      16       0
   -------------------------------------------------------

 OEINTS: Overlap, kinetic, potential, dipole, and quadrupole integrals
         stored in file 35.

  ==> Integral Setup <==

  ==> DFJK: Density-Fitted J/K Matrices <==

    J tasked:                  Yes
    K tasked:                  Yes
    wK tasked:                  No
    OpenMP threads:              1
    Integrals threads:           1
    Memory (MB):              1430
    Algorithm:                Core
    Integral Cache:           NONE
    Schwarz Cutoff:          1E-12
    Fitting Condition:       1E-12

   => Auxiliary Basis Set <=

  Basis Set: 
    Number of shells: 141
    Number of basis function: 449
    Number of Cartesian functions: 449
    Spherical Harmonics?: false
    Max angular momentum: 3

  Minimum eigenvalue in the overlap matrix is 5.0770870813E-03.
  Using Symmetric Orthogonalization.
  SCF Guess: Core (One-Electron) Hamiltonian.

  ==> Iterations <==

                           Total Energy        Delta E     RMS |[F,P]|

   @DF-RHF iter   1:  -166.66158294849589   -1.66662e+02   9.41786e-02 
   @DF-RHF iter   2:  -129.34511845627236    3.73165e+01   8.24925e-02 DIIS
   @DF-RHF iter   3:  -189.66949343046122   -6.03244e+01   5.49886e-02 DIIS
   @DF-RHF iter   4:  -207.25738254175133   -1.75879e+01   1.72609e-02 DIIS
   @DF-RHF iter   5:  -207.85837999138914   -6.00997e-01   5.26920e-03 DIIS
   @DF-RHF iter   6:  -207.91685027800793   -5.84703e-02   1.17279e-03 DIIS
   @DF-RHF iter   7:  -207.92094570377805   -4.09543e-03   5.02708e-04 DIIS
   @DF-RHF iter   8:  -207.92180201574513   -8.56312e-04   2.11029e-04 DIIS
   @DF-RHF iter   9:  -207.92195821647573   -1.56201e-04   5.99966e-05 DIIS
   @DF-RHF iter  10:  -207.92197342146699   -1.52050e-05   1.23793e-05 DIIS
   @DF-RHF iter  11:  -207.92197442365500   -1.00219e-06   5.42937e-06 DIIS
   @DF-RHF iter  12:  -207.92197462465981   -2.01005e-07   3.15671e-06 DIIS
   @DF-RHF iter  13:  -207.92197468706860   -6.24088e-08   1.16640e-06 DIIS
   @DF-RHF iter  14:  -207.92197470407359   -1.70050e-08   3.58436e-07 DIIS

  ==> Post-Iterations <==

    Orbital Energies (a.u.)
    -----------------------

    Doubly Occupied:                                                      

       1A    -20.556164     2A    -15.555715     3A    -11.347776  
       4A    -11.264023     5A     -1.402605     6A     -1.226303  
       7A     -0.960366     8A     -0.814851     9A     -0.727284  
      10A     -0.656051    11A     -0.641079    12A     -0.596591  
      13A     -0.562509    14A     -0.510984    15A     -0.437045  
      16A     -0.377541  

    Virtual:                                                              

      17A      0.162672    18A      0.236779    19A      0.271738  
      20A      0.285453    21A      0.316996    22A      0.322058  
      23A      0.383483    24A      0.452781    25A      0.585760  
      26A      0.712837    27A      0.737607    28A      0.777123  
      29A      0.789005    30A      0.893664    31A      0.960716  
      32A      0.982595    33A      1.032551    34A      1.061398  
      35A      1.115752    36A      1.120809    37A      1.143839  
      38A      1.185276    39A      1.205082    40A      1.222249  
      41A      1.264109    42A      1.306881    43A      1.319807  
      44A      1.410603    45A      1.537458    46A      1.695969  
      47A      1.807394    48A      1.841522    49A      1.965068  
      50A      2.011821    51A      2.144455    52A      2.172120  
      53A      2.244220    54A      2.291972    55A      2.358090  
      56A      2.417882    57A      2.479759    58A      2.605844  
      59A      2.641345    60A      2.757281    61A      2.875206  
      62A      2.930424    63A      3.053471    64A      3.167050  
      65A      3.313634    66A      3.410060    67A      4.244187  
      68A      4.359814    69A      4.592941    70A      4.712221  

    Final Occupation by Irrep:
              A 
    DOCC [    16 ]

  Energy converged.

  @DF-RHF Final Energy:  -207.92197470407359

   => Energetics <=

    Nuclear Repulsion Energy =            121.4170486956563906
    One-Electron Energy =                -523.4042833707960654
    Two-Electron Energy =                 194.0652599710660411
    DFT Exchange-Correlation Energy =       0.0000000000000000
    Empirical Dispersion Energy =           0.0000000000000000
    PCM Polarization Energy =               0.0000000000000000
    EFP Energy =                            0.0000000000000000
    Total Energy =                       -207.9219747040736479

    Alert: EFP and PCM quantities not currently incorporated into SCF psivars.

Properties will be evaluated at   0.000000,   0.000000,   0.000000 Bohr
  ==> Properties <==


Properties computed using the SCF density matrix

  Nuclear Dipole Moment: (a.u.)
     X:    -0.1420      Y:    -5.0275      Z:     1.1535

  Electronic Dipole Moment: (a.u.)
     X:    -0.5655      Y:     3.8887      Z:    -0.8846

  Dipole Moment: (a.u.)
     X:    -0.7076      Y:    -1.1388      Z:     0.2688     Total:     1.3674

  Dipole Moment: (Debye)
     X:    -1.7984      Y:    -2.8946      Z:     0.6833     Total:     3.4756


  Saving occupied orbitals to File 180.

*** tstop() called on cx1-1-4-3.cx1.hpc.ic.ac.uk at Tue Jul  5 16:29:44 2016
Module time:
	user time   =       2.43 seconds =       0.04 minutes
	system time =       0.03 seconds =       0.00 minutes
	total time  =          3 seconds =       0.05 minutes
Total time:
	user time   =       2.43 seconds =       0.04 minutes
	system time =       0.03 seconds =       0.00 minutes
	total time  =          3 seconds =       0.05 minutes


Properties will be evaluated at   0.000000,   0.000000,   0.000000 Bohr

Properties computed using the  density matrix

  Nuclear Dipole Moment: (a.u.)
     X:    -0.1420      Y:    -5.0275      Z:     1.1535

  Electronic Dipole Moment: (a.u.)
     X:    -0.5655      Y:     3.8887      Z:    -0.8846

  Dipole Moment: (a.u.)
     X:    -0.7076      Y:    -1.1388      Z:     0.2688     Total:     1.3674

  Dipole Moment: (Debye)
     X:    -1.7984      Y:    -2.8946      Z:     0.6833     Total:     3.4756

  Quadrupole Moment: (Debye Ang)
    XX:   -22.4573     YY:   -27.2806     ZZ:   -23.0119
    XY:    -2.5801     XZ:    -0.7838     YZ:     0.3718

  Traceless Quadrupole Moment: (Debye Ang)
    XX:     1.7926     YY:    -3.0306     ZZ:     1.2380
    XY:    -2.5801     XZ:    -0.7838     YZ:     0.3718

  Mulliken Charges: (a.u.)
   Center  Symbol    Alpha    Beta     Spin     Total
       1     H     0.43124  0.43124  0.00000  0.13753
       2     C     2.76392  2.76392  0.00000  0.47216
       3     N     3.89477  3.89477  0.00000 -0.78954
       4     O     4.23366  4.23366  0.00000 -0.46733
       5     C     3.13225  3.13225  0.00000 -0.26450
       6     H     0.30815  0.30815  0.00000  0.38370
       7     H     0.40710  0.40710  0.00000  0.18580
       8     H     0.41582  0.41582  0.00000  0.16836
       9     H     0.41309  0.41309  0.00000  0.17382

   Total alpha = 16.00000, Total beta = 16.00000, Total charge = -0.00000


*** PSI4 exiting successfully. Buy a developer a beer!
