    -----------------------------------------------------------------------
          Psi4: An Open-Source Ab Initio Electronic Structure Package
                              Psi4 (no tag) Driver

                          Git: Rev {detached?}  

    J. M. Turney, A. C. Simmonett, R. M. Parrish, E. G. Hohenstein,
    F. A. Evangelista, J. T. Fermann, B. J. Mintz, L. A. Burns, J. J. Wilke,
    M. L. Abrams, N. J. Russ, M. L. Leininger, C. L. Janssen, E. T. Seidl,
    W. D. Allen, H. F. Schaefer, R. A. King, E. F. Valeev, C. D. Sherrill,
    and T. D. Crawford, WIREs Comput. Mol. Sci. 2, 556-565 (2012)
    (doi: 10.1002/wcms.93)

                         Additional Contributions by
    A. E. DePrince, M. Saitow, U. Bozkaya, A. Yu. Sokolov
    -----------------------------------------------------------------------


    Psi4 started on: Tue Jul  5 16:32:16 2016

    Process ID:  28982
    PSI4DATADIR: /export131/home/mjharvey/miniconda3/share
    Memory level set to 256.000 MB

  ==> Input File <==

--------------------------------------------------------------------------
set {
	reference rhf
	basis 6-31G*
}


set_num_threads( 1 )
memory 2 gb

molecule MOL {
0 1

H	 -0.580385	 -1.599051	 -0.342986
N	 -0.626943	 -0.667432	 -0.000092
C	 -1.709781	 0.174935	 -0.454621
C	 0.325755	 -0.252874	 0.869779
H	 -2.249075	 -0.292718	 -1.271609
H	 -1.290373	 1.105939	 -0.799664
H	 -2.407345	 0.379963	 0.350612
C	 1.674978	 -0.919497	 0.690344
O	 0.127974	 0.574320	 1.716447
H	 2.068026	 -0.726742	 -0.302990
H	 2.359261	 -0.526889	 1.427442
H	 1.590945	 -1.994555	 0.814939

	symmetry c1
}
set optking {
	frozen_dihedral = ("
		4 2 3 5
	")
}

ee = energy('scf')
oeprop('DIPOLE', 'QUADRUPOLE', 'MULLIKEN_CHARGES')
f=open( 'psi4out.xyz', 'w' )
f.write( "12  " )
f.write( str(ee) + "\n" )
f.write( MOL.save_string_xyz() )
f.close()
--------------------------------------------------------------------------

  Memory set to   2.000 GiB by Python script.

*** tstart() called on cx1-3-2-3.cx1.hpc.ic.ac.uk
*** at Tue Jul  5 16:32:16 2016


         ---------------------------------------------------------
                                   SCF
            by Justin Turney, Rob Parrish, and Andy Simmonett
                              RHF Reference
                        1 Threads,   2000 MiB Core
         ---------------------------------------------------------

  ==> Geometry <==

    Molecular point group: c1
    Full point group: C1

    Geometry (in Angstrom), charge = 0, multiplicity = 1:

       Center              X                  Y                   Z               Mass       
    ------------   -----------------  -----------------  -----------------  -----------------
           H         -0.529001584188    -1.382607739352    -0.898665600405     1.007825032070
           N         -0.575559584188    -0.450988739352    -0.555771600405    14.003074004780
           C         -1.658397584188     0.391378260648    -1.010300600405    12.000000000000
           C          0.377138415812    -0.036430739352     0.314099399595    12.000000000000
           H         -2.197691584188    -0.076274739352    -1.827288600405     1.007825032070
           H         -1.238989584188     1.322382260648    -1.355343600405     1.007825032070
           H         -2.355961584188     0.596406260648    -0.205067600405     1.007825032070
           C          1.726361415812    -0.703053739352     0.134664399595    12.000000000000
           O          0.179357415812     0.790763260648     1.160767399595    15.994914619560
           H          2.119409415812    -0.510298739352    -0.858669600405     1.007825032070
           H          2.410644415812    -0.310445739352     0.871762399595     1.007825032070
           H          1.642328415812    -1.778111739352     0.259259399595     1.007825032070

  Running in c1 symmetry.

  Rotational constants: A =      0.32501  B =      0.12994  C =      0.09843 [cm^-1]
  Rotational constants: A =   9743.57899  B =   3895.46585  C =   2950.97028 [MHz]
  Nuclear repulsion =  181.054397197222272

  Charge       = 0
  Multiplicity = 1
  Electrons    = 40
  Nalpha       = 20
  Nbeta        = 20

  ==> Algorithm <==

  SCF Algorithm Type is DF.
  DIIS enabled.
  MOM disabled.
  Fractional occupation disabled.
  Guess Type is CORE.
  Energy threshold   = 1.00e-06
  Density threshold  = 1.00e-06
  Integral threshold = 0.00e+00

  ==> Primary Basis <==

  Basis Set: 6-31G*
    Number of shells: 44
    Number of basis function: 89
    Number of Cartesian functions: 89
    Spherical Harmonics?: false
    Max angular momentum: 2

  ==> Pre-Iterations <==

   -------------------------------------------------------
    Irrep   Nso     Nmo     Nalpha   Nbeta   Ndocc  Nsocc
   -------------------------------------------------------
     A         89      89       0       0       0       0
   -------------------------------------------------------
    Total      89      89      20      20      20       0
   -------------------------------------------------------

 OEINTS: Overlap, kinetic, potential, dipole, and quadrupole integrals
         stored in file 35.

  ==> Integral Setup <==

  ==> DFJK: Density-Fitted J/K Matrices <==

    J tasked:                  Yes
    K tasked:                  Yes
    wK tasked:                  No
    OpenMP threads:              1
    Integrals threads:           1
    Memory (MB):              1430
    Algorithm:                Core
    Integral Cache:           NONE
    Schwarz Cutoff:          1E-12
    Fitting Condition:       1E-12

   => Auxiliary Basis Set <=

  Basis Set: 
    Number of shells: 183
    Number of basis function: 580
    Number of Cartesian functions: 580
    Spherical Harmonics?: false
    Max angular momentum: 3

  Minimum eigenvalue in the overlap matrix is 3.9005415744E-03.
  Using Symmetric Orthogonalization.
  SCF Guess: Core (One-Electron) Hamiltonian.

  ==> Iterations <==

                           Total Energy        Delta E     RMS |[F,P]|

   @DF-RHF iter   1:  -191.08681006139517   -1.91087e+02   8.60823e-02 
   @DF-RHF iter   2:  -192.57784588915780   -1.49104e+00   5.93000e-02 DIIS
   @DF-RHF iter   3:  -218.31861744232890   -2.57408e+01   6.47921e-02 DIIS
   @DF-RHF iter   4:  -242.74320841504078   -2.44246e+01   2.80622e-02 DIIS
   @DF-RHF iter   5:  -245.94915037205033   -3.20594e+00   1.43717e-02 DIIS
   @DF-RHF iter   6:  -246.84821866946777   -8.99068e-01   5.21542e-03 DIIS
   @DF-RHF iter   7:  -246.98000852455942   -1.31790e-01   1.59909e-03 DIIS
   @DF-RHF iter   8:  -246.99285811170989   -1.28496e-02   5.16321e-04 DIIS
   @DF-RHF iter   9:  -246.99471935197397   -1.86124e-03   2.46202e-04 DIIS
   @DF-RHF iter  10:  -246.99505263835306   -3.33286e-04   8.02429e-05 DIIS
   @DF-RHF iter  11:  -246.99514647321377   -9.38349e-05   3.23945e-05 DIIS
   @DF-RHF iter  12:  -246.99515720248507   -1.07293e-05   9.75101e-06 DIIS
   @DF-RHF iter  13:  -246.99515808497449   -8.82489e-07   3.23765e-06 DIIS
   @DF-RHF iter  14:  -246.99515818250376   -9.75293e-08   8.80762e-07 DIIS

  ==> Post-Iterations <==

    Orbital Energies (a.u.)
    -----------------------

    Doubly Occupied:                                                      

       1A    -20.522888     2A    -15.573321     3A    -11.343024  
       4A    -11.257391     5A    -11.228140     6A     -1.386286  
       7A     -1.226218     8A     -1.013442     9A     -0.932877  
      10A     -0.785001    11A     -0.687532    12A     -0.647360  
      13A     -0.635127    14A     -0.584696    15A     -0.582191  
      16A     -0.556525    17A     -0.548795    18A     -0.499625  
      19A     -0.415036    20A     -0.380909  

    Virtual:                                                              

      21A      0.192900    22A      0.222928    23A      0.265885  
      24A      0.276555    25A      0.307615    26A      0.317059  
      27A      0.329379    28A      0.356111    29A      0.383598  
      30A      0.424240    31A      0.500964    32A      0.594326  
      33A      0.723355    34A      0.743138    35A      0.756350  
      36A      0.772367    37A      0.805035    38A      0.818819  
      39A      0.870854    40A      0.947946    41A      0.989494  
      42A      1.043100    43A      1.055941    44A      1.079613  
      45A      1.126074    46A      1.138206    47A      1.147265  
      48A      1.188952    49A      1.205255    50A      1.217169  
      51A      1.221810    52A      1.241533    53A      1.304702  
      54A      1.352143    55A      1.387755    56A      1.448394  
      57A      1.578980    58A      1.643235    59A      1.734382  
      60A      1.736071    61A      1.828249    62A      1.930348  
      63A      2.035589    64A      2.109058    65A      2.154352  
      66A      2.200534    67A      2.211849    68A      2.286156  
      69A      2.334838    70A      2.353832    71A      2.450480  
      72A      2.473984    73A      2.518920    74A      2.548732  
      75A      2.647480    76A      2.703145    77A      2.725804  
      78A      2.857334    79A      2.920070    80A      3.000018  
      81A      3.075039    82A      3.268996    83A      3.372400  
      84A      3.535082    85A      4.351484    86A      4.454091  
      87A      4.624464    88A      4.698505    89A      4.876619  

    Final Occupation by Irrep:
              A 
    DOCC [    20 ]

  Energy converged.

  @DF-RHF Final Energy:  -246.99515818250376

   => Energetics <=

    Nuclear Repulsion Energy =            181.0543971972222721
    One-Electron Energy =                -694.4861674169613934
    Two-Electron Energy =                 266.4366120372358182
    DFT Exchange-Correlation Energy =       0.0000000000000000
    Empirical Dispersion Energy =           0.0000000000000000
    PCM Polarization Energy =               0.0000000000000000
    EFP Energy =                            0.0000000000000000
    Total Energy =                       -246.9951581825032463

    Alert: EFP and PCM quantities not currently incorporated into SCF psivars.

Properties will be evaluated at   0.000000,   0.000000,   0.000000 Bohr
  ==> Properties <==


Properties computed using the SCF density matrix

  Nuclear Dipole Moment: (a.u.)
     X:    -0.1374      Y:    -2.0001      Z:    -3.7558

  Electronic Dipole Moment: (a.u.)
     X:     0.1031      Y:     0.9843      Z:     2.5625

  Dipole Moment: (a.u.)
     X:    -0.0343      Y:    -1.0158      Z:    -1.1933     Total:     1.5675

  Dipole Moment: (Debye)
     X:    -0.0871      Y:    -2.5820      Z:    -3.0332     Total:     3.9843


  Saving occupied orbitals to File 180.

*** tstop() called on cx1-3-2-3.cx1.hpc.ic.ac.uk at Tue Jul  5 16:32:20 2016
Module time:
	user time   =       3.74 seconds =       0.06 minutes
	system time =       0.04 seconds =       0.00 minutes
	total time  =          4 seconds =       0.07 minutes
Total time:
	user time   =       3.74 seconds =       0.06 minutes
	system time =       0.04 seconds =       0.00 minutes
	total time  =          4 seconds =       0.07 minutes


Properties will be evaluated at   0.000000,   0.000000,   0.000000 Bohr

Properties computed using the  density matrix

  Nuclear Dipole Moment: (a.u.)
     X:    -0.1374      Y:    -2.0001      Z:    -3.7558

  Electronic Dipole Moment: (a.u.)
     X:     0.1031      Y:     0.9843      Z:     2.5625

  Dipole Moment: (a.u.)
     X:    -0.0343      Y:    -1.0158      Z:    -1.1933     Total:     1.5675

  Dipole Moment: (Debye)
     X:    -0.0871      Y:    -2.5820      Z:    -3.0332     Total:     3.9843

  Quadrupole Moment: (Debye Ang)
    XX:   -27.7730     YY:   -30.0776     ZZ:   -33.0720
    XY:    -0.7268     XZ:     1.4779     YZ:    -1.8580

  Traceless Quadrupole Moment: (Debye Ang)
    XX:     2.5345     YY:     0.2300     ZZ:    -2.7645
    XY:    -0.7268     XZ:     1.4779     YZ:    -1.8580

  Mulliken Charges: (a.u.)
   Center  Symbol    Alpha    Beta     Spin     Total
       1     H     0.30988  0.30988  0.00000  0.38024
       2     N     3.89360  3.89360  0.00000 -0.78720
       3     C     3.13384  3.13384  0.00000 -0.26769
       4     C     2.63968  2.63968  0.00000  0.72063
       5     H     0.41558  0.41558  0.00000  0.16885
       6     H     0.40938  0.40938  0.00000  0.18123
       7     H     0.40612  0.40612  0.00000  0.18777
       8     C     3.28990  3.28990  0.00000 -0.57979
       9     O     4.28984  4.28984  0.00000 -0.57968
      10     H     0.40556  0.40556  0.00000  0.18889
      11     H     0.39453  0.39453  0.00000  0.21095
      12     H     0.41209  0.41209  0.00000  0.17582

   Total alpha = 20.00000, Total beta = 20.00000, Total charge =  0.00000


*** PSI4 exiting successfully. Buy a developer a beer!
