    -----------------------------------------------------------------------
          Psi4: An Open-Source Ab Initio Electronic Structure Package
                              Psi4 (no tag) Driver

                          Git: Rev {detached?}  

    J. M. Turney, A. C. Simmonett, R. M. Parrish, E. G. Hohenstein,
    F. A. Evangelista, J. T. Fermann, B. J. Mintz, L. A. Burns, J. J. Wilke,
    M. L. Abrams, N. J. Russ, M. L. Leininger, C. L. Janssen, E. T. Seidl,
    W. D. Allen, H. F. Schaefer, R. A. King, E. F. Valeev, C. D. Sherrill,
    and T. D. Crawford, WIREs Comput. Mol. Sci. 2, 556-565 (2012)
    (doi: 10.1002/wcms.93)

                         Additional Contributions by
    A. E. DePrince, M. Saitow, U. Bozkaya, A. Yu. Sokolov
    -----------------------------------------------------------------------


    Psi4 started on: Tue Jul  5 16:41:20 2016

    Process ID:  18298
    PSI4DATADIR: /export131/home/mjharvey/miniconda3/share
    Memory level set to 256.000 MB

  ==> Input File <==

--------------------------------------------------------------------------
set {
	reference rhf
	basis 6-31G*
}


set_num_threads( 1 )
memory 2 gb

molecule MOL {
0 1

O	 -1.487788	 1.240889	 -0.102860
C	 -1.083277	 0.139568	 0.115197
C	 0.323299	 -0.082943	 0.642902
C	 -1.933017	 -1.084621	 -0.143902
C	 1.355627	 -0.005344	 -0.493127
H	 0.396251	 -1.044647	 1.143147
H	 0.528637	 0.693580	 1.371677
C	 0.882117	 -0.718067	 -1.758458
H	 1.569636	 1.035834	 -0.724257
H	 2.284776	 -0.445201	 -0.146214
H	 1.629716	 -0.654313	 -2.542499
H	 -0.035558	 -0.278449	 -2.138501
H	 0.691657	 -1.769618	 -1.566070
H	 -1.393885	 -1.806447	 -0.750509
H	 -2.850323	 -0.799888	 -0.640100
H	 -2.169004	 -1.571158	 0.798858

	symmetry c1
}
set optking {
	frozen_dihedral = ("
		4 2 3 5
	")
}

ee = energy('scf')
oeprop('DIPOLE', 'QUADRUPOLE', 'MULLIKEN_CHARGES')
f=open( 'psi4out.xyz', 'w' )
f.write( "16  " )
f.write( str(ee) + "\n" )
f.write( MOL.save_string_xyz() )
f.close()
--------------------------------------------------------------------------

  Memory set to   2.000 GiB by Python script.

*** tstart() called on cx1-3-15-3.cx1.hpc.ic.ac.uk
*** at Tue Jul  5 16:41:21 2016


         ---------------------------------------------------------
                                   SCF
            by Justin Turney, Rob Parrish, and Andy Simmonett
                              RHF Reference
                        1 Threads,   2000 MiB Core
         ---------------------------------------------------------

  ==> Geometry <==

    Molecular point group: c1
    Full point group: C1

    Geometry (in Angstrom), charge = 0, multiplicity = 1:

       Center              X                  Y                   Z               Mass       
    ------------   -----------------  -----------------  -----------------  -----------------
           O         -1.155477112048     1.332221043074     0.205354619677    15.994914619560
           C         -0.750966112048     0.230900043074     0.423411619677    12.000000000000
           C          0.655609887952     0.008389043074     0.951116619677    12.000000000000
           C         -1.600706112048    -0.993288956926     0.164312619677    12.000000000000
           C          1.687937887952     0.085988043074    -0.184912380323    12.000000000000
           H          0.728561887952    -0.953314956926     1.451361619677     1.007825032070
           H          0.860947887952     0.784912043074     1.679891619677     1.007825032070
           C          1.214427887952    -0.626734956926    -1.450243380323    12.000000000000
           H          1.901946887952     1.127166043074    -0.416042380323     1.007825032070
           H          2.617086887952    -0.353868956926     0.162000619677     1.007825032070
           H          1.962026887952    -0.562980956926    -2.234284380323     1.007825032070
           H          0.296752887952    -0.187116956926    -1.830286380323     1.007825032070
           H          1.023967887952    -1.678285956926    -1.257855380323     1.007825032070
           H         -1.061574112048    -1.715114956926    -0.442294380323     1.007825032070
           H         -2.518012112048    -0.708555956926    -0.331885380323     1.007825032070
           H         -1.836693112048    -1.479825956926     1.107072619677     1.007825032070

  Running in c1 symmetry.

  Rotational constants: A =      0.16782  B =      0.08700  C =      0.07632 [cm^-1]
  Rotational constants: A =   5030.97911  B =   2608.11697  C =   2288.10675 [MHz]
  Nuclear repulsion =  245.241431149314877

  Charge       = 0
  Multiplicity = 1
  Electrons    = 48
  Nalpha       = 24
  Nbeta        = 24

  ==> Algorithm <==

  SCF Algorithm Type is DF.
  DIIS enabled.
  MOM disabled.
  Fractional occupation disabled.
  Guess Type is CORE.
  Energy threshold   = 1.00e-06
  Density threshold  = 1.00e-06
  Integral threshold = 0.00e+00

  ==> Primary Basis <==

  Basis Set: 6-31G*
    Number of shells: 56
    Number of basis function: 110
    Number of Cartesian functions: 110
    Spherical Harmonics?: false
    Max angular momentum: 2

  ==> Pre-Iterations <==

   -------------------------------------------------------
    Irrep   Nso     Nmo     Nalpha   Nbeta   Ndocc  Nsocc
   -------------------------------------------------------
     A        110     110       0       0       0       0
   -------------------------------------------------------
    Total     110     110      24      24      24       0
   -------------------------------------------------------

 OEINTS: Overlap, kinetic, potential, dipole, and quadrupole integrals
         stored in file 35.

  ==> Integral Setup <==

  ==> DFJK: Density-Fitted J/K Matrices <==

    J tasked:                  Yes
    K tasked:                  Yes
    wK tasked:                  No
    OpenMP threads:              1
    Integrals threads:           1
    Memory (MB):              1430
    Algorithm:                Core
    Integral Cache:           NONE
    Schwarz Cutoff:          1E-12
    Fitting Condition:       1E-12

   => Auxiliary Basis Set <=

  Basis Set: 
    Number of shells: 234
    Number of basis function: 736
    Number of Cartesian functions: 736
    Spherical Harmonics?: false
    Max angular momentum: 3

  Minimum eigenvalue in the overlap matrix is 3.5240347941E-03.
  Using Symmetric Orthogonalization.
  SCF Guess: Core (One-Electron) Hamiltonian.

  ==> Iterations <==

                           Total Energy        Delta E     RMS |[F,P]|

   @DF-RHF iter   1:  -209.11147034575660   -2.09111e+02   7.47556e-02 
   @DF-RHF iter   2:  -190.90603037325232    1.82054e+01   6.01523e-02 DIIS
   @DF-RHF iter   3:  -234.18132646274873   -4.32753e+01   5.12342e-02 DIIS
   @DF-RHF iter   4:  -268.97596938932406   -3.47946e+01   1.23142e-02 DIIS
   @DF-RHF iter   5:  -269.83244638250858   -8.56477e-01   6.07393e-03 DIIS
   @DF-RHF iter   6:  -269.99919641549650   -1.66750e-01   1.90033e-03 DIIS
   @DF-RHF iter   7:  -270.01869698240353   -1.95006e-02   8.61686e-04 DIIS
   @DF-RHF iter   8:  -270.02384501230267   -5.14803e-03   2.66815e-04 DIIS
   @DF-RHF iter   9:  -270.02451452637251   -6.69514e-04   6.49751e-05 DIIS
   @DF-RHF iter  10:  -270.02456542645416   -5.09001e-05   2.13216e-05 DIIS
   @DF-RHF iter  11:  -270.02457351806356   -8.09161e-06   9.02847e-06 DIIS
   @DF-RHF iter  12:  -270.02457584306285   -2.32500e-06   4.00726e-06 DIIS
   @DF-RHF iter  13:  -270.02457638047531   -5.37412e-07   1.77292e-06 DIIS
   @DF-RHF iter  14:  -270.02457650048973   -1.20014e-07   6.19771e-07 DIIS

  ==> Post-Iterations <==

    Orbital Energies (a.u.)
    -----------------------

    Doubly Occupied:                                                      

       1A    -20.547541     2A    -11.324614     3A    -11.232759  
       4A    -11.229294     5A    -11.226817     6A    -11.220045  
       7A     -1.393734     8A     -1.085429     9A     -1.008177  
      10A     -0.953172    11A     -0.833536    12A     -0.727949  
      13A     -0.660085    14A     -0.643706    15A     -0.623304  
      16A     -0.610855    17A     -0.573730    18A     -0.552802  
      19A     -0.549918    20A     -0.510874    21A     -0.504185  
      22A     -0.481652    23A     -0.470437    24A     -0.397782  

    Virtual:                                                              

      25A      0.166576    26A      0.223449    27A      0.264190  
      28A      0.277705    29A      0.279426    30A      0.293219  
      31A      0.316030    32A      0.325232    33A      0.332485  
      34A      0.351395    35A      0.373741    36A      0.380281  
      37A      0.413034    38A      0.445039    39A      0.489619  
      40A      0.511099    41A      0.700519    42A      0.727358  
      43A      0.746005    44A      0.767393    45A      0.781627  
      46A      0.813363    47A      0.845704    48A      0.881790  
      49A      0.898469    50A      0.923334    51A      0.950523  
      52A      0.984690    53A      1.010903    54A      1.043678  
      55A      1.106787    56A      1.116328    57A      1.134834  
      58A      1.149688    59A      1.152045    60A      1.176882  
      61A      1.193080    62A      1.197420    63A      1.208166  
      64A      1.233836    65A      1.244138    66A      1.281802  
      67A      1.328764    68A      1.355069    69A      1.384884  
      70A      1.460000    71A      1.486744    72A      1.661285  
      73A      1.699677    74A      1.727803    75A      1.796044  
      76A      1.846734    77A      1.910321    78A      2.006636  
      79A      2.067013    80A      2.098895    81A      2.114291  
      82A      2.165646    83A      2.186349    84A      2.254825  
      85A      2.272479    86A      2.303591    87A      2.331905  
      88A      2.382950    89A      2.435142    90A      2.502157  
      91A      2.541007    92A      2.585768    93A      2.655298  
      94A      2.670337    95A      2.692689    96A      2.754232  
      97A      2.782883    98A      2.831709    99A      2.904232  
     100A      3.020793   101A      3.048264   102A      3.110852  
     103A      3.375570   104A      3.380339   105A      4.475007  
     106A      4.544850   107A      4.638030   108A      4.743977  
     109A      4.873898   110A      5.011372  

    Final Occupation by Irrep:
              A 
    DOCC [    24 ]

  Energy converged.

  @DF-RHF Final Energy:  -270.02457650048973

   => Energetics <=

    Nuclear Repulsion Energy =            245.2414311493148773
    One-Electron Energy =                -851.8072747276521568
    Two-Electron Energy =                 336.5412670778482607
    DFT Exchange-Correlation Energy =       0.0000000000000000
    Empirical Dispersion Energy =           0.0000000000000000
    PCM Polarization Energy =               0.0000000000000000
    EFP Energy =                            0.0000000000000000
    Total Energy =                       -270.0245765004890472

    Alert: EFP and PCM quantities not currently incorporated into SCF psivars.

Properties will be evaluated at   0.000000,   0.000000,   0.000000 Bohr
  ==> Properties <==


Properties computed using the SCF density matrix

  Nuclear Dipole Moment: (a.u.)
     X:     3.7209      Y:    -5.3625      Z:    -1.9793

  Electronic Dipole Moment: (a.u.)
     X:    -3.1964      Y:     4.2901      Z:     2.1322

  Dipole Moment: (a.u.)
     X:     0.5245      Y:    -1.0724      Z:     0.1530     Total:     1.2036

  Dipole Moment: (Debye)
     X:     1.3333      Y:    -2.7257      Z:     0.3888     Total:     3.0592


  Saving occupied orbitals to File 180.

*** tstop() called on cx1-3-15-3.cx1.hpc.ic.ac.uk at Tue Jul  5 16:41:28 2016
Module time:
	user time   =       6.79 seconds =       0.11 minutes
	system time =       0.05 seconds =       0.00 minutes
	total time  =          7 seconds =       0.12 minutes
Total time:
	user time   =       6.79 seconds =       0.11 minutes
	system time =       0.05 seconds =       0.00 minutes
	total time  =          7 seconds =       0.12 minutes


Properties will be evaluated at   0.000000,   0.000000,   0.000000 Bohr

Properties computed using the  density matrix

  Nuclear Dipole Moment: (a.u.)
     X:     3.7209      Y:    -5.3625      Z:    -1.9793

  Electronic Dipole Moment: (a.u.)
     X:    -3.1964      Y:     4.2901      Z:     2.1322

  Dipole Moment: (a.u.)
     X:     0.5245      Y:    -1.0724      Z:     0.1530     Total:     1.2036

  Dipole Moment: (Debye)
     X:     1.3333      Y:    -2.7257      Z:     0.3888     Total:     3.0592

  Quadrupole Moment: (Debye Ang)
    XX:   -38.7121     YY:   -41.9547     ZZ:   -37.2660
    XY:     3.8969     XZ:    -0.2058     YZ:    -0.5592

  Traceless Quadrupole Moment: (Debye Ang)
    XX:     0.5988     YY:    -2.6438     ZZ:     2.0449
    XY:     3.8969     XZ:    -0.2058     YZ:    -0.5592

  Mulliken Charges: (a.u.)
   Center  Symbol    Alpha    Beta     Spin     Total
       1     O     4.26235  4.26235  0.00000 -0.52470
       2     C     2.74342  2.74342  0.00000  0.51316
       3     C     3.20002  3.20002  0.00000 -0.40003
       4     C     3.28918  3.28918  0.00000 -0.57837
       5     C     3.15268  3.15268  0.00000 -0.30535
       6     H     0.41667  0.41667  0.00000  0.16666
       7     H     0.39948  0.39948  0.00000  0.20103
       8     C     3.25591  3.25591  0.00000 -0.51181
       9     H     0.40796  0.40796  0.00000  0.18409
      10     H     0.41516  0.41516  0.00000  0.16967
      11     H     0.41257  0.41257  0.00000  0.17487
      12     H     0.41084  0.41084  0.00000  0.17832
      13     H     0.42186  0.42186  0.00000  0.15628
      14     H     0.40667  0.40667  0.00000  0.18667
      15     H     0.39775  0.39775  0.00000  0.20449
      16     H     0.40749  0.40749  0.00000  0.18502

   Total alpha = 24.00000, Total beta = 24.00000, Total charge =  0.00000


*** PSI4 exiting successfully. Buy a developer a beer!
