    -----------------------------------------------------------------------
          Psi4: An Open-Source Ab Initio Electronic Structure Package
                              Psi4 (no tag) Driver

                          Git: Rev {detached?}  

    J. M. Turney, A. C. Simmonett, R. M. Parrish, E. G. Hohenstein,
    F. A. Evangelista, J. T. Fermann, B. J. Mintz, L. A. Burns, J. J. Wilke,
    M. L. Abrams, N. J. Russ, M. L. Leininger, C. L. Janssen, E. T. Seidl,
    W. D. Allen, H. F. Schaefer, R. A. King, E. F. Valeev, C. D. Sherrill,
    and T. D. Crawford, WIREs Comput. Mol. Sci. 2, 556-565 (2012)
    (doi: 10.1002/wcms.93)

                         Additional Contributions by
    A. E. DePrince, M. Saitow, U. Bozkaya, A. Yu. Sokolov
    -----------------------------------------------------------------------


    Psi4 started on: Tue Jul  5 17:43:23 2016

    Process ID:  19415
    PSI4DATADIR: /export131/home/mjharvey/miniconda3/share
    Memory level set to 256.000 MB

  ==> Input File <==

--------------------------------------------------------------------------
set {
	reference rhf
	basis 6-31G*
}


set_num_threads( 1 )
memory 2 gb

molecule MOL {
0 1

O	 -3.702436	 5.406164	 0.532282
C	 -3.589812	 4.457530	 1.246542
C	 -2.652680	 3.307590	 0.923494
C	 -4.382059	 4.339600	 2.532463
C	 -2.933125	 2.035105	 1.717450
H	 -2.717326	 3.115698	 -0.146734
H	 -1.633034	 3.650735	 1.093720
C	 -1.970234	 0.900009	 1.365086
H	 -3.956204	 1.721029	 1.536352
H	 -2.870479	 2.256545	 2.778198
C	 -2.259874	 0.272531	 0.000494
H	 -0.947422	 1.273829	 1.377850
H	 -2.021110	 0.128757	 2.132320
C	 -2.299309	 1.292585	 -1.138781
H	 -3.210635	 -0.255973	 0.042417
H	 -1.503664	 -0.479692	 -0.217000
C	 -3.566352	 2.147124	 -1.131721
H	 -1.427462	 1.940154	 -1.072741
H	 -2.220829	 0.772174	 -2.091079
H	 -3.656394	 2.706940	 -0.205088
H	 -3.564796	 2.860504	 -1.950126
H	 -4.455333	 1.530813	 -1.231810
H	 -3.712744	 4.250370	 3.383154
H	 -5.008731	 5.211846	 2.656165
H	 -5.001613	 3.447701	 2.515074

	symmetry c1
}
set optking {
	frozen_dihedral = ("
		9 5 8 12,
		15 11 8 12,
		15 11 14 18,
		9 5 3 6
	")
}

ee = energy('scf')
oeprop('DIPOLE', 'QUADRUPOLE', 'MULLIKEN_CHARGES')
f=open( 'psi4out.xyz', 'w' )
f.write( "25  " )
f.write( str(ee) + "\n" )
f.write( MOL.save_string_xyz() )
f.close()
--------------------------------------------------------------------------

  Memory set to   2.000 GiB by Python script.

*** tstart() called on cx1-1-2-1.cx1.hpc.ic.ac.uk
*** at Tue Jul  5 17:43:23 2016


         ---------------------------------------------------------
                                   SCF
            by Justin Turney, Rob Parrish, and Andy Simmonett
                              RHF Reference
                        1 Threads,   2000 MiB Core
         ---------------------------------------------------------

  ==> Geometry <==

    Molecular point group: c1
    Full point group: C1

    Geometry (in Angstrom), charge = 0, multiplicity = 1:

       Center              X                  Y                   Z               Mass       
    ------------   -----------------  -----------------  -----------------  -----------------
           O         -0.647926228582     2.706396451591    -0.134106347009    15.994914619560
           C         -0.535302228582     1.757762451591     0.580153652991    12.000000000000
           C          0.401829771418     0.607822451591     0.257105652991    12.000000000000
           C         -1.327549228582     1.639832451591     1.866074652991    12.000000000000
           C          0.121384771418    -0.664662548409     1.051061652991    12.000000000000
           H          0.337183771418     0.415930451591    -0.813122347009     1.007825032070
           H          1.421475771418     0.950967451591     0.427331652991     1.007825032070
           C          1.084275771418    -1.799758548409     0.698697652991    12.000000000000
           H         -0.901694228582    -0.978738548409     0.869963652991     1.007825032070
           H          0.184030771418    -0.443222548409     2.111809652991     1.007825032070
           C          0.794635771418    -2.427236548409    -0.665894347009    12.000000000000
           H          2.107087771418    -1.425938548409     0.711461652991     1.007825032070
           H          1.033399771418    -2.571010548409     1.465931652991     1.007825032070
           C          0.755200771418    -1.407182548409    -1.805169347009    12.000000000000
           H         -0.156125228582    -2.955740548409    -0.623971347009     1.007825032070
           H          1.550845771418    -3.179459548409    -0.883388347009     1.007825032070
           C         -0.511842228582    -0.552643548409    -1.798109347009    12.000000000000
           H          1.627047771418    -0.759613548409    -1.739129347009     1.007825032070
           H          0.833680771418    -1.927593548409    -2.757467347009     1.007825032070
           H         -0.601884228582     0.007172451591    -0.871476347009     1.007825032070
           H         -0.510286228582     0.160736451591    -2.616514347009     1.007825032070
           H         -1.400823228582    -1.168954548409    -1.898198347009     1.007825032070
           H         -0.658234228582     1.550602451591     2.716765652991     1.007825032070
           H         -1.954221228582     2.512078451591     1.989776652991     1.007825032070
           H         -1.947103228582     0.747933451591     1.848685652991     1.007825032070

  Running in c1 symmetry.

  Rotational constants: A =      0.08873  B =      0.03301  C =      0.02682 [cm^-1]
  Rotational constants: A =   2660.16449  B =    989.75493  C =    804.16534 [MHz]
  Nuclear repulsion =  487.970174736013007

  Charge       = 0
  Multiplicity = 1
  Electrons    = 72
  Nalpha       = 36
  Nbeta        = 36

  ==> Algorithm <==

  SCF Algorithm Type is DF.
  DIIS enabled.
  MOM disabled.
  Fractional occupation disabled.
  Guess Type is CORE.
  Energy threshold   = 1.00e-06
  Density threshold  = 1.00e-06
  Integral threshold = 0.00e+00

  ==> Primary Basis <==

  Basis Set: 6-31G*
    Number of shells: 86
    Number of basis function: 167
    Number of Cartesian functions: 167
    Spherical Harmonics?: false
    Max angular momentum: 2

  ==> Pre-Iterations <==

   -------------------------------------------------------
    Irrep   Nso     Nmo     Nalpha   Nbeta   Ndocc  Nsocc
   -------------------------------------------------------
     A        167     167       0       0       0       0
   -------------------------------------------------------
    Total     167     167      36      36      36       0
   -------------------------------------------------------

 OEINTS: Overlap, kinetic, potential, dipole, and quadrupole integrals
         stored in file 35.

  ==> Integral Setup <==

  ==> DFJK: Density-Fitted J/K Matrices <==

    J tasked:                  Yes
    K tasked:                  Yes
    wK tasked:                  No
    OpenMP threads:              1
    Integrals threads:           1
    Memory (MB):              1430
    Algorithm:                Core
    Integral Cache:           NONE
    Schwarz Cutoff:          1E-12
    Fitting Condition:       1E-12

   => Auxiliary Basis Set <=

  Basis Set: 
    Number of shells: 360
    Number of basis function: 1129
    Number of Cartesian functions: 1129
    Spherical Harmonics?: false
    Max angular momentum: 3

  Minimum eigenvalue in the overlap matrix is 2.7310513276E-03.
  Using Symmetric Orthogonalization.
  SCF Guess: Core (One-Electron) Hamiltonian.

  ==> Iterations <==

                           Total Energy        Delta E     RMS |[F,P]|

   @DF-RHF iter   1:  -302.30357157853035   -3.02304e+02   5.93849e-02 
   @DF-RHF iter   2:  -291.63044013292273    1.06731e+01   4.54977e-02 DIIS
   @DF-RHF iter   3:  -327.41215112248955   -3.57817e+01   4.86956e-02 DIIS
   @DF-RHF iter   4:  -378.31839591882596   -5.09062e+01   2.01333e-02 DIIS
   @DF-RHF iter   5:  -355.25993379471839    2.30585e+01   2.95328e-02 DIIS
   @DF-RHF iter   6:  -386.64696139249162   -3.13870e+01   4.31424e-03 DIIS
   @DF-RHF iter   7:  -386.95894542340312   -3.11984e-01   1.60486e-03 DIIS
   @DF-RHF iter   8:  -386.99370130945994   -3.47559e-02   7.06724e-04 DIIS
   @DF-RHF iter   9:  -387.00064088452217   -6.93958e-03   3.04785e-04 DIIS
   @DF-RHF iter  10:  -387.00240491035476   -1.76403e-03   1.43475e-04 DIIS
   @DF-RHF iter  11:  -387.00276069671128   -3.55786e-04   2.65927e-05 DIIS
   @DF-RHF iter  12:  -387.00277991242575   -1.92157e-05   7.72892e-06 DIIS
   @DF-RHF iter  13:  -387.00278171422241   -1.80180e-06   2.21300e-06 DIIS
   @DF-RHF iter  14:  -387.00278185494329   -1.40721e-07   8.00477e-07 DIIS

  ==> Post-Iterations <==

    Orbital Energies (a.u.)
    -----------------------

    Doubly Occupied:                                                      

       1A    -20.548997     2A    -11.325218     3A    -11.230352  
       4A    -11.225220     5A    -11.224771     6A    -11.222214  
       7A    -11.220689     8A    -11.210393     9A    -11.195992  
      10A     -1.394410    11A     -1.130077    12A     -1.052979  
      13A     -1.021585    14A     -0.990671    15A     -0.895071  
      16A     -0.848691    17A     -0.785094    18A     -0.748239  
      19A     -0.698270    20A     -0.655643    21A     -0.630335  
      22A     -0.620537    23A     -0.603939    24A     -0.599090  
      25A     -0.578897    26A     -0.567006    27A     -0.542893  
      28A     -0.536385    29A     -0.518924    30A     -0.501697  
      31A     -0.482040    32A     -0.470485    33A     -0.464852  
      34A     -0.453994    35A     -0.411989    36A     -0.393189  

    Virtual:                                                              

      37A      0.160992    38A      0.220883    39A      0.238419  
      40A      0.256023    41A      0.269285    42A      0.276916  
      43A      0.291633    44A      0.299133    45A      0.311364  
      46A      0.319459    47A      0.322947    48A      0.328834  
      49A      0.334313    50A      0.352337    51A      0.368841  
      52A      0.388169    53A      0.393968    54A      0.400250  
      55A      0.417046    56A      0.447387    57A      0.458566  
      58A      0.469285    59A      0.476932    60A      0.516311  
      61A      0.535574    62A      0.705993    63A      0.719777  
      64A      0.729245    65A      0.748361    66A      0.757889  
      67A      0.765551    68A      0.776907    69A      0.838213  
      70A      0.848228    71A      0.899550    72A      0.901177  
      73A      0.924597    74A      0.931321    75A      0.959678  
      76A      0.970609    77A      0.991491    78A      0.998055  
      79A      1.017489    80A      1.036629    81A      1.062960  
      82A      1.089771    83A      1.112237    84A      1.119339  
      85A      1.133464    86A      1.135681    87A      1.148868  
      88A      1.166192    89A      1.172419    90A      1.183620  
      91A      1.193644    92A      1.198527    93A      1.211830  
      94A      1.224308    95A      1.239096    96A      1.242772  
      97A      1.261077    98A      1.267021    99A      1.296324  
     100A      1.301428   101A      1.322785   102A      1.339812  
     103A      1.349314   104A      1.356941   105A      1.398360  
     106A      1.476997   107A      1.604780   108A      1.630267  
     109A      1.691698   110A      1.718945   111A      1.755654  
     112A      1.786440   113A      1.799734   114A      1.821574  
     115A      1.923024   116A      1.956867   117A      1.983888  
     118A      2.018775   119A      2.076286   120A      2.094679  
     121A      2.100379   122A      2.110834   123A      2.137764  
     124A      2.192708   125A      2.208141   126A      2.224689  
     127A      2.237882   128A      2.251992   129A      2.287019  
     130A      2.323958   131A      2.334216   132A      2.371887  
     133A      2.386835   134A      2.408769   135A      2.421576  
     136A      2.494711   137A      2.543208   138A      2.580832  
     139A      2.583973   140A      2.634333   141A      2.665135  
     142A      2.696045   143A      2.716477   144A      2.717806  
     145A      2.754152   146A      2.767591   147A      2.793651  
     148A      2.835054   149A      2.910061   150A      2.948812  
     151A      2.962323   152A      2.983456   153A      3.015914  
     154A      3.045970   155A      3.108469   156A      3.177529  
     157A      3.384919   158A      3.421027   159A      4.483078  
     160A      4.553439   161A      4.606117   162A      4.733452  
     163A      4.797550   164A      4.812412   165A      4.954983  
     166A      4.992858   167A      5.095557  

    Final Occupation by Irrep:
              A 
    DOCC [    36 ]

  Energy converged.

  @DF-RHF Final Energy:  -387.00278185494329

   => Energetics <=

    Nuclear Repulsion Energy =            487.9701747360130071
    One-Electron Energy =               -1491.9439003225541001
    Two-Electron Energy =                 616.9709437316004141
    DFT Exchange-Correlation Energy =       0.0000000000000000
    Empirical Dispersion Energy =           0.0000000000000000
    PCM Polarization Energy =               0.0000000000000000
    EFP Energy =                            0.0000000000000000
    Total Energy =                       -387.0027818549407357

    Alert: EFP and PCM quantities not currently incorporated into SCF psivars.

Properties will be evaluated at   0.000000,   0.000000,   0.000000 Bohr
  ==> Properties <==


Properties computed using the SCF density matrix

  Nuclear Dipole Moment: (a.u.)
     X:     0.9010      Y:    -8.4850      Z:    -0.0583

  Electronic Dipole Moment: (a.u.)
     X:    -0.6912      Y:     7.3969      Z:     0.7023

  Dipole Moment: (a.u.)
     X:     0.2098      Y:    -1.0881      Z:     0.6439     Total:     1.2816

  Dipole Moment: (Debye)
     X:     0.5332      Y:    -2.7657      Z:     1.6367     Total:     3.2576


  Saving occupied orbitals to File 180.

*** tstop() called on cx1-1-2-1.cx1.hpc.ic.ac.uk at Tue Jul  5 17:43:49 2016
Module time:
	user time   =      25.45 seconds =       0.42 minutes
	system time =       0.23 seconds =       0.00 minutes
	total time  =         26 seconds =       0.43 minutes
Total time:
	user time   =      25.45 seconds =       0.42 minutes
	system time =       0.23 seconds =       0.00 minutes
	total time  =         26 seconds =       0.43 minutes


Properties will be evaluated at   0.000000,   0.000000,   0.000000 Bohr

Properties computed using the  density matrix

  Nuclear Dipole Moment: (a.u.)
     X:     0.9010      Y:    -8.4850      Z:    -0.0583

  Electronic Dipole Moment: (a.u.)
     X:    -0.6912      Y:     7.3969      Z:     0.7023

  Dipole Moment: (a.u.)
     X:     0.2098      Y:    -1.0881      Z:     0.6439     Total:     1.2816

  Dipole Moment: (Debye)
     X:     0.5332      Y:    -2.7657      Z:     1.6367     Total:     3.2576

  Quadrupole Moment: (Debye Ang)
    XX:   -58.0249     YY:   -68.8768     ZZ:   -56.7016
    XY:     1.8230     XZ:    -1.7160     YZ:     3.4927

  Traceless Quadrupole Moment: (Debye Ang)
    XX:     3.1762     YY:    -7.6757     ZZ:     4.4995
    XY:     1.8230     XZ:    -1.7160     YZ:     3.4927

  Mulliken Charges: (a.u.)
   Center  Symbol    Alpha    Beta     Spin     Total
       1     O     4.26205  4.26205  0.00000 -0.52411
       2     C     2.72576  2.72576  0.00000  0.54848
       3     C     3.26620  3.26620  0.00000 -0.53240
       4     C     3.29543  3.29543  0.00000 -0.59086
       5     C     3.17670  3.17670  0.00000 -0.35339
       6     H     0.36270  0.36270  0.00000  0.27460
       7     H     0.39686  0.39686  0.00000  0.20628
       8     C     3.15121  3.15121  0.00000 -0.30242
       9     H     0.41388  0.41388  0.00000  0.17225
      10     H     0.41039  0.41039  0.00000  0.17922
      11     C     3.15060  3.15060  0.00000 -0.30119
      12     H     0.42054  0.42054  0.00000  0.15892
      13     H     0.41720  0.41720  0.00000  0.16561
      14     C     3.17577  3.17577  0.00000 -0.35153
      15     H     0.42147  0.42147  0.00000  0.15705
      16     H     0.41800  0.41800  0.00000  0.16399
      17     C     3.27979  3.27979  0.00000 -0.55959
      18     H     0.41578  0.41578  0.00000  0.16843
      19     H     0.41097  0.41097  0.00000  0.17805
      20     H     0.39267  0.39267  0.00000  0.21467
      21     H     0.40730  0.40730  0.00000  0.18540
      22     H     0.41822  0.41822  0.00000  0.16355
      23     H     0.40719  0.40719  0.00000  0.18562
      24     H     0.39612  0.39612  0.00000  0.20775
      25     H     0.40719  0.40719  0.00000  0.18562

   Total alpha = 36.00000, Total beta = 36.00000, Total charge = -0.00000


*** PSI4 exiting successfully. Buy a developer a beer!
