    -----------------------------------------------------------------------
          Psi4: An Open-Source Ab Initio Electronic Structure Package
                              Psi4 (no tag) Driver

                          Git: Rev {detached?}  

    J. M. Turney, A. C. Simmonett, R. M. Parrish, E. G. Hohenstein,
    F. A. Evangelista, J. T. Fermann, B. J. Mintz, L. A. Burns, J. J. Wilke,
    M. L. Abrams, N. J. Russ, M. L. Leininger, C. L. Janssen, E. T. Seidl,
    W. D. Allen, H. F. Schaefer, R. A. King, E. F. Valeev, C. D. Sherrill,
    and T. D. Crawford, WIREs Comput. Mol. Sci. 2, 556-565 (2012)
    (doi: 10.1002/wcms.93)

                         Additional Contributions by
    A. E. DePrince, M. Saitow, U. Bozkaya, A. Yu. Sokolov
    -----------------------------------------------------------------------


    Psi4 started on: Tue Jul 26 13:34:01 2016

    Process ID:  12253
    PSI4DATADIR: /export131/home/mjharvey/miniconda3/share
    Memory level set to 256.000 MB

  ==> Input File <==

--------------------------------------------------------------------------
set {
	reference rhf
	basis 6-31G*
}


set_num_threads( 24 )
memory 2 gb

molecule MOL {
0 1

H	 -0.902577	 -2.999118	 0.667164
C	 -1.614433	 -2.232418	 0.904251
C	 -1.224516	 -1.150904	 1.538115
H	 -2.638759	 -2.374891	 0.612670
O	 -0.058873	 -1.105489	 2.235090
H	 -1.790241	 -0.236528	 1.528053
C	 1.122280	 -0.938099	 1.529193
C	 1.575007	 -2.228300	 0.883472
H	 1.928985	 -0.573371	 2.155427
H	 0.937284	 -0.221590	 0.743120
F	 0.516023	 -2.913006	 0.476399
F	 2.338925	 -2.006426	 -0.172989
F	 2.253173	 -2.987911	 1.717973

	symmetry c1
}
set optking {
	frozen_dihedral = ("
		11 8 7 9,
		3 5 7 9,
		6 3 2 1
	")
}

ee = energy('scf')
oeprop('DIPOLE', 'QUADRUPOLE', 'MULLIKEN_CHARGES')
f=open( 'psi4out.xyz', 'w' )
f.write( "13  " )
f.write( str(ee) + "\n" )
f.write( MOL.save_string_xyz() )
f.close()
--------------------------------------------------------------------------

  Memory set to   2.000 GiB by Python script.

*** tstart() called on cx1b.hpc.ic.ac.uk
*** at Tue Jul 26 13:34:02 2016


         ---------------------------------------------------------
                                   SCF
            by Justin Turney, Rob Parrish, and Andy Simmonett
                              RHF Reference
                       24 Threads,   2000 MiB Core
         ---------------------------------------------------------

  ==> Geometry <==

    Molecular point group: c1
    Full point group: C1

    Geometry (in Angstrom), charge = 0, multiplicity = 1:

       Center              X                  Y                   Z               Mass       
    ------------   -----------------  -----------------  -----------------  -----------------
           H         -1.631930948803    -0.991954050046    -0.429125810906     1.007825032070
           C         -2.343786948803    -0.225254050046    -0.192038810906    12.000000000000
           C         -1.953869948803     0.856259949954     0.441825189094    12.000000000000
           H         -3.368112948803    -0.367727050046    -0.483619810906     1.007825032070
           O         -0.788226948803     0.901674949954     1.138800189094    15.994914619560
           H         -2.519594948803     1.770635949954     0.431763189094     1.007825032070
           C          0.392926051197     1.069064949954     0.432903189094    12.000000000000
           C          0.845653051197    -0.221136050046    -0.212817810906    12.000000000000
           H          1.199631051197     1.433792949954     1.059137189094     1.007825032070
           H          0.207930051197     1.785573949954    -0.353169810906     1.007825032070
           F         -0.213330948803    -0.905842050046    -0.619890810906    18.998403224000
           F          1.609571051197     0.000737949954    -1.269278810906    18.998403224000
           F          1.523819051197    -0.980747050046     0.621683189094    18.998403224000

  Running in c1 symmetry.

  Rotational constants: A =      0.12700  B =      0.05323  C =      0.04757 [cm^-1]
  Rotational constants: A =   3807.38285  B =   1595.92039  C =   1426.06374 [MHz]
  Nuclear repulsion =  429.427578443310210

  Charge       = 0
  Multiplicity = 1
  Electrons    = 64
  Nalpha       = 32
  Nbeta        = 32

  ==> Algorithm <==

  SCF Algorithm Type is DF.
  DIIS enabled.
  MOM disabled.
  Fractional occupation disabled.
  Guess Type is CORE.
  Energy threshold   = 1.00e-06
  Density threshold  = 1.00e-06
  Integral threshold = 0.00e+00

  ==> Primary Basis <==

  Basis Set: 6-31G*
    Number of shells: 58
    Number of basis function: 130
    Number of Cartesian functions: 130
    Spherical Harmonics?: false
    Max angular momentum: 2

  ==> Pre-Iterations <==

   -------------------------------------------------------
    Irrep   Nso     Nmo     Nalpha   Nbeta   Ndocc  Nsocc
   -------------------------------------------------------
     A        130     130       0       0       0       0
   -------------------------------------------------------
    Total     130     130      32      32      32       0
   -------------------------------------------------------

 OEINTS: Overlap, kinetic, potential, dipole, and quadrupole integrals
         stored in file 35.

  ==> Integral Setup <==

  ==> DFJK: Density-Fitted J/K Matrices <==

    J tasked:                  Yes
    K tasked:                  Yes
    wK tasked:                  No
    OpenMP threads:             24
    Integrals threads:          24
    Memory (MB):              1430
    Algorithm:                Core
    Integral Cache:           NONE
    Schwarz Cutoff:          1E-12
    Fitting Condition:       1E-12

   => Auxiliary Basis Set <=

  Basis Set: 
    Number of shells: 237
    Number of basis function: 773
    Number of Cartesian functions: 773
    Spherical Harmonics?: false
    Max angular momentum: 3

  Minimum eigenvalue in the overlap matrix is 1.7733962785E-03.
  Using Symmetric Orthogonalization.
  SCF Guess: Core (One-Electron) Hamiltonian.

  ==> Iterations <==

                           Total Energy        Delta E     RMS |[F,P]|

   @DF-RHF iter   1:  -442.28519787900433   -4.42285e+02   7.63615e-02 
   @DF-RHF iter   2:  -226.26247769558728    2.16023e+02   1.01731e-01 DIIS
   @DF-RHF iter   3:  -488.85623528860793   -2.62594e+02   4.46037e-02 DIIS
   @DF-RHF iter   4:  -426.38231155035379    6.24739e+01   6.44324e-02 DIIS
   @DF-RHF iter   5:  -524.14337822664061   -9.77611e+01   1.51264e-02 DIIS
   @DF-RHF iter   6:  -526.85726561869956   -2.71389e+00   9.17653e-03 DIIS
   @DF-RHF iter   7:  -527.41726164872193   -5.59996e-01   2.19916e-03 DIIS
   @DF-RHF iter   8:  -527.45508229125517   -3.78206e-02   1.11789e-03 DIIS
   @DF-RHF iter   9:  -527.46719399968742   -1.21117e-02   4.71741e-04 DIIS
   @DF-RHF iter  10:  -527.46939504493957   -2.20105e-03   1.88386e-04 DIIS
   @DF-RHF iter  11:  -527.46982803820856   -4.32993e-04   3.13173e-05 DIIS
   @DF-RHF iter  12:  -527.46984233828948   -1.43001e-05   1.19064e-05 DIIS
   @DF-RHF iter  13:  -527.46984523298602   -2.89470e-06   5.27948e-06 DIIS
   @DF-RHF iter  14:  -527.46984558886061   -3.55875e-07   1.54614e-06 DIIS
   @DF-RHF iter  15:  -527.46984564769150   -5.88309e-08   5.06058e-07 DIIS

  ==> Post-Iterations <==

    Orbital Energies (a.u.)
    -----------------------

    Doubly Occupied:                                                      

       1A    -26.352874     2A    -26.350447     3A    -26.347376  
       4A    -20.593282     5A    -11.508816     6A    -11.315308  
       7A    -11.280127     8A    -11.200651     9A     -1.753466  
      10A     -1.657620    11A     -1.645334    12A     -1.427863  
      13A     -1.082504    14A     -1.010675    15A     -0.953501  
      16A     -0.851916    17A     -0.840491    18A     -0.813901  
      19A     -0.791640    20A     -0.731704    21A     -0.720934  
      22A     -0.699897    23A     -0.673170    24A     -0.666944  
      25A     -0.657275    26A     -0.652480    27A     -0.645750  
      28A     -0.593950    29A     -0.538822    30A     -0.501782  
      31A     -0.459717    32A     -0.356923  

    Virtual:                                                              

      33A      0.178319    34A      0.253895    35A      0.270544  
      36A      0.286418    37A      0.304092    38A      0.333516  
      39A      0.355680    40A      0.407981    41A      0.426856  
      42A      0.459983    43A      0.489294    44A      0.515475  
      45A      0.553101    46A      0.674147    47A      0.707711  
      48A      0.735016    49A      0.750440    50A      0.787300  
      51A      0.797522    52A      0.801154    53A      0.809229  
      54A      0.881102    55A      0.905106    56A      0.915689  
      57A      0.995162    58A      1.065588    59A      1.108072  
      60A      1.117134    61A      1.137655    62A      1.155897  
      63A      1.209893    64A      1.219219    65A      1.293118  
      66A      1.328099    67A      1.339693    68A      1.374925  
      69A      1.383110    70A      1.441220    71A      1.492695  
      72A      1.538583    73A      1.604689    74A      1.618822  
      75A      1.636058    76A      1.647346    77A      1.665027  
      78A      1.675769    79A      1.725884    80A      1.733819  
      81A      1.831620    82A      1.850414    83A      1.876188  
      84A      1.917919    85A      1.964117    86A      1.995255  
      87A      2.058574    88A      2.092877    89A      2.113258  
      90A      2.120711    91A      2.145975    92A      2.184687  
      93A      2.200305    94A      2.245929    95A      2.281559  
      96A      2.297536    97A      2.330731    98A      2.361247  
      99A      2.374982   100A      2.390663   101A      2.403364  
     102A      2.418351   103A      2.457892   104A      2.514723  
     105A      2.542958   106A      2.609917   107A      2.687742  
     108A      2.707608   109A      2.768949   110A      2.807187  
     111A      2.839719   112A      2.917881   113A      3.080727  
     114A      3.089384   115A      3.149898   116A      3.200823  
     117A      3.227790   118A      3.311961   119A      3.380141  
     120A      3.422811   121A      3.429776   122A      3.460473  
     123A      4.345101   124A      4.597274   125A      4.618905  
     126A      4.755451   127A      4.891639   128A      5.011431  
     129A      5.127431   130A      5.927969  

    Final Occupation by Irrep:
              A 
    DOCC [    32 ]

  Energy converged.

  @DF-RHF Final Energy:  -527.46984564769150

   => Energetics <=

    Nuclear Repulsion Energy =            429.4275784433102103
    One-Electron Energy =               -1582.4405929023337194
    Two-Electron Energy =                 625.5431688113319524
    DFT Exchange-Correlation Energy =       0.0000000000000000
    Empirical Dispersion Energy =           0.0000000000000000
    PCM Polarization Energy =               0.0000000000000000
    EFP Energy =                            0.0000000000000000
    Total Energy =                       -527.4698456476914998

    Alert: EFP and PCM quantities not currently incorporated into SCF psivars.

Properties will be evaluated at   0.000000,   0.000000,   0.000000 Bohr
  ==> Properties <==


Properties computed using the SCF density matrix

  Nuclear Dipole Moment: (a.u.)
     X:    -8.4883      Y:     5.1867      Z:     1.4121

  Electronic Dipole Moment: (a.u.)
     X:     8.5581      Y:    -4.5650      Z:    -1.7066

  Dipole Moment: (a.u.)
     X:     0.0698      Y:     0.6217      Z:    -0.2945     Total:     0.6915

  Dipole Moment: (Debye)
     X:     0.1773      Y:     1.5802      Z:    -0.7486     Total:     1.7575


  Saving occupied orbitals to File 180.

*** tstop() called on cx1b.hpc.ic.ac.uk at Tue Jul 26 13:34:08 2016
Module time:
	user time   =      64.44 seconds =       1.07 minutes
	system time =       2.71 seconds =       0.05 minutes
	total time  =          6 seconds =       0.10 minutes
Total time:
	user time   =      64.44 seconds =       1.07 minutes
	system time =       2.71 seconds =       0.05 minutes
	total time  =          6 seconds =       0.10 minutes


Properties will be evaluated at   0.000000,   0.000000,   0.000000 Bohr

Properties computed using the  density matrix

  Nuclear Dipole Moment: (a.u.)
     X:    -8.4883      Y:     5.1867      Z:     1.4121

  Electronic Dipole Moment: (a.u.)
     X:     8.5581      Y:    -4.5650      Z:    -1.7066

  Dipole Moment: (a.u.)
     X:     0.0698      Y:     0.6217      Z:    -0.2945     Total:     0.6915

  Dipole Moment: (Debye)
     X:     0.1773      Y:     1.5802      Z:    -0.7486     Total:     1.7575

  Quadrupole Moment: (Debye Ang)
    XX:   -43.9398     YY:   -41.8625     ZZ:   -48.3055
    XY:     1.2107     XZ:     2.8203     YZ:     0.3248

  Traceless Quadrupole Moment: (Debye Ang)
    XX:     0.7628     YY:     2.8401     ZZ:    -3.6029
    XY:     1.2107     XZ:     2.8203     YZ:     0.3248

  Mulliken Charges: (a.u.)
   Center  Symbol    Alpha    Beta     Spin     Total
       1     H     0.36500  0.36500  0.00000  0.27001
       2     C     3.22564  3.22564  0.00000 -0.45127
       3     C     2.93677  2.93677  0.00000  0.12646
       4     H     0.41340  0.41340  0.00000  0.17321
       5     O     4.30430  4.30430  0.00000 -0.60860
       6     H     0.40898  0.40898  0.00000  0.18204
       7     C     3.06082  3.06082  0.00000 -0.12164
       8     C     2.44956  2.44956  0.00000  1.10089
       9     H     0.39206  0.39206  0.00000  0.21589
      10     H     0.40659  0.40659  0.00000  0.18682
      11     F     4.68152  4.68152  0.00000 -0.36305
      12     F     4.68009  4.68009  0.00000 -0.36019
      13     F     4.67528  4.67528  0.00000 -0.35056

   Total alpha = 32.00000, Total beta = 32.00000, Total charge = -0.00000


*** PSI4 exiting successfully. Buy a developer a beer!
