    -----------------------------------------------------------------------
          Psi4: An Open-Source Ab Initio Electronic Structure Package
                              Psi4 (no tag) Driver

                          Git: Rev {detached?}  

    J. M. Turney, A. C. Simmonett, R. M. Parrish, E. G. Hohenstein,
    F. A. Evangelista, J. T. Fermann, B. J. Mintz, L. A. Burns, J. J. Wilke,
    M. L. Abrams, N. J. Russ, M. L. Leininger, C. L. Janssen, E. T. Seidl,
    W. D. Allen, H. F. Schaefer, R. A. King, E. F. Valeev, C. D. Sherrill,
    and T. D. Crawford, WIREs Comput. Mol. Sci. 2, 556-565 (2012)
    (doi: 10.1002/wcms.93)

                         Additional Contributions by
    A. E. DePrince, M. Saitow, U. Bozkaya, A. Yu. Sokolov
    -----------------------------------------------------------------------


    Psi4 started on: Tue Jul  5 16:33:41 2016

    Process ID:  20512
    PSI4DATADIR: /export131/home/mjharvey/miniconda3/share
    Memory level set to 256.000 MB

  ==> Input File <==

--------------------------------------------------------------------------
set {
	reference rhf
	basis 6-31G*
}


set_num_threads( 1 )
memory 2 gb

molecule MOL {
0 1

O	 1.066834	 -2.032293	 1.712165
C	 0.275803	 -1.645901	 0.914452
C	 -1.147444	 -2.120194	 0.804999
O	 0.550821	 -0.724572	 0.000672
H	 -1.823175	 -1.281819	 0.928282
H	 -1.339790	 -2.865528	 1.562212
H	 -1.318951	 -2.538157	 -0.180127
C	 -0.223343	 0.461173	 0.031615
H	 0.194307	 1.204505	 -0.631999
H	 -0.189092	 0.809028	 1.052190
H	 -1.243107	 0.256166	 -0.260611

	symmetry c1
}
set optking {
	frozen_dihedral = ("
		2 4 8 9
	")
}

ee = energy('scf')
oeprop('DIPOLE', 'QUADRUPOLE', 'MULLIKEN_CHARGES')
f=open( 'psi4out.xyz', 'w' )
f.write( "11  " )
f.write( str(ee) + "\n" )
f.write( MOL.save_string_xyz() )
f.close()
--------------------------------------------------------------------------

  Memory set to   2.000 GiB by Python script.

*** tstart() called on cx1-1-4-3.cx1.hpc.ic.ac.uk
*** at Tue Jul  5 16:33:42 2016


         ---------------------------------------------------------
                                   SCF
            by Justin Turney, Rob Parrish, and Andy Simmonett
                              RHF Reference
                        1 Threads,   2000 MiB Core
         ---------------------------------------------------------

  ==> Geometry <==

    Molecular point group: c1
    Full point group: C1

    Geometry (in Angstrom), charge = 0, multiplicity = 1:

       Center              X                  Y                   Z               Mass       
    ------------   -----------------  -----------------  -----------------  -----------------
           O          0.972693223194    -0.840922389533     1.024685771737    15.994914619560
           C          0.181662223194    -0.454530389533     0.226972771737    12.000000000000
           C         -1.241584776806    -0.928823389533     0.117519771737    12.000000000000
           O          0.456680223194     0.466798610467    -0.686807228263    15.994914619560
           H         -1.917315776806    -0.090448389533     0.240802771737     1.007825032070
           H         -1.433930776806    -1.674157389533     0.874732771737     1.007825032070
           H         -1.413091776806    -1.346786389533    -0.867606228263     1.007825032070
           C         -0.317483776806     1.652543610467    -0.655864228263    12.000000000000
           H          0.100166223194     2.395875610467    -1.319478228263     1.007825032070
           H         -0.283232776806     2.000398610467     0.364710771737     1.007825032070
           H         -1.337247776806     1.447536610467    -0.948090228263     1.007825032070

  Running in c1 symmetry.

  Rotational constants: A =      0.28559  B =      0.15348  C =      0.11167 [cm^-1]
  Rotational constants: A =   8561.80786  B =   4601.08213  C =   3347.76560 [MHz]
  Nuclear repulsion =  184.044239032029424

  Charge       = 0
  Multiplicity = 1
  Electrons    = 40
  Nalpha       = 20
  Nbeta        = 20

  ==> Algorithm <==

  SCF Algorithm Type is DF.
  DIIS enabled.
  MOM disabled.
  Fractional occupation disabled.
  Guess Type is CORE.
  Energy threshold   = 1.00e-06
  Density threshold  = 1.00e-06
  Integral threshold = 0.00e+00

  ==> Primary Basis <==

  Basis Set: 6-31G*
    Number of shells: 42
    Number of basis function: 87
    Number of Cartesian functions: 87
    Spherical Harmonics?: false
    Max angular momentum: 2

  ==> Pre-Iterations <==

   -------------------------------------------------------
    Irrep   Nso     Nmo     Nalpha   Nbeta   Ndocc  Nsocc
   -------------------------------------------------------
     A         87      87       0       0       0       0
   -------------------------------------------------------
    Total      87      87      20      20      20       0
   -------------------------------------------------------

 OEINTS: Overlap, kinetic, potential, dipole, and quadrupole integrals
         stored in file 35.

  ==> Integral Setup <==

  ==> DFJK: Density-Fitted J/K Matrices <==

    J tasked:                  Yes
    K tasked:                  Yes
    wK tasked:                  No
    OpenMP threads:              1
    Integrals threads:           1
    Memory (MB):              1430
    Algorithm:                Core
    Integral Cache:           NONE
    Schwarz Cutoff:          1E-12
    Fitting Condition:       1E-12

   => Auxiliary Basis Set <=

  Basis Set: 
    Number of shells: 174
    Number of basis function: 555
    Number of Cartesian functions: 555
    Spherical Harmonics?: false
    Max angular momentum: 3

  Minimum eigenvalue in the overlap matrix is 4.0449605819E-03.
  Using Symmetric Orthogonalization.
  SCF Guess: Core (One-Electron) Hamiltonian.

  ==> Iterations <==

                           Total Energy        Delta E     RMS |[F,P]|

   @DF-RHF iter   1:  -212.81449727171972   -2.12814e+02   8.92580e-02 
   @DF-RHF iter   2:  -205.16790531261537    7.64659e+00   6.25706e-02 DIIS
   @DF-RHF iter   3:  -228.13041572775316   -2.29625e+01   7.32012e-02 DIIS
   @DF-RHF iter   4:  -257.71537464327173   -2.95850e+01   4.24519e-02 DIIS
   @DF-RHF iter   5:  -264.14677637609634   -6.43140e+00   2.32191e-02 DIIS
   @DF-RHF iter   6:  -266.18238068018002   -2.03560e+00   1.13288e-02 DIIS
   @DF-RHF iter   7:  -266.71096971315308   -5.28589e-01   4.31920e-03 DIIS
   @DF-RHF iter   8:  -266.80116552610514   -9.01958e-02   1.26915e-03 DIIS
   @DF-RHF iter   9:  -266.80897441397815   -7.80889e-03   5.69942e-04 DIIS
   @DF-RHF iter  10:  -266.81057080185258   -1.59639e-03   1.71148e-04 DIIS
   @DF-RHF iter  11:  -266.81077059791073   -1.99796e-04   5.54072e-05 DIIS
   @DF-RHF iter  12:  -266.81080128487827   -3.06870e-05   2.98075e-05 DIIS
   @DF-RHF iter  13:  -266.81080578426838   -4.49939e-06   7.12374e-06 DIIS
   @DF-RHF iter  14:  -266.81080643332871   -6.49060e-07   2.54123e-06 DIIS
   @DF-RHF iter  15:  -266.81080649476473   -6.14360e-08   5.73019e-07 DIIS

  ==> Post-Iterations <==

    Orbital Energies (a.u.)
    -----------------------

    Doubly Occupied:                                                      

       1A    -20.593462     2A    -20.554882     3A    -11.378908  
       4A    -11.300277     5A    -11.237651     6A     -1.466720  
       7A     -1.371157     8A     -1.024134     9A     -0.980843  
      10A     -0.783004    11A     -0.694395    12A     -0.689531  
      13A     -0.682266    14A     -0.620882    15A     -0.589874  
      16A     -0.574453    17A     -0.548109    18A     -0.493628  
      19A     -0.461574    20A     -0.440533  

    Virtual:                                                              

      21A      0.176835    22A      0.221166    23A      0.276594  
      24A      0.289113    25A      0.298807    26A      0.303077  
      27A      0.341653    28A      0.348706    29A      0.403541  
      30A      0.504884    31A      0.555073    32A      0.710660  
      33A      0.732742    34A      0.750440    35A      0.781423  
      36A      0.811092    37A      0.831223    38A      0.851962  
      39A      0.931638    40A      0.968532    41A      1.030193  
      42A      1.103083    43A      1.108948    44A      1.133627  
      45A      1.142007    46A      1.164116    47A      1.195225  
      48A      1.245661    49A      1.256655    50A      1.285615  
      51A      1.352491    52A      1.358128    53A      1.387782  
      54A      1.452785    55A      1.577011    56A      1.671062  
      57A      1.723965    58A      1.803063    59A      1.840952  
      60A      1.934671    61A      2.019589    62A      2.069226  
      63A      2.122498    64A      2.142050    65A      2.187744  
      66A      2.226587    67A      2.321824    68A      2.379734  
      69A      2.409971    70A      2.481664    71A      2.538249  
      72A      2.577857    73A      2.650920    74A      2.680603  
      75A      2.737073    76A      2.775952    77A      3.021208  
      78A      3.111636    79A      3.222289    80A      3.254955  
      81A      3.370047    82A      3.507770    83A      4.363298  
      84A      4.523742    85A      4.635883    86A      4.656400  
      87A      4.902092  

    Final Occupation by Irrep:
              A 
    DOCC [    20 ]

  Energy converged.

  @DF-RHF Final Energy:  -266.81080649476473

   => Energetics <=

    Nuclear Repulsion Energy =            184.0442390320294237
    One-Electron Energy =                -728.7375260890215714
    Two-Electron Energy =                 277.8824805622276699
    DFT Exchange-Correlation Energy =       0.0000000000000000
    Empirical Dispersion Energy =           0.0000000000000000
    PCM Polarization Energy =               0.0000000000000000
    EFP Energy =                            0.0000000000000000
    Total Energy =                       -266.8108064947645062

    Alert: EFP and PCM quantities not currently incorporated into SCF psivars.

Properties will be evaluated at   0.000000,   0.000000,   0.000000 Bohr
  ==> Properties <==


Properties computed using the SCF density matrix

  Nuclear Dipole Moment: (a.u.)
     X:    -5.8848      Y:     2.5598      Z:    -1.5498

  Electronic Dipole Moment: (a.u.)
     X:     4.4995      Y:    -1.8155      Z:     1.0064

  Dipole Moment: (a.u.)
     X:    -1.3853      Y:     0.7443      Z:    -0.5434     Total:     1.6638

  Dipole Moment: (Debye)
     X:    -3.5210      Y:     1.8918      Z:    -1.3812     Total:     4.2289


  Saving occupied orbitals to File 180.

*** tstop() called on cx1-1-4-3.cx1.hpc.ic.ac.uk at Tue Jul  5 16:33:46 2016
Module time:
	user time   =       3.58 seconds =       0.06 minutes
	system time =       0.04 seconds =       0.00 minutes
	total time  =          4 seconds =       0.07 minutes
Total time:
	user time   =       3.58 seconds =       0.06 minutes
	system time =       0.04 seconds =       0.00 minutes
	total time  =          4 seconds =       0.07 minutes


Properties will be evaluated at   0.000000,   0.000000,   0.000000 Bohr

Properties computed using the  density matrix

  Nuclear Dipole Moment: (a.u.)
     X:    -5.8848      Y:     2.5598      Z:    -1.5498

  Electronic Dipole Moment: (a.u.)
     X:     4.4995      Y:    -1.8155      Z:     1.0064

  Dipole Moment: (a.u.)
     X:    -1.3853      Y:     0.7443      Z:    -0.5434     Total:     1.6638

  Dipole Moment: (Debye)
     X:    -3.5210      Y:     1.8918      Z:    -1.3812     Total:     4.2289

  Quadrupole Moment: (Debye Ang)
    XX:   -32.0320     YY:   -26.6212     ZZ:   -32.1112
    XY:     1.1028     XZ:    -1.3487     YZ:     0.9079

  Traceless Quadrupole Moment: (Debye Ang)
    XX:    -1.7772     YY:     3.6336     ZZ:    -1.8564
    XY:     1.1028     XZ:    -1.3487     YZ:     0.9079

  Mulliken Charges: (a.u.)
   Center  Symbol    Alpha    Beta     Spin     Total
       1     O     4.25553  4.25553  0.00000 -0.51105
       2     C     2.62572  2.62572  0.00000  0.74856
       3     C     3.29824  3.29824  0.00000 -0.59648
       4     O     4.29856  4.29856  0.00000 -0.59712
       5     H     0.40631  0.40631  0.00000  0.18738
       6     H     0.39463  0.39463  0.00000  0.21074
       7     H     0.39796  0.39796  0.00000  0.20408
       8     C     3.09752  3.09752  0.00000 -0.19505
       9     H     0.39700  0.39700  0.00000  0.20599
      10     H     0.41177  0.41177  0.00000  0.17646
      11     H     0.41676  0.41676  0.00000  0.16648

   Total alpha = 20.00000, Total beta = 20.00000, Total charge = -0.00000


*** PSI4 exiting successfully. Buy a developer a beer!
