    -----------------------------------------------------------------------
          Psi4: An Open-Source Ab Initio Electronic Structure Package
                              Psi4 (no tag) Driver

                          Git: Rev {detached?}  

    J. M. Turney, A. C. Simmonett, R. M. Parrish, E. G. Hohenstein,
    F. A. Evangelista, J. T. Fermann, B. J. Mintz, L. A. Burns, J. J. Wilke,
    M. L. Abrams, N. J. Russ, M. L. Leininger, C. L. Janssen, E. T. Seidl,
    W. D. Allen, H. F. Schaefer, R. A. King, E. F. Valeev, C. D. Sherrill,
    and T. D. Crawford, WIREs Comput. Mol. Sci. 2, 556-565 (2012)
    (doi: 10.1002/wcms.93)

                         Additional Contributions by
    A. E. DePrince, M. Saitow, U. Bozkaya, A. Yu. Sokolov
    -----------------------------------------------------------------------


    Psi4 started on: Tue Jul 26 13:29:15 2016

    Process ID:  10044
    PSI4DATADIR: /export131/home/mjharvey/miniconda3/share
    Memory level set to 256.000 MB

  ==> Input File <==

--------------------------------------------------------------------------
set {
	reference rhf
	basis 6-31G*
}


set_num_threads( 24 )
memory 2 gb

molecule MOL {
0 1

H	 -3.793000	 1.004000	 -0.340000
C	 -3.097000	 0.384000	 0.191000
C	 -1.977000	 0.015000	 -0.386000
H	 -3.341000	 0.079000	 1.192000
O	 -1.081000	 -0.797000	 0.234000
H	 -1.712000	 0.315000	 -1.384000
C	 0.151000	 -0.997000	 -0.369000
C	 1.143000	 0.077000	 0.017000
H	 0.082000	 -1.019000	 -1.451000
H	 0.537000	 -1.944000	 -0.023000
F	 0.942633	 0.429544	 1.278564
F	 2.391066	 -0.347800	 -0.086844
F	 1.021272	 1.154467	 -0.729697

	symmetry c1
}
set optking {
	frozen_dihedral = ("
		3 5 7 9,
		6 3 2 1,
		6 3 5 7
	")
}

ee = energy('scf')
oeprop('DIPOLE', 'QUADRUPOLE', 'MULLIKEN_CHARGES')
f=open( 'psi4out.xyz', 'w' )
f.write( "13  " )
f.write( str(ee) + "\n" )
f.write( MOL.save_string_xyz() )
f.close()
--------------------------------------------------------------------------

  Memory set to   2.000 GiB by Python script.

*** tstart() called on cx1b.hpc.ic.ac.uk
*** at Tue Jul 26 13:29:16 2016


         ---------------------------------------------------------
                                   SCF
            by Justin Turney, Rob Parrish, and Andy Simmonett
                              RHF Reference
                       24 Threads,   2000 MiB Core
         ---------------------------------------------------------

  ==> Geometry <==

    Molecular point group: c1
    Full point group: C1

    Geometry (in Angstrom), charge = 0, multiplicity = 1:

       Center              X                  Y                   Z               Mass       
    ------------   -----------------  -----------------  -----------------  -----------------
           H         -3.886594271929     0.980919310925    -0.371221421031     1.007825032070
           C         -3.190594271929     0.360919310925     0.159778578969    12.000000000000
           C         -2.070594271929    -0.008080689075    -0.417221421031    12.000000000000
           H         -3.434594271929     0.055919310925     1.160778578969     1.007825032070
           O         -1.174594271929    -0.820080689075     0.202778578969    15.994914619560
           H         -1.805594271929     0.291919310925    -1.415221421031     1.007825032070
           C          0.057405728071    -1.020080689075    -0.400221421031    12.000000000000
           C          1.049405728071     0.053919310925    -0.014221421031    12.000000000000
           H         -0.011594271929    -1.042080689075    -1.482221421031     1.007825032070
           H          0.443405728071    -1.967080689075    -0.054221421031     1.007825032070
           F          0.849038728071     0.406463310925     1.247342578969    18.998403224000
           F          2.297471728071    -0.370880689075    -0.118065421031    18.998403224000
           F          0.927677728071     1.131386310925    -0.760918421031    18.998403224000

  Running in c1 symmetry.

  Rotational constants: A =      0.15005  B =      0.04003  C =      0.03909 [cm^-1]
  Rotational constants: A =   4498.24618  B =   1200.11180  C =   1171.91201 [MHz]
  Nuclear repulsion =  413.910273408407761

  Charge       = 0
  Multiplicity = 1
  Electrons    = 64
  Nalpha       = 32
  Nbeta        = 32

  ==> Algorithm <==

  SCF Algorithm Type is DF.
  DIIS enabled.
  MOM disabled.
  Fractional occupation disabled.
  Guess Type is CORE.
  Energy threshold   = 1.00e-06
  Density threshold  = 1.00e-06
  Integral threshold = 0.00e+00

  ==> Primary Basis <==

  Basis Set: 6-31G*
    Number of shells: 58
    Number of basis function: 130
    Number of Cartesian functions: 130
    Spherical Harmonics?: false
    Max angular momentum: 2

  ==> Pre-Iterations <==

   -------------------------------------------------------
    Irrep   Nso     Nmo     Nalpha   Nbeta   Ndocc  Nsocc
   -------------------------------------------------------
     A        130     130       0       0       0       0
   -------------------------------------------------------
    Total     130     130      32      32      32       0
   -------------------------------------------------------

 OEINTS: Overlap, kinetic, potential, dipole, and quadrupole integrals
         stored in file 35.

  ==> Integral Setup <==

  ==> DFJK: Density-Fitted J/K Matrices <==

    J tasked:                  Yes
    K tasked:                  Yes
    wK tasked:                  No
    OpenMP threads:             24
    Integrals threads:          24
    Memory (MB):              1430
    Algorithm:                Core
    Integral Cache:           NONE
    Schwarz Cutoff:          1E-12
    Fitting Condition:       1E-12

   => Auxiliary Basis Set <=

  Basis Set: 
    Number of shells: 237
    Number of basis function: 773
    Number of Cartesian functions: 773
    Spherical Harmonics?: false
    Max angular momentum: 3

  Minimum eigenvalue in the overlap matrix is 1.8265164280E-03.
  Using Symmetric Orthogonalization.
  SCF Guess: Core (One-Electron) Hamiltonian.

  ==> Iterations <==

                           Total Energy        Delta E     RMS |[F,P]|

   @DF-RHF iter   1:  -439.62606822376199   -4.39626e+02   7.42184e-02 
   @DF-RHF iter   2:  -175.61139890191350    2.64015e+02   9.74130e-02 DIIS
   @DF-RHF iter   3:  -490.60473057043737   -3.14993e+02   3.98124e-02 DIIS
   @DF-RHF iter   4:  -399.50742790765219    9.10973e+01   8.05957e-02 DIIS
   @DF-RHF iter   5:  -518.82583732689261   -1.19318e+02   2.22534e-02 DIIS
   @DF-RHF iter   6:  -526.84805810052126   -8.02222e+00   9.83834e-03 DIIS
   @DF-RHF iter   7:  -527.48495500612512   -6.36897e-01   2.33578e-03 DIIS
   @DF-RHF iter   8:  -527.52029682200543   -3.53418e-02   1.08662e-03 DIIS
   @DF-RHF iter   9:  -527.52998592297592   -9.68910e-03   5.13761e-04 DIIS
   @DF-RHF iter  10:  -527.53223581899579   -2.24990e-03   2.47520e-04 DIIS
   @DF-RHF iter  11:  -527.53292068937651   -6.84870e-04   5.06407e-05 DIIS
   @DF-RHF iter  12:  -527.53295049061649   -2.98012e-05   1.76287e-05 DIIS
   @DF-RHF iter  13:  -527.53295638563247   -5.89502e-06   7.84977e-06 DIIS
   @DF-RHF iter  14:  -527.53295733356799   -9.47936e-07   1.98887e-06 DIIS
   @DF-RHF iter  15:  -527.53295743733008   -1.03762e-07   6.58184e-07 DIIS

  ==> Post-Iterations <==

    Orbital Energies (a.u.)
    -----------------------

    Doubly Occupied:                                                      

       1A    -26.345988     2A    -26.345493     3A    -26.333602  
       4A    -20.607656     5A    -11.502267     6A    -11.317915  
       7A    -11.299402     8A    -11.216519     9A     -1.741337  
      10A     -1.642491    11A     -1.633312    12A     -1.437661  
      13A     -1.083938    14A     -1.016709    15A     -0.924486  
      16A     -0.835210    17A     -0.830174    18A     -0.820596  
      19A     -0.793603    20A     -0.719831    21A     -0.713156  
      22A     -0.696105    23A     -0.675898    24A     -0.659785  
      25A     -0.654829    26A     -0.641686    27A     -0.627969  
      28A     -0.583833    29A     -0.563257    30A     -0.523868  
      31A     -0.513481    32A     -0.351948  

    Virtual:                                                              

      33A      0.189414    34A      0.233786    35A      0.273132  
      36A      0.276422    37A      0.294038    38A      0.314280  
      39A      0.343479    40A      0.408457    41A      0.419032  
      42A      0.455687    43A      0.477473    44A      0.507015  
      45A      0.523130    46A      0.688372    47A      0.699407  
      48A      0.708194    49A      0.741322    50A      0.755818  
      51A      0.773441    52A      0.807702    53A      0.833415  
      54A      0.882414    55A      0.903934    56A      0.927297  
      57A      0.987476    58A      1.082146    59A      1.100683  
      60A      1.132811    61A      1.153370    62A      1.162043  
      63A      1.203211    64A      1.236057    65A      1.250777  
      66A      1.327128    67A      1.350003    68A      1.366806  
      69A      1.402610    70A      1.432016    71A      1.453103  
      72A      1.476840    73A      1.592622    74A      1.612581  
      75A      1.626336    76A      1.636064    77A      1.662472  
      78A      1.673820    79A      1.682358    80A      1.717056  
      81A      1.745923    82A      1.775875    83A      1.882824  
      84A      1.901933    85A      1.940707    86A      1.992945  
      87A      2.013304    88A      2.035932    89A      2.112274  
      90A      2.129520    91A      2.142819    92A      2.150716  
      93A      2.227729    94A      2.243896    95A      2.287027  
      96A      2.293155    97A      2.314665    98A      2.323636  
      99A      2.373926   100A      2.395223   101A      2.407807  
     102A      2.416700   103A      2.484354   104A      2.512749  
     105A      2.560308   106A      2.591668   107A      2.623445  
     108A      2.677976   109A      2.761347   110A      2.826943  
     111A      2.879762   112A      2.887336   113A      2.986517  
     114A      3.094395   115A      3.155062   116A      3.176746  
     117A      3.217458   118A      3.292060   119A      3.415399  
     120A      3.424037   121A      3.460577   122A      3.464930  
     123A      4.346259   124A      4.546266   125A      4.625381  
     126A      4.702293   127A      4.897371   128A      4.954221  
     129A      5.106693   130A      5.761436  

    Final Occupation by Irrep:
              A 
    DOCC [    32 ]

  Energy converged.

  @DF-RHF Final Energy:  -527.53295743733008

   => Energetics <=

    Nuclear Repulsion Energy =            413.9102734084077611
    One-Electron Energy =               -1551.5783082263928918
    Two-Electron Energy =                 610.1350773806550478
    DFT Exchange-Correlation Energy =       0.0000000000000000
    Empirical Dispersion Energy =           0.0000000000000000
    PCM Polarization Energy =               0.0000000000000000
    EFP Energy =                            0.0000000000000000
    Total Energy =                       -527.5329574373301966

    Alert: EFP and PCM quantities not currently incorporated into SCF psivars.

Properties will be evaluated at   0.000000,   0.000000,   0.000000 Bohr
  ==> Properties <==


Properties computed using the SCF density matrix

  Nuclear Dipole Moment: (a.u.)
     X:   -12.0003      Y:    -2.6801      Z:    -2.3734

  Electronic Dipole Moment: (a.u.)
     X:    11.7601      Y:     2.2919      Z:     1.6321

  Dipole Moment: (a.u.)
     X:    -0.2403      Y:    -0.3882      Z:    -0.7414     Total:     0.8707

  Dipole Moment: (Debye)
     X:    -0.6107      Y:    -0.9868      Z:    -1.8843     Total:     2.2130


  Saving occupied orbitals to File 180.

*** tstop() called on cx1b.hpc.ic.ac.uk at Tue Jul 26 13:29:22 2016
Module time:
	user time   =      63.62 seconds =       1.06 minutes
	system time =       2.75 seconds =       0.05 minutes
	total time  =          6 seconds =       0.10 minutes
Total time:
	user time   =      63.62 seconds =       1.06 minutes
	system time =       2.75 seconds =       0.05 minutes
	total time  =          6 seconds =       0.10 minutes


Properties will be evaluated at   0.000000,   0.000000,   0.000000 Bohr

Properties computed using the  density matrix

  Nuclear Dipole Moment: (a.u.)
     X:   -12.0003      Y:    -2.6801      Z:    -2.3734

  Electronic Dipole Moment: (a.u.)
     X:    11.7601      Y:     2.2919      Z:     1.6321

  Dipole Moment: (a.u.)
     X:    -0.2403      Y:    -0.3882      Z:    -0.7414     Total:     0.8707

  Dipole Moment: (Debye)
     X:    -0.6107      Y:    -0.9868      Z:    -1.8843     Total:     2.2130

  Quadrupole Moment: (Debye Ang)
    XX:   -45.6859     YY:   -44.3578     ZZ:   -43.3500
    XY:    -3.1872     XZ:     0.8234     YZ:     0.5462

  Traceless Quadrupole Moment: (Debye Ang)
    XX:    -1.2213     YY:     0.1068     ZZ:     1.1146
    XY:    -3.1872     XZ:     0.8234     YZ:     0.5462

  Mulliken Charges: (a.u.)
   Center  Symbol    Alpha    Beta     Spin     Total
       1     H     0.40701  0.40701  0.00000  0.18598
       2     C     3.23406  3.23406  0.00000 -0.46812
       3     C     2.89904  2.89904  0.00000  0.20192
       4     H     0.40131  0.40131  0.00000  0.19739
       5     O     4.29833  4.29833  0.00000 -0.59665
       6     H     0.40604  0.40604  0.00000  0.18791
       7     C     3.06847  3.06847  0.00000 -0.13694
       8     C     2.45415  2.45415  0.00000  1.09169
       9     H     0.40540  0.40540  0.00000  0.18919
      10     H     0.38916  0.38916  0.00000  0.22168
      11     F     4.67843  4.67843  0.00000 -0.35687
      12     F     4.68099  4.68099  0.00000 -0.36197
      13     F     4.67760  4.67760  0.00000 -0.35520

   Total alpha = 32.00000, Total beta = 32.00000, Total charge =  0.00000


*** PSI4 exiting successfully. Buy a developer a beer!
