    -----------------------------------------------------------------------
          Psi4: An Open-Source Ab Initio Electronic Structure Package
                              Psi4 (no tag) Driver

                          Git: Rev {detached?}  

    J. M. Turney, A. C. Simmonett, R. M. Parrish, E. G. Hohenstein,
    F. A. Evangelista, J. T. Fermann, B. J. Mintz, L. A. Burns, J. J. Wilke,
    M. L. Abrams, N. J. Russ, M. L. Leininger, C. L. Janssen, E. T. Seidl,
    W. D. Allen, H. F. Schaefer, R. A. King, E. F. Valeev, C. D. Sherrill,
    and T. D. Crawford, WIREs Comput. Mol. Sci. 2, 556-565 (2012)
    (doi: 10.1002/wcms.93)

                         Additional Contributions by
    A. E. DePrince, M. Saitow, U. Bozkaya, A. Yu. Sokolov
    -----------------------------------------------------------------------


    Psi4 started on: Tue Jul  5 16:39:07 2016

    Process ID:  28036
    PSI4DATADIR: /export131/home/mjharvey/miniconda3/share
    Memory level set to 256.000 MB

  ==> Input File <==

--------------------------------------------------------------------------
set {
	reference rhf
	basis 6-31G*
}


set_num_threads( 1 )
memory 2 gb

molecule MOL {
0 1

H	 0.391909	 1.546574	 0.665231
N	 -0.273344	 0.800837	 0.599730
C	 0.395291	 -0.465893	 0.360090
H	 -0.880486	 1.008930	 -0.169155
C	 0.971576	 -0.489557	 -1.040078
H	 1.199044	 -0.678487	 1.066339
H	 -0.334340	 -1.265201	 0.446847
O	 -0.088814	 -0.446451	 -1.951562
H	 1.629857	 0.365754	 -1.190901
H	 1.553362	 -1.397830	 -1.180788
C	 0.295968	 -0.548357	 -3.285402
H	 1.077210	 -1.293847	 -3.345427
H	 -0.534823	 -0.858547	 -3.916710
H	 0.680852	 0.397273	 -3.661511

	symmetry c1
}
set optking {
	frozen_dihedral = ("
		8 5 3 6,
		6 3 2 4,
		11 8 5 3
	")
}

ee = energy('scf')
oeprop('DIPOLE', 'QUADRUPOLE', 'MULLIKEN_CHARGES')
f=open( 'psi4out.xyz', 'w' )
f.write( "14  " )
f.write( str(ee) + "\n" )
f.write( MOL.save_string_xyz() )
f.close()
--------------------------------------------------------------------------

  Memory set to   2.000 GiB by Python script.

*** tstart() called on cx1-3-6-4.cx1.hpc.ic.ac.uk
*** at Tue Jul  5 16:39:07 2016


         ---------------------------------------------------------
                                   SCF
            by Justin Turney, Rob Parrish, and Andy Simmonett
                              RHF Reference
                        1 Threads,   2000 MiB Core
         ---------------------------------------------------------

  ==> Geometry <==

    Molecular point group: c1
    Full point group: C1

    Geometry (in Angstrom), charge = 0, multiplicity = 1:

       Center              X                  Y                   Z               Mass       
    ------------   -----------------  -----------------  -----------------  -----------------
           H          0.131802261954     1.761908951593     1.754584945662     1.007825032070
           N         -0.533450738046     1.016171951593     1.689083945662    14.003074004780
           C          0.135184261954    -0.250558048407     1.449443945662    12.000000000000
           H         -1.140592738046     1.224264951593     0.920198945662     1.007825032070
           C          0.711469261954    -0.274222048407     0.049275945662    12.000000000000
           H          0.938937261954    -0.463152048407     2.155692945662     1.007825032070
           H         -0.594446738046    -1.049866048407     1.536200945662     1.007825032070
           O         -0.348920738046    -0.231116048407    -0.862208054338    15.994914619560
           H          1.369750261954     0.581088951593    -0.101547054338     1.007825032070
           H          1.293255261954    -1.182495048407    -0.091434054338     1.007825032070
           C          0.035861261954    -0.333022048407    -2.196048054338    12.000000000000
           H          0.817103261954    -1.078512048407    -2.256073054338     1.007825032070
           H         -0.794929738046    -0.643212048407    -2.827356054338     1.007825032070
           H          0.420745261954     0.612607951593    -2.572157054338     1.007825032070

  Running in c1 symmetry.

  Rotational constants: A =      0.43706  B =      0.09098  C =      0.08282 [cm^-1]
  Rotational constants: A =  13102.77903  B =   2727.37329  C =   2482.90602 [MHz]
  Nuclear repulsion =  195.279381889900009

  Charge       = 0
  Multiplicity = 1
  Electrons    = 42
  Nalpha       = 21
  Nbeta        = 21

  ==> Algorithm <==

  SCF Algorithm Type is DF.
  DIIS enabled.
  MOM disabled.
  Fractional occupation disabled.
  Guess Type is CORE.
  Energy threshold   = 1.00e-06
  Density threshold  = 1.00e-06
  Integral threshold = 0.00e+00

  ==> Primary Basis <==

  Basis Set: 6-31G*
    Number of shells: 48
    Number of basis function: 93
    Number of Cartesian functions: 93
    Spherical Harmonics?: false
    Max angular momentum: 2

  ==> Pre-Iterations <==

   -------------------------------------------------------
    Irrep   Nso     Nmo     Nalpha   Nbeta   Ndocc  Nsocc
   -------------------------------------------------------
     A         93      93       0       0       0       0
   -------------------------------------------------------
    Total      93      93      21      21      21       0
   -------------------------------------------------------

 OEINTS: Overlap, kinetic, potential, dipole, and quadrupole integrals
         stored in file 35.

  ==> Integral Setup <==

  ==> DFJK: Density-Fitted J/K Matrices <==

    J tasked:                  Yes
    K tasked:                  Yes
    wK tasked:                  No
    OpenMP threads:              1
    Integrals threads:           1
    Memory (MB):              1430
    Algorithm:                Core
    Integral Cache:           NONE
    Schwarz Cutoff:          1E-12
    Fitting Condition:       1E-12

   => Auxiliary Basis Set <=

  Basis Set: 
    Number of shells: 201
    Number of basis function: 630
    Number of Cartesian functions: 630
    Spherical Harmonics?: false
    Max angular momentum: 3

  Minimum eigenvalue in the overlap matrix is 4.6255438874E-03.
  Using Symmetric Orthogonalization.
  SCF Guess: Core (One-Electron) Hamiltonian.

  ==> Iterations <==

                           Total Energy        Delta E     RMS |[F,P]|

   @DF-RHF iter   1:  -201.75966126960574   -2.01760e+02   7.99601e-02 
   @DF-RHF iter   2:  -155.25199480127904    4.65077e+01   6.63607e-02 DIIS
   @DF-RHF iter   3:  -211.59778157101070   -5.63458e+01   6.23816e-02 DIIS
   @DF-RHF iter   4:  -236.85632461987794   -2.52585e+01   3.93841e-02 DIIS
   @DF-RHF iter   5:  -247.65611492211011   -1.07998e+01   1.01380e-02 DIIS
   @DF-RHF iter   6:  -248.07874755277587   -4.22633e-01   3.25509e-03 DIIS
   @DF-RHF iter   7:  -248.11702267590854   -3.82751e-02   7.75589e-04 DIIS
   @DF-RHF iter   8:  -248.11946474633643   -2.44207e-03   3.01080e-04 DIIS
   @DF-RHF iter   9:  -248.11988456282617   -4.19816e-04   1.42383e-04 DIIS
   @DF-RHF iter  10:  -248.11999951314718   -1.14950e-04   3.45811e-05 DIIS
   @DF-RHF iter  11:  -248.12000701470194   -7.50155e-06   1.27598e-05 DIIS
   @DF-RHF iter  12:  -248.12000812941935   -1.11472e-06   2.46702e-06 DIIS
   @DF-RHF iter  13:  -248.12000818624475   -5.68254e-08   6.80418e-07 DIIS

  ==> Post-Iterations <==

    Orbital Energies (a.u.)
    -----------------------

    Doubly Occupied:                                                      

       1A    -20.560707     2A    -15.526495     3A    -11.270290  
       4A    -11.268210     5A    -11.242166     6A     -1.385746  
       7A     -1.175210     8A     -0.998861     9A     -0.910539  
      10A     -0.824226    11A     -0.685668    12A     -0.676005  
      13A     -0.643370    14A     -0.630123    15A     -0.589180  
      16A     -0.550204    17A     -0.526427    18A     -0.507126  
      19A     -0.479641    20A     -0.421304    21A     -0.375027  

    Virtual:                                                              

      22A      0.230948    23A      0.255758    24A      0.279836  
      25A      0.297402    26A      0.303986    27A      0.317293  
      28A      0.322921    29A      0.331252    30A      0.356641  
      31A      0.379881    32A      0.428431    33A      0.446164  
      34A      0.453350    35A      0.728114    36A      0.756696  
      37A      0.761425    38A      0.799877    39A      0.824478  
      40A      0.835129    41A      0.870631    42A      0.910970  
      43A      0.983798    44A      1.014936    45A      1.078962  
      46A      1.089759    47A      1.113719    48A      1.131631  
      49A      1.153454    50A      1.163762    51A      1.170709  
      52A      1.212258    53A      1.219679    54A      1.234244  
      55A      1.254124    56A      1.265412    57A      1.313793  
      58A      1.385002    59A      1.460443    60A      1.593124  
      61A      1.628803    62A      1.673027    63A      1.746268  
      64A      1.793595    65A      1.825990    66A      1.933399  
      67A      2.008162    68A      2.077116    69A      2.207834  
      70A      2.222137    71A      2.351064    72A      2.385323  
      73A      2.399804    74A      2.424783    75A      2.439981  
      76A      2.473377    77A      2.524303    78A      2.554930  
      79A      2.651138    80A      2.718598    81A      2.769297  
      82A      2.792263    83A      2.865320    84A      2.900586  
      85A      3.007912    86A      3.086092    87A      3.190502  
      88A      3.334380    89A      4.222701    90A      4.381227  
      91A      4.650074    92A      4.710997    93A      4.885559  

    Final Occupation by Irrep:
              A 
    DOCC [    21 ]

  Energy converged.

  @DF-RHF Final Energy:  -248.12000818624475

   => Energetics <=

    Nuclear Repulsion Energy =            195.2793818899000087
    One-Electron Energy =                -724.3057032602526988
    Two-Electron Energy =                 280.9063131841077166
    DFT Exchange-Correlation Energy =       0.0000000000000000
    Empirical Dispersion Energy =           0.0000000000000000
    PCM Polarization Energy =               0.0000000000000000
    EFP Energy =                            0.0000000000000000
    Total Energy =                       -248.1200081862449451

    Alert: EFP and PCM quantities not currently incorporated into SCF psivars.

Properties will be evaluated at   0.000000,   0.000000,   0.000000 Bohr
  ==> Properties <==


Properties computed using the SCF density matrix

  Nuclear Dipole Moment: (a.u.)
     X:     2.2888      Y:    -0.2266      Z:    -1.3983

  Electronic Dipole Moment: (a.u.)
     X:    -1.4711      Y:     0.1877      Z:     0.6894

  Dipole Moment: (a.u.)
     X:     0.8178      Y:    -0.0389      Z:    -0.7089     Total:     1.0829

  Dipole Moment: (Debye)
     X:     2.0785      Y:    -0.0988      Z:    -1.8018     Total:     2.7526


  Saving occupied orbitals to File 180.

*** tstop() called on cx1-3-6-4.cx1.hpc.ic.ac.uk at Tue Jul  5 16:39:13 2016
Module time:
	user time   =       5.06 seconds =       0.08 minutes
	system time =       0.04 seconds =       0.00 minutes
	total time  =          6 seconds =       0.10 minutes
Total time:
	user time   =       5.06 seconds =       0.08 minutes
	system time =       0.04 seconds =       0.00 minutes
	total time  =          6 seconds =       0.10 minutes


Properties will be evaluated at   0.000000,   0.000000,   0.000000 Bohr

Properties computed using the  density matrix

  Nuclear Dipole Moment: (a.u.)
     X:     2.2888      Y:    -0.2266      Z:    -1.3983

  Electronic Dipole Moment: (a.u.)
     X:    -1.4711      Y:     0.1877      Z:     0.6894

  Dipole Moment: (a.u.)
     X:     0.8178      Y:    -0.0389      Z:    -0.7089     Total:     1.0829

  Dipole Moment: (Debye)
     X:     2.0785      Y:    -0.0988      Z:    -1.8018     Total:     2.7526

  Quadrupole Moment: (Debye Ang)
    XX:   -32.7345     YY:   -30.6467     ZZ:   -33.8678
    XY:     0.6361     XZ:     3.0631     YZ:    -1.0474

  Traceless Quadrupole Moment: (Debye Ang)
    XX:    -0.3182     YY:     1.7696     ZZ:    -1.4515
    XY:     0.6361     XZ:     3.0631     YZ:    -1.0474

  Mulliken Charges: (a.u.)
   Center  Symbol    Alpha    Beta     Spin     Total
       1     H     0.33712  0.33712  0.00000  0.32576
       2     N     3.92144  3.92144  0.00000 -0.84287
       3     C     3.07151  3.07151  0.00000 -0.14301
       4     H     0.32178  0.32178  0.00000  0.35644
       5     C     2.99609  2.99609  0.00000  0.00783
       6     H     0.41889  0.41889  0.00000  0.16221
       7     H     0.40950  0.40950  0.00000  0.18100
       8     O     4.30951  4.30951  0.00000 -0.61901
       9     H     0.43496  0.43496  0.00000  0.13008
      10     H     0.43177  0.43177  0.00000  0.13645
      11     C     3.07716  3.07716  0.00000 -0.15433
      12     H     0.42992  0.42992  0.00000  0.14017
      13     H     0.41233  0.41233  0.00000  0.17533
      14     H     0.42803  0.42803  0.00000  0.14395

   Total alpha = 21.00000, Total beta = 21.00000, Total charge = -0.00000


*** PSI4 exiting successfully. Buy a developer a beer!
