    -----------------------------------------------------------------------
          Psi4: An Open-Source Ab Initio Electronic Structure Package
                              Psi4 (no tag) Driver

                          Git: Rev {detached?}  

    J. M. Turney, A. C. Simmonett, R. M. Parrish, E. G. Hohenstein,
    F. A. Evangelista, J. T. Fermann, B. J. Mintz, L. A. Burns, J. J. Wilke,
    M. L. Abrams, N. J. Russ, M. L. Leininger, C. L. Janssen, E. T. Seidl,
    W. D. Allen, H. F. Schaefer, R. A. King, E. F. Valeev, C. D. Sherrill,
    and T. D. Crawford, WIREs Comput. Mol. Sci. 2, 556-565 (2012)
    (doi: 10.1002/wcms.93)

                         Additional Contributions by
    A. E. DePrince, M. Saitow, U. Bozkaya, A. Yu. Sokolov
    -----------------------------------------------------------------------


    Psi4 started on: Tue Jul  5 16:25:03 2016

    Process ID:  29383
    PSI4DATADIR: /export131/home/mjharvey/miniconda3/share
    Memory level set to 256.000 MB

  ==> Input File <==

--------------------------------------------------------------------------
set {
	reference rhf
	basis 6-31G*
}


set_num_threads( 1 )
memory 2 gb

molecule MOL {
0 1

H	 3.250784	 1.133207	 1.388720
N	 2.412655	 0.584927	 1.366947
C	 1.865559	 0.531981	 0.018834
H	 1.763541	 1.023627	 1.992266
C	 0.645745	 -0.382037	 -0.029944
H	 2.636870	 0.135677	 -0.634527
H	 1.597310	 1.515755	 -0.374397
C	 -0.679275	 0.379305	 0.025956
H	 0.698998	 -0.976915	 -0.937203
H	 0.693479	 -1.083846	 0.802235
C	 -1.903357	 -0.536963	 -0.023547
H	 -0.726309	 1.082987	 -0.803784
H	 -0.717680	 0.977832	 0.934877
C	 -3.225172	 0.228290	 0.028445
H	 -1.867824	 -1.134999	 -0.931459
H	 -1.860449	 -1.239604	 0.805977
H	 -3.313397	 0.915643	 -0.808262
H	 -4.073500	 -0.448134	 -0.008893
H	 -3.306061	 0.809945	 0.942516

	symmetry c1
}
set optking {
	frozen_dihedral = ("
		12 8 5 9,
		12 8 11 15,
		1 2 3 6
	")
}

ee = energy('scf')
oeprop('DIPOLE', 'QUADRUPOLE', 'MULLIKEN_CHARGES')
f=open( 'psi4out.xyz', 'w' )
f.write( "19  " )
f.write( str(ee) + "\n" )
f.write( MOL.save_string_xyz() )
f.close()
--------------------------------------------------------------------------

  Memory set to   2.000 GiB by Python script.

*** tstart() called on cx1-3-3-2.cx1.hpc.ic.ac.uk
*** at Tue Jul  5 16:25:03 2016


         ---------------------------------------------------------
                                   SCF
            by Justin Turney, Rob Parrish, and Andy Simmonett
                              RHF Reference
                        1 Threads,   2000 MiB Core
         ---------------------------------------------------------

  ==> Geometry <==

    Molecular point group: c1
    Full point group: C1

    Geometry (in Angstrom), charge = 0, multiplicity = 1:

       Center              X                  Y                   Z               Mass       
    ------------   -----------------  -----------------  -----------------  -----------------
           H          3.377511016079     0.977416754344     1.138848760545     1.007825032070
           N          2.539382016079     0.429136754344     1.117075760545    14.003074004780
           C          1.992286016079     0.376190754344    -0.231037239455    12.000000000000
           H          1.890268016079     0.867836754344     1.742394760545     1.007825032070
           C          0.772472016079    -0.537827245656    -0.279815239455    12.000000000000
           H          2.763597016079    -0.020113245656    -0.884398239455     1.007825032070
           H          1.724037016079     1.359964754344    -0.624268239455     1.007825032070
           C         -0.552547983921     0.223514754344    -0.223915239455    12.000000000000
           H          0.825725016079    -1.132705245656    -1.187074239455     1.007825032070
           H          0.820206016079    -1.239636245656     0.552363760545     1.007825032070
           C         -1.776629983921    -0.692753245656    -0.273418239455    12.000000000000
           H         -0.599581983921     0.927196754344    -1.053655239455     1.007825032070
           H         -0.590952983921     0.822041754344     0.685005760545     1.007825032070
           C         -3.098444983921     0.072499754344    -0.221426239455    12.000000000000
           H         -1.741096983921    -1.290789245656    -1.181330239455     1.007825032070
           H         -1.733721983921    -1.395394245656     0.556105760545     1.007825032070
           H         -3.186669983921     0.759852754344    -1.058133239455     1.007825032070
           H         -3.946772983921    -0.603924245656    -0.258764239455     1.007825032070
           H         -3.179333983921     0.654154754344     0.692644760545     1.007825032070

  Running in c1 symmetry.

  Rotational constants: A =      0.34993  B =      0.04188  C =      0.04069 [cm^-1]
  Rotational constants: A =  10490.74660  B =   1255.47586  C =   1219.98071 [MHz]
  Nuclear repulsion =  247.890497426935724

  Charge       = 0
  Multiplicity = 1
  Electrons    = 50
  Nalpha       = 25
  Nbeta        = 25

  ==> Algorithm <==

  SCF Algorithm Type is DF.
  DIIS enabled.
  MOM disabled.
  Fractional occupation disabled.
  Guess Type is CORE.
  Energy threshold   = 1.00e-06
  Density threshold  = 1.00e-06
  Integral threshold = 0.00e+00

  ==> Primary Basis <==

  Basis Set: 6-31G*
    Number of shells: 62
    Number of basis function: 116
    Number of Cartesian functions: 116
    Spherical Harmonics?: false
    Max angular momentum: 2

  ==> Pre-Iterations <==

   -------------------------------------------------------
    Irrep   Nso     Nmo     Nalpha   Nbeta   Ndocc  Nsocc
   -------------------------------------------------------
     A        116     116       0       0       0       0
   -------------------------------------------------------
    Total     116     116      25      25      25       0
   -------------------------------------------------------

 OEINTS: Overlap, kinetic, potential, dipole, and quadrupole integrals
         stored in file 35.

  ==> Integral Setup <==

  ==> DFJK: Density-Fitted J/K Matrices <==

    J tasked:                  Yes
    K tasked:                  Yes
    wK tasked:                  No
    OpenMP threads:              1
    Integrals threads:           1
    Memory (MB):              1430
    Algorithm:                Core
    Integral Cache:           NONE
    Schwarz Cutoff:          1E-12
    Fitting Condition:       1E-12

   => Auxiliary Basis Set <=

  Basis Set: 
    Number of shells: 261
    Number of basis function: 811
    Number of Cartesian functions: 811
    Spherical Harmonics?: false
    Max angular momentum: 3

  Minimum eigenvalue in the overlap matrix is 3.5941134753E-03.
  Using Symmetric Orthogonalization.
  SCF Guess: Core (One-Electron) Hamiltonian.

  ==> Iterations <==

                           Total Energy        Delta E     RMS |[F,P]|

   @DF-RHF iter   1:  -190.25582745489112   -1.90256e+02   7.15819e-02 
   @DF-RHF iter   2:   -93.33055840526578    9.69253e+01   8.54496e-02 DIIS
   @DF-RHF iter   3:  -188.19448024695117   -9.48639e+01   5.80931e-02 DIIS
   @DF-RHF iter   4:  -187.80690170980176    3.87579e-01   5.60987e-02 DIIS
   @DF-RHF iter   5:  -230.53500995995188   -4.27281e+01   3.83121e-02 DIIS
   @DF-RHF iter   6:  -251.23732918116588   -2.07023e+01   3.74229e-03 DIIS
   @DF-RHF iter   7:  -251.33318331437636   -9.58541e-02   1.41576e-03 DIIS
   @DF-RHF iter   8:  -251.34579577051812   -1.26125e-02   3.19749e-04 DIIS
   @DF-RHF iter   9:  -251.34684595401615   -1.05018e-03   7.80341e-05 DIIS
   @DF-RHF iter  10:  -251.34690338802272   -5.74340e-05   2.55512e-05 DIIS
   @DF-RHF iter  11:  -251.34691076704854   -7.37903e-06   9.57469e-06 DIIS
   @DF-RHF iter  12:  -251.34691194248353   -1.17543e-06   2.80269e-06 DIIS
   @DF-RHF iter  13:  -251.34691202803890   -8.55554e-08   1.05574e-06 DIIS
   @DF-RHF iter  14:  -251.34691204781330   -1.97744e-08   2.10497e-07 DIIS

  ==> Post-Iterations <==

    Orbital Energies (a.u.)
    -----------------------

    Doubly Occupied:                                                      

       1A    -15.531888     2A    -11.238455     3A    -11.214065  
       4A    -11.213361     5A    -11.207966     6A    -11.207389  
       7A     -1.176699     8A     -1.072486     9A     -0.997952  
      10A     -0.903250    11A     -0.813445    12A     -0.786264  
      13A     -0.666825    14A     -0.642605    15A     -0.616541  
      16A     -0.586792    17A     -0.562083    18A     -0.548001  
      19A     -0.532602    20A     -0.501582    21A     -0.485042  
      22A     -0.465262    23A     -0.461391    24A     -0.442672  
      25A     -0.380014  

    Virtual:                                                              

      26A      0.222407    27A      0.239903    28A      0.263890  
      29A      0.276204    30A      0.283136    31A      0.305327  
      32A      0.323318    33A      0.323715    34A      0.338643  
      35A      0.341364    36A      0.348138    37A      0.363857  
      38A      0.386876    39A      0.394275    40A      0.429859  
      41A      0.452592    42A      0.463897    43A      0.486979  
      44A      0.703892    45A      0.721389    46A      0.747957  
      47A      0.753735    48A      0.773529    49A      0.809988  
      50A      0.843893    51A      0.880155    52A      0.921283  
      53A      0.936311    54A      0.972851    55A      1.003451  
      56A      1.006799    57A      1.026577    58A      1.049693  
      59A      1.089008    60A      1.131141    61A      1.151123  
      62A      1.157145    63A      1.175165    64A      1.180690  
      65A      1.192296    66A      1.209592    67A      1.212463  
      68A      1.222148    69A      1.231727    70A      1.246607  
      71A      1.260455    72A      1.269112    73A      1.276007  
      74A      1.293562    75A      1.421977    76A      1.443748  
      77A      1.629114    78A      1.685060    79A      1.732453  
      80A      1.743760    81A      1.827877    82A      1.843371  
      83A      1.977999    84A      1.998585    85A      2.074286  
      86A      2.124797    87A      2.197703    88A      2.239920  
      89A      2.257928    90A      2.279940    91A      2.309624  
      92A      2.320603    93A      2.339305    94A      2.381959  
      95A      2.443866    96A      2.494794    97A      2.545828  
      98A      2.609562    99A      2.628145   100A      2.688075  
     101A      2.704516   102A      2.758966   103A      2.789651  
     104A      2.819616   105A      2.884467   106A      2.929757  
     107A      2.950481   108A      3.062063   109A      3.119385  
     110A      3.166799   111A      4.219878   112A      4.568064  
     113A      4.675433   114A      4.787245   115A      4.878551  
     116A      4.996642  

    Final Occupation by Irrep:
              A 
    DOCC [    25 ]

  Energy converged.

  @DF-RHF Final Energy:  -251.34691204781330

   => Energetics <=

    Nuclear Repulsion Energy =            247.8904974269357240
    One-Electron Energy =                -829.9655826969087684
    Two-Electron Energy =                 330.7281732221599668
    DFT Exchange-Correlation Energy =       0.0000000000000000
    Empirical Dispersion Energy =           0.0000000000000000
    PCM Polarization Energy =               0.0000000000000000
    EFP Energy =                            0.0000000000000000
    Total Energy =                       -251.3469120478130208

    Alert: EFP and PCM quantities not currently incorporated into SCF psivars.

Properties will be evaluated at   0.000000,   0.000000,   0.000000 Bohr
  ==> Properties <==


Properties computed using the SCF density matrix

  Nuclear Dipole Moment: (a.u.)
     X:    -3.3605      Y:     0.6418      Z:    -0.8285

  Electronic Dipole Moment: (a.u.)
     X:     3.2727      Y:    -0.1407      Z:     0.6743

  Dipole Moment: (a.u.)
     X:    -0.0878      Y:     0.5011      Z:    -0.1542     Total:     0.5316

  Dipole Moment: (Debye)
     X:    -0.2232      Y:     1.2736      Z:    -0.3919     Total:     1.3511


  Saving occupied orbitals to File 180.

*** tstop() called on cx1-3-3-2.cx1.hpc.ic.ac.uk at Tue Jul  5 16:25:17 2016
Module time:
	user time   =      13.24 seconds =       0.22 minutes
	system time =       0.06 seconds =       0.00 minutes
	total time  =         14 seconds =       0.23 minutes
Total time:
	user time   =      13.24 seconds =       0.22 minutes
	system time =       0.06 seconds =       0.00 minutes
	total time  =         14 seconds =       0.23 minutes


Properties will be evaluated at   0.000000,   0.000000,   0.000000 Bohr

Properties computed using the  density matrix

  Nuclear Dipole Moment: (a.u.)
     X:    -3.3605      Y:     0.6418      Z:    -0.8285

  Electronic Dipole Moment: (a.u.)
     X:     3.2727      Y:    -0.1407      Z:     0.6743

  Dipole Moment: (a.u.)
     X:    -0.0878      Y:     0.5011      Z:    -0.1542     Total:     0.5316

  Dipole Moment: (Debye)
     X:    -0.2232      Y:     1.2736      Z:    -0.3919     Total:     1.3511

  Quadrupole Moment: (Debye Ang)
    XX:   -41.8683     YY:   -40.3740     ZZ:   -40.5724
    XY:     4.1658     XZ:    -1.7508     YZ:     2.3816

  Traceless Quadrupole Moment: (Debye Ang)
    XX:    -0.9300     YY:     0.5642     ZZ:     0.3658
    XY:     4.1658     XZ:    -1.7508     YZ:     2.3816

  Mulliken Charges: (a.u.)
   Center  Symbol    Alpha    Beta     Spin     Total
       1     H     0.33324  0.33324  0.00000  0.33352
       2     N     3.92077  3.92077  0.00000 -0.84155
       3     C     3.06457  3.06457  0.00000 -0.12914
       4     H     0.33521  0.33521  0.00000  0.32958
       5     C     3.15904  3.15904  0.00000 -0.31808
       6     H     0.41880  0.41880  0.00000  0.16240
       7     H     0.43280  0.43280  0.00000  0.13441
       8     C     3.15357  3.15357  0.00000 -0.30714
       9     H     0.42125  0.42125  0.00000  0.15750
      10     H     0.40975  0.40975  0.00000  0.18051
      11     C     3.15139  3.15139  0.00000 -0.30278
      12     H     0.42414  0.42414  0.00000  0.15171
      13     H     0.42773  0.42773  0.00000  0.14454
      14     C     3.23921  3.23921  0.00000 -0.47842
      15     H     0.42262  0.42262  0.00000  0.15476
      16     H     0.42208  0.42208  0.00000  0.15584
      17     H     0.42219  0.42219  0.00000  0.15562
      18     H     0.41928  0.41928  0.00000  0.16145
      19     H     0.42237  0.42237  0.00000  0.15526

   Total alpha = 25.00000, Total beta = 25.00000, Total charge = -0.00000


*** PSI4 exiting successfully. Buy a developer a beer!
