    -----------------------------------------------------------------------
          Psi4: An Open-Source Ab Initio Electronic Structure Package
                              Psi4 (no tag) Driver

                          Git: Rev {detached?}  

    J. M. Turney, A. C. Simmonett, R. M. Parrish, E. G. Hohenstein,
    F. A. Evangelista, J. T. Fermann, B. J. Mintz, L. A. Burns, J. J. Wilke,
    M. L. Abrams, N. J. Russ, M. L. Leininger, C. L. Janssen, E. T. Seidl,
    W. D. Allen, H. F. Schaefer, R. A. King, E. F. Valeev, C. D. Sherrill,
    and T. D. Crawford, WIREs Comput. Mol. Sci. 2, 556-565 (2012)
    (doi: 10.1002/wcms.93)

                         Additional Contributions by
    A. E. DePrince, M. Saitow, U. Bozkaya, A. Yu. Sokolov
    -----------------------------------------------------------------------


    Psi4 started on: Tue Jul  5 17:44:46 2016

    Process ID:   1927
    PSI4DATADIR: /export131/home/mjharvey/miniconda3/share
    Memory level set to 256.000 MB

  ==> Input File <==

--------------------------------------------------------------------------
set {
	reference rhf
	basis 6-31G*
}


set_num_threads( 1 )
memory 2 gb

molecule MOL {
0 1

H	 -3.457960	 0.166880	 1.449720
O	 -3.367910	 -0.300316	 2.267454
C	 -3.043259	 -1.643282	 2.012310
C	 -1.609705	 -1.833855	 1.529264
H	 -3.184960	 -2.163733	 2.950780
H	 -3.740919	 -2.074362	 1.295219
C	 -1.366857	 -1.353989	 0.096218
H	 -0.944145	 -1.307168	 2.208232
H	 -1.365098	 -2.892230	 1.602586
C	 -2.086879	 -2.214768	 -0.945631
H	 -0.299294	 -1.357470	 -0.105430
H	 -1.701171	 -0.320998	 -0.001276
C	 -3.554433	 -2.520932	 -0.624868
H	 -2.024930	 -1.727629	 -1.917076
H	 -1.552406	 -3.157191	 -1.045018
C	 -3.773573	 -3.417846	 0.596608
H	 -4.072033	 -1.578208	 -0.460010
H	 -4.025313	 -2.975382	 -1.495260
C	 -5.252820	 -3.608158	 0.938724
H	 -3.259865	 -2.987246	 1.454977
H	 -3.323441	 -4.393531	 0.430106
C	 -5.474591	 -4.508256	 2.153758
H	 -5.707745	 -2.637038	 1.121633
H	 -5.769684	 -4.029307	 0.078857
H	 -4.996811	 -4.097182	 3.038612
H	 -6.532025	 -4.621937	 2.371808
H	 -5.062981	 -5.499940	 1.987919

	symmetry c1
}
set optking {
	frozen_dihedral = ("
		14 10 7 4,
		14 10 13 16,
		10 7 4 8,
		10 13 16 20,
		20 16 19 22,
		4 3 2 1
	")
}

ee = energy('scf')
oeprop('DIPOLE', 'QUADRUPOLE', 'MULLIKEN_CHARGES')
f=open( 'psi4out.xyz', 'w' )
f.write( "27  " )
f.write( str(ee) + "\n" )
f.write( MOL.save_string_xyz() )
f.close()
--------------------------------------------------------------------------

  Memory set to   2.000 GiB by Python script.

*** tstart() called on cx1-3-4-2.cx1.hpc.ic.ac.uk
*** at Tue Jul  5 17:44:46 2016


         ---------------------------------------------------------
                                   SCF
            by Justin Turney, Rob Parrish, and Andy Simmonett
                              RHF Reference
                        1 Threads,   2000 MiB Core
         ---------------------------------------------------------

  ==> Geometry <==

    Molecular point group: c1
    Full point group: C1

    Geometry (in Angstrom), charge = 0, multiplicity = 1:

       Center              X                  Y                   Z               Mass       
    ------------   -----------------  -----------------  -----------------  -----------------
           H         -0.158996745622     2.518601863914     0.524318590577     1.007825032070
           O         -0.068946745622     2.051405863914     1.342052590577    15.994914619560
           C          0.255704254378     0.708439863914     1.086908590577    12.000000000000
           C          1.689258254378     0.517866863914     0.603862590577    12.000000000000
           H          0.114003254378     0.187988863914     2.025378590577     1.007825032070
           H         -0.441955745622     0.277359863914     0.369817590577     1.007825032070
           C          1.932106254378     0.997732863914    -0.829183409423    12.000000000000
           H          2.354818254378     1.044553863914     1.282830590577     1.007825032070
           H          1.933865254378    -0.540508136086     0.677184590577     1.007825032070
           C          1.212084254378     0.136953863914    -1.871032409423    12.000000000000
           H          2.999669254378     0.994251863914    -1.030831409423     1.007825032070
           H          1.597792254378     2.030723863914    -0.926677409423     1.007825032070
           C         -0.255469745622    -0.169210136086    -1.550269409423    12.000000000000
           H          1.274033254378     0.624092863914    -2.842477409423     1.007825032070
           H          1.746557254378    -0.805469136086    -1.970419409423     1.007825032070
           C         -0.474609745622    -1.066124136086    -0.328793409423    12.000000000000
           H         -0.773069745622     0.773513863914    -1.385411409423     1.007825032070
           H         -0.726349745622    -0.623660136086    -2.420661409423     1.007825032070
           C         -1.953856745622    -1.256436136086     0.013322590577    12.000000000000
           H          0.039098254378    -0.635524136086     0.529575590577     1.007825032070
           H         -0.024477745622    -2.041809136086    -0.495295409423     1.007825032070
           C         -2.175627745622    -2.156534136086     1.228356590577    12.000000000000
           H         -2.408781745622    -0.285316136086     0.196231590577     1.007825032070
           H         -2.470720745622    -1.677585136086    -0.846544409423     1.007825032070
           H         -1.697847745622    -1.745460136086     2.113210590577     1.007825032070
           H         -3.233061745622    -2.270215136086     1.446406590577     1.007825032070
           H         -1.764017745622    -3.148218136086     1.062517590577     1.007825032070

  Running in c1 symmetry.

  Rotational constants: A =      0.06594  B =      0.03647  C =      0.02790 [cm^-1]
  Rotational constants: A =   1976.85905  B =   1093.43036  C =    836.44576 [MHz]
  Nuclear repulsion =  514.037227862845270

  Charge       = 0
  Multiplicity = 1
  Electrons    = 74
  Nalpha       = 37
  Nbeta        = 37

  ==> Algorithm <==

  SCF Algorithm Type is DF.
  DIIS enabled.
  MOM disabled.
  Fractional occupation disabled.
  Guess Type is CORE.
  Energy threshold   = 1.00e-06
  Density threshold  = 1.00e-06
  Integral threshold = 0.00e+00

  ==> Primary Basis <==

  Basis Set: 6-31G*
    Number of shells: 90
    Number of basis function: 171
    Number of Cartesian functions: 171
    Spherical Harmonics?: false
    Max angular momentum: 2

  ==> Pre-Iterations <==

   -------------------------------------------------------
    Irrep   Nso     Nmo     Nalpha   Nbeta   Ndocc  Nsocc
   -------------------------------------------------------
     A        171     171       0       0       0       0
   -------------------------------------------------------
    Total     171     171      37      37      37       0
   -------------------------------------------------------

 OEINTS: Overlap, kinetic, potential, dipole, and quadrupole integrals
         stored in file 35.

  ==> Integral Setup <==

  ==> DFJK: Density-Fitted J/K Matrices <==

    J tasked:                  Yes
    K tasked:                  Yes
    wK tasked:                  No
    OpenMP threads:              1
    Integrals threads:           1
    Memory (MB):              1430
    Algorithm:                Core
    Integral Cache:           NONE
    Schwarz Cutoff:          1E-12
    Fitting Condition:       1E-12

   => Auxiliary Basis Set <=

  Basis Set: 
    Number of shells: 378
    Number of basis function: 1179
    Number of Cartesian functions: 1179
    Spherical Harmonics?: false
    Max angular momentum: 3

  Minimum eigenvalue in the overlap matrix is 2.7039455126E-03.
  Using Symmetric Orthogonalization.
  SCF Guess: Core (One-Electron) Hamiltonian.

  ==> Iterations <==

                           Total Energy        Delta E     RMS |[F,P]|

   @DF-RHF iter   1:  -284.56445111167295   -2.84564e+02   6.10419e-02 
   @DF-RHF iter   2:   -10.59049421271720    2.73974e+02   6.57967e-02 DIIS
   @DF-RHF iter   3:  -282.07142137915685   -2.71481e+02   5.25551e-02 DIIS
   @DF-RHF iter   4:  -332.50945229235606   -5.04380e+01   4.56785e-02 DIIS
   @DF-RHF iter   5:  -381.61630346721745   -4.91069e+01   1.77310e-02 DIIS
   @DF-RHF iter   6:  -387.78903144538469   -6.17273e+00   4.54026e-03 DIIS
   @DF-RHF iter   7:  -388.08876944702843   -2.99738e-01   1.24780e-03 DIIS
   @DF-RHF iter   8:  -388.11194562887420   -2.31762e-02   2.86526e-04 DIIS
   @DF-RHF iter   9:  -388.11384061136971   -1.89498e-03   6.73429e-05 DIIS
   @DF-RHF iter  10:  -388.11394564627699   -1.05035e-04   1.78696e-05 DIIS
   @DF-RHF iter  11:  -388.11395400884987   -8.36257e-06   4.91028e-06 DIIS
   @DF-RHF iter  12:  -388.11395474359188   -7.34742e-07   1.50902e-06 DIIS
   @DF-RHF iter  13:  -388.11395481161503   -6.80232e-08   3.61464e-07 DIIS

  ==> Post-Iterations <==

    Orbital Energies (a.u.)
    -----------------------

    Doubly Occupied:                                                      

       1A    -20.537819     2A    -11.245843     3A    -11.223324  
       4A    -11.222086     5A    -11.220692     6A    -11.219666  
       7A    -11.216353     8A    -11.211290     9A    -11.198636  
      10A     -1.348876    11A     -1.133729    12A     -1.060635  
      13A     -1.016965    14A     -0.989790    15A     -0.881316  
      16A     -0.848204    17A     -0.810616    18A     -0.775347  
      19A     -0.730867    20A     -0.647267    21A     -0.630231  
      22A     -0.615080    23A     -0.602543    24A     -0.588905  
      25A     -0.573040    26A     -0.561729    27A     -0.546907  
      28A     -0.531382    29A     -0.528258    30A     -0.495730  
      31A     -0.488094    32A     -0.477350    33A     -0.464793  
      34A     -0.455121    35A     -0.448083    36A     -0.429204  
      37A     -0.372252  

    Virtual:                                                              

      38A      0.204043    39A      0.228624    40A      0.243400  
      41A      0.257998    42A      0.278563    43A      0.283327  
      44A      0.295552    45A      0.306136    46A      0.307264  
      47A      0.318202    48A      0.327585    49A      0.333744  
      50A      0.344193    51A      0.350759    52A      0.354890  
      53A      0.374996    54A      0.383945    55A      0.385875  
      56A      0.401848    57A      0.431508    58A      0.438123  
      59A      0.456088    60A      0.467274    61A      0.481486  
      62A      0.536534    63A      0.594271    64A      0.678186  
      65A      0.698144    66A      0.723504    67A      0.738258  
      68A      0.751331    69A      0.763119    70A      0.783085  
      71A      0.832449    72A      0.852850    73A      0.873336  
      74A      0.904490    75A      0.915016    76A      0.924600  
      77A      0.938009    78A      0.970822    79A      0.990822  
      80A      1.016289    81A      1.038283    82A      1.055697  
      83A      1.073598    84A      1.109639    85A      1.114493  
      86A      1.126626    87A      1.136577    88A      1.148804  
      89A      1.159668    90A      1.162997    91A      1.172990  
      92A      1.190479    93A      1.192538    94A      1.210323  
      95A      1.216469    96A      1.218240    97A      1.222458  
      98A      1.240998    99A      1.248706   100A      1.256929  
     101A      1.261380   102A      1.282447   103A      1.307197  
     104A      1.320714   105A      1.346200   106A      1.381581  
     107A      1.440188   108A      1.457462   109A      1.510241  
     110A      1.541281   111A      1.600962   112A      1.676387  
     113A      1.726557   114A      1.735038   115A      1.778072  
     116A      1.787893   117A      1.831336   118A      1.864371  
     119A      1.886797   120A      1.949785   121A      1.993995  
     122A      2.021839   123A      2.068137   124A      2.089283  
     125A      2.114276   126A      2.131170   127A      2.211169  
     128A      2.227168   129A      2.235834   130A      2.245333  
     131A      2.269294   132A      2.292465   133A      2.317203  
     134A      2.341403   135A      2.358045   136A      2.366531  
     137A      2.389929   138A      2.447904   139A      2.490203  
     140A      2.537887   141A      2.561482   142A      2.612018  
     143A      2.625575   144A      2.633748   145A      2.664994  
     146A      2.673273   147A      2.707348   148A      2.742314  
     149A      2.761111   150A      2.786287   151A      2.799705  
     152A      2.826877   153A      2.851508   154A      2.917778  
     155A      2.942412   156A      2.967192   157A      2.999704  
     158A      3.035055   159A      3.104563   160A      3.127427  
     161A      3.168280   162A      3.316044   163A      4.357689  
     164A      4.565841   165A      4.623302   166A      4.733175  
     167A      4.828062   168A      4.838878   169A      4.945731  
     170A      5.026309   171A      5.092630  

    Final Occupation by Irrep:
              A 
    DOCC [    37 ]

  Energy converged.

  @DF-RHF Final Energy:  -388.11395481161503

   => Energetics <=

    Nuclear Repulsion Energy =            514.0372278628452705
    One-Electron Energy =               -1545.6064597719571339
    Two-Electron Energy =                 643.4552770974989926
    DFT Exchange-Correlation Energy =       0.0000000000000000
    Empirical Dispersion Energy =           0.0000000000000000
    PCM Polarization Energy =               0.0000000000000000
    EFP Energy =                            0.0000000000000000
    Total Energy =                       -388.1139548116127571

    Alert: EFP and PCM quantities not currently incorporated into SCF psivars.

Properties will be evaluated at   0.000000,   0.000000,   0.000000 Bohr
  ==> Properties <==


Properties computed using the SCF density matrix

  Nuclear Dipole Moment: (a.u.)
     X:    -1.5373      Y:    -4.9800      Z:    -1.5787

  Electronic Dipole Moment: (a.u.)
     X:     1.6655      Y:     4.6154      Z:     0.8675

  Dipole Moment: (a.u.)
     X:     0.1283      Y:    -0.3646      Z:    -0.7112     Total:     0.8094

  Dipole Moment: (Debye)
     X:     0.3260      Y:    -0.9266      Z:    -1.8077     Total:     2.0574


  Saving occupied orbitals to File 180.

*** tstop() called on cx1-3-4-2.cx1.hpc.ic.ac.uk at Tue Jul  5 17:45:17 2016
Module time:
	user time   =      30.47 seconds =       0.51 minutes
	system time =       0.28 seconds =       0.00 minutes
	total time  =         31 seconds =       0.52 minutes
Total time:
	user time   =      30.47 seconds =       0.51 minutes
	system time =       0.28 seconds =       0.00 minutes
	total time  =         31 seconds =       0.52 minutes


Properties will be evaluated at   0.000000,   0.000000,   0.000000 Bohr

Properties computed using the  density matrix

  Nuclear Dipole Moment: (a.u.)
     X:    -1.5373      Y:    -4.9800      Z:    -1.5787

  Electronic Dipole Moment: (a.u.)
     X:     1.6655      Y:     4.6154      Z:     0.8675

  Dipole Moment: (a.u.)
     X:     0.1283      Y:    -0.3646      Z:    -0.7112     Total:     0.8094

  Dipole Moment: (Debye)
     X:     0.3260      Y:    -0.9266      Z:    -1.8077     Total:     2.0574

  Quadrupole Moment: (Debye Ang)
    XX:   -59.6708     YY:   -62.3331     ZZ:   -63.3467
    XY:     0.2740     XZ:     0.8683     YZ:    -5.4076

  Traceless Quadrupole Moment: (Debye Ang)
    XX:     2.1127     YY:    -0.5496     ZZ:    -1.5632
    XY:     0.2740     XZ:     0.8683     YZ:    -5.4076

  Mulliken Charges: (a.u.)
   Center  Symbol    Alpha    Beta     Spin     Total
       1     H     0.28347  0.28347  0.00000  0.43306
       2     O     4.38867  4.38867  0.00000 -0.77734
       3     C     3.03168  3.03168  0.00000 -0.06337
       4     C     3.18741  3.18741  0.00000 -0.37482
       5     H     0.40671  0.40671  0.00000  0.18658
       6     H     0.39392  0.39392  0.00000  0.21216
       7     C     3.15657  3.15657  0.00000 -0.31314
       8     H     0.40514  0.40514  0.00000  0.18971
       9     H     0.41326  0.41326  0.00000  0.17348
      10     C     3.14974  3.14974  0.00000 -0.29948
      11     H     0.41439  0.41439  0.00000  0.17121
      12     H     0.42771  0.42771  0.00000  0.14459
      13     C     3.17390  3.17390  0.00000 -0.34780
      14     H     0.41843  0.41843  0.00000  0.16315
      15     H     0.42086  0.42086  0.00000  0.15828
      16     C     3.21232  3.21232  0.00000 -0.42465
      17     H     0.42133  0.42133  0.00000  0.15733
      18     H     0.41056  0.41056  0.00000  0.17887
      19     C     3.15533  3.15533  0.00000 -0.31066
      20     H     0.37726  0.37726  0.00000  0.24548
      21     H     0.42029  0.42029  0.00000  0.15941
      22     C     3.23815  3.23815  0.00000 -0.47631
      23     H     0.41657  0.41657  0.00000  0.16685
      24     H     0.41755  0.41755  0.00000  0.16489
      25     H     0.42083  0.42083  0.00000  0.15834
      26     H     0.41762  0.41762  0.00000  0.16476
      27     H     0.42030  0.42030  0.00000  0.15939

   Total alpha = 37.00000, Total beta = 37.00000, Total charge =  0.00000


*** PSI4 exiting successfully. Buy a developer a beer!
