    -----------------------------------------------------------------------
          Psi4: An Open-Source Ab Initio Electronic Structure Package
                              Psi4 (no tag) Driver

                          Git: Rev {detached?}  

    J. M. Turney, A. C. Simmonett, R. M. Parrish, E. G. Hohenstein,
    F. A. Evangelista, J. T. Fermann, B. J. Mintz, L. A. Burns, J. J. Wilke,
    M. L. Abrams, N. J. Russ, M. L. Leininger, C. L. Janssen, E. T. Seidl,
    W. D. Allen, H. F. Schaefer, R. A. King, E. F. Valeev, C. D. Sherrill,
    and T. D. Crawford, WIREs Comput. Mol. Sci. 2, 556-565 (2012)
    (doi: 10.1002/wcms.93)

                         Additional Contributions by
    A. E. DePrince, M. Saitow, U. Bozkaya, A. Yu. Sokolov
    -----------------------------------------------------------------------


    Psi4 started on: Tue Jul  5 16:50:54 2016

    Process ID:  19608
    PSI4DATADIR: /export131/home/mjharvey/miniconda3/share
    Memory level set to 256.000 MB

  ==> Input File <==

--------------------------------------------------------------------------
set {
	reference rhf
	basis 6-31G*
}


set_num_threads( 1 )
memory 2 gb

molecule MOL {
0 1

O	 0.206278	 2.867845	 -1.344103
C	 0.140502	 1.681556	 -1.381988
C	 -1.132561	 0.871331	 -1.354793
O	 1.208142	 0.896818	 -1.454827
C	 -1.412532	 0.227344	 -0.000452
H	 -1.943418	 1.530676	 -1.652331
H	 -1.057793	 0.122680	 -2.138812
C	 -2.706999	 -0.587347	 -0.000541
H	 -1.464140	 1.000268	 0.760093
H	 -0.576961	 -0.409417	 0.273154
C	 -3.956778	 0.291888	 0.000910
H	 -2.726114	 -1.239230	 -0.871609
H	 -2.725217	 -1.240844	 0.869333
H	 -3.985213	 0.933254	 -0.875158
H	 -4.860123	 -0.309979	 0.000519
H	 -3.984618	 0.931166	 0.878514
C	 2.472581	 1.533414	 -1.487693
H	 2.551163	 2.178041	 -2.351272
H	 3.201106	 0.739808	 -1.545916
H	 2.626856	 2.118505	 -0.592498

	symmetry c1
}
set optking {
	frozen_dihedral = ("
		9 5 8 12,
		9 5 3 6,
		1 2 4 17
	")
}

ee = energy('scf')
oeprop('DIPOLE', 'QUADRUPOLE', 'MULLIKEN_CHARGES')
f=open( 'psi4out.xyz', 'w' )
f.write( "20  " )
f.write( str(ee) + "\n" )
f.write( MOL.save_string_xyz() )
f.close()
--------------------------------------------------------------------------

  Memory set to   2.000 GiB by Python script.

*** tstart() called on cx1-3-16-2.cx1.hpc.ic.ac.uk
*** at Tue Jul  5 16:50:55 2016


         ---------------------------------------------------------
                                   SCF
            by Justin Turney, Rob Parrish, and Andy Simmonett
                              RHF Reference
                        1 Threads,   2000 MiB Core
         ---------------------------------------------------------

  ==> Geometry <==

    Molecular point group: c1
    Full point group: C1

    Geometry (in Angstrom), charge = 0, multiplicity = 1:

       Center              X                  Y                   Z               Mass       
    ------------   -----------------  -----------------  -----------------  -----------------
           O          0.822965024688     1.878573280838    -0.458828088879    15.994914619560
           C          0.757189024688     0.692284280838    -0.496713088879    12.000000000000
           C         -0.515873975312    -0.117940719162    -0.469518088879    12.000000000000
           O          1.824829024688    -0.092453719162    -0.569552088879    15.994914619560
           C         -0.795844975312    -0.761927719162     0.884822911121    12.000000000000
           H         -1.326730975312     0.541404280838    -0.767056088879     1.007825032070
           H         -0.441105975312    -0.866591719162    -1.253537088879     1.007825032070
           C         -2.090311975312    -1.576618719162     0.884733911121    12.000000000000
           H         -0.847452975312     0.010996280838     1.645367911121     1.007825032070
           H          0.039726024688    -1.398688719162     1.158428911121     1.007825032070
           C         -3.340090975312    -0.697383719162     0.886184911121    12.000000000000
           H         -2.109426975312    -2.228501719162     0.013665911121     1.007825032070
           H         -2.108529975312    -2.230115719162     1.754607911121     1.007825032070
           H         -3.368525975312    -0.056017719162     0.010116911121     1.007825032070
           H         -4.243435975312    -1.299250719162     0.885793911121     1.007825032070
           H         -3.367930975312    -0.058105719162     1.763788911121     1.007825032070
           C          3.089268024688     0.544142280838    -0.602418088879    12.000000000000
           H          3.167850024688     1.188769280838    -1.465997088879     1.007825032070
           H          3.817793024688    -0.249463719162    -0.660641088879     1.007825032070
           H          3.243543024688     1.129233280838     0.292776911121     1.007825032070

  Running in c1 symmetry.

  Rotational constants: A =      0.17957  B =      0.02883  C =      0.02631 [cm^-1]
  Rotational constants: A =   5383.48772  B =    864.42153  C =    788.82410 [MHz]
  Nuclear repulsion =  386.506038899242355

  Charge       = 0
  Multiplicity = 1
  Electrons    = 64
  Nalpha       = 32
  Nbeta        = 32

  ==> Algorithm <==

  SCF Algorithm Type is DF.
  DIIS enabled.
  MOM disabled.
  Fractional occupation disabled.
  Guess Type is CORE.
  Energy threshold   = 1.00e-06
  Density threshold  = 1.00e-06
  Integral threshold = 0.00e+00

  ==> Primary Basis <==

  Basis Set: 6-31G*
    Number of shells: 72
    Number of basis function: 144
    Number of Cartesian functions: 144
    Spherical Harmonics?: false
    Max angular momentum: 2

  ==> Pre-Iterations <==

   -------------------------------------------------------
    Irrep   Nso     Nmo     Nalpha   Nbeta   Ndocc  Nsocc
   -------------------------------------------------------
     A        144     144       0       0       0       0
   -------------------------------------------------------
    Total     144     144      32      32      32       0
   -------------------------------------------------------

 OEINTS: Overlap, kinetic, potential, dipole, and quadrupole integrals
         stored in file 35.

  ==> Integral Setup <==

  ==> DFJK: Density-Fitted J/K Matrices <==

    J tasked:                  Yes
    K tasked:                  Yes
    wK tasked:                  No
    OpenMP threads:              1
    Integrals threads:           1
    Memory (MB):              1430
    Algorithm:                Core
    Integral Cache:           NONE
    Schwarz Cutoff:          1E-12
    Fitting Condition:       1E-12

   => Auxiliary Basis Set <=

  Basis Set: 
    Number of shells: 300
    Number of basis function: 948
    Number of Cartesian functions: 948
    Spherical Harmonics?: false
    Max angular momentum: 3

  Minimum eigenvalue in the overlap matrix is 2.9451504585E-03.
  Using Symmetric Orthogonalization.
  SCF Guess: Core (One-Electron) Hamiltonian.

  ==> Iterations <==

                           Total Energy        Delta E     RMS |[F,P]|

   @DF-RHF iter   1:  -251.49144608947864   -2.51491e+02   7.49225e-02 
   @DF-RHF iter   2:   -30.62812706490075    2.20863e+02   8.55314e-02 DIIS
   @DF-RHF iter   3:  -192.45384095972014   -1.61826e+02   6.86911e-02 DIIS
   @DF-RHF iter   4:  -279.04608599422664   -8.65922e+01   6.02696e-02 DIIS
   @DF-RHF iter   5:  -359.92478948943682   -8.08787e+01   3.87390e-02 DIIS
   @DF-RHF iter   6:  -383.38221182089666   -2.34574e+01   7.46208e-03 DIIS
   @DF-RHF iter   7:  -383.81067440278781   -4.28463e-01   4.03893e-03 DIIS
   @DF-RHF iter   8:  -383.92082901845384   -1.10155e-01   1.13038e-03 DIIS
   @DF-RHF iter   9:  -383.93601364448460   -1.51846e-02   3.47251e-04 DIIS
   @DF-RHF iter  10:  -383.93748329970521   -1.46966e-03   1.29515e-04 DIIS
   @DF-RHF iter  11:  -383.93771646318743   -2.33163e-04   4.91047e-05 DIIS
   @DF-RHF iter  12:  -383.93774857974603   -3.21166e-05   1.25428e-05 DIIS
   @DF-RHF iter  13:  -383.93775174766535   -3.16792e-06   4.20219e-06 DIIS
   @DF-RHF iter  14:  -383.93775217704473   -4.29379e-07   1.15508e-06 DIIS
   @DF-RHF iter  15:  -383.93775222252708   -4.54824e-08   4.52287e-07 DIIS

  ==> Post-Iterations <==

    Orbital Energies (a.u.)
    -----------------------

    Doubly Occupied:                                                      

       1A    -20.604025     2A    -20.543860     3A    -11.370970  
       4A    -11.280566     5A    -11.233420     6A    -11.229181  
       7A    -11.224466     8A    -11.213692     9A     -1.468752  
      10A     -1.361458    11A     -1.095054    12A     -1.023116  
      13A     -0.965605    14A     -0.897597    15A     -0.803151  
      16A     -0.773428    17A     -0.698439    18A     -0.678828  
      19A     -0.673341    20A     -0.630536    21A     -0.615412  
      22A     -0.595555    23A     -0.565313    24A     -0.554628  
      25A     -0.534087    26A     -0.522108    27A     -0.514244  
      28A     -0.486372    29A     -0.477465    30A     -0.471769  
      31A     -0.453154    32A     -0.429712  

    Virtual:                                                              

      33A      0.195399    34A      0.232697    35A      0.258615  
      36A      0.265464    37A      0.273478    38A      0.291811  
      39A      0.304383    40A      0.312999    41A      0.321197  
      42A      0.327812    43A      0.332075    44A      0.335261  
      45A      0.348914    46A      0.375449    47A      0.398709  
      48A      0.434669    49A      0.444286    50A      0.471742  
      51A      0.526671    52A      0.570162    53A      0.703452  
      54A      0.711692    55A      0.730810    56A      0.739884  
      57A      0.746691    58A      0.767039    59A      0.774044  
      60A      0.797737    61A      0.833963    62A      0.885957  
      63A      0.911694    64A      0.933663    65A      0.960062  
      66A      0.962104    67A      0.998131    68A      1.006786  
      69A      1.091955    70A      1.098909    71A      1.102131  
      72A      1.124027    73A      1.139297    74A      1.143694  
      75A      1.147738    76A      1.155434    77A      1.183920  
      78A      1.188343    79A      1.210761    80A      1.214143  
      81A      1.230615    82A      1.246624    83A      1.248239  
      84A      1.280024    85A      1.296716    86A      1.340289  
      87A      1.362323    88A      1.389601    89A      1.414225  
      90A      1.454640    91A      1.536155    92A      1.654803  
      93A      1.661963    94A      1.674617    95A      1.759690  
      96A      1.789606    97A      1.829012    98A      1.859840  
      99A      1.919506   100A      1.934851   101A      1.980501  
     102A      2.068199   103A      2.074658   104A      2.089915  
     105A      2.129088   106A      2.159341   107A      2.181331  
     108A      2.209237   109A      2.239431   110A      2.284243  
     111A      2.304177   112A      2.345949   113A      2.383067  
     114A      2.395015   115A      2.425415   116A      2.440159  
     117A      2.480915   118A      2.517355   119A      2.604211  
     120A      2.621285   121A      2.651535   122A      2.686326  
     123A      2.695795   124A      2.752035   125A      2.755352  
     126A      2.773917   127A      2.840070   128A      2.933367  
     129A      2.984635   130A      3.006674   131A      3.074355  
     132A      3.119427   133A      3.171914   134A      3.349203  
     135A      3.414649   136A      3.559054   137A      4.442756  
     138A      4.531583   139A      4.592599   140A      4.653570  
     141A      4.718206   142A      4.810888   143A      4.884136  
     144A      5.024149  

    Final Occupation by Irrep:
              A 
    DOCC [    32 ]

  Energy converged.

  @DF-RHF Final Energy:  -383.93775222252708

   => Energetics <=

    Nuclear Repulsion Energy =            386.5060388992423555
    One-Electron Energy =               -1288.9090713722741839
    Two-Electron Energy =                 518.4652802505047475
    DFT Exchange-Correlation Energy =       0.0000000000000000
    Empirical Dispersion Energy =           0.0000000000000000
    PCM Polarization Energy =               0.0000000000000000
    EFP Energy =                            0.0000000000000000
    Total Energy =                       -383.9377522225270241

    Alert: EFP and PCM quantities not currently incorporated into SCF psivars.

Properties will be evaluated at   0.000000,   0.000000,   0.000000 Bohr
  ==> Properties <==


Properties computed using the SCF density matrix

  Nuclear Dipole Moment: (a.u.)
     X:    -7.0598      Y:    -5.1628      Z:     3.1612

  Electronic Dipole Moment: (a.u.)
     X:     7.2112      Y:     4.3574      Z:    -3.1113

  Dipole Moment: (a.u.)
     X:     0.1514      Y:    -0.8055      Z:     0.0499     Total:     0.8211

  Dipole Moment: (Debye)
     X:     0.3849      Y:    -2.0473      Z:     0.1268     Total:     2.0870


  Saving occupied orbitals to File 180.

*** tstop() called on cx1-3-16-2.cx1.hpc.ic.ac.uk at Tue Jul  5 16:51:10 2016
Module time:
	user time   =      14.64 seconds =       0.24 minutes
	system time =       0.17 seconds =       0.00 minutes
	total time  =         15 seconds =       0.25 minutes
Total time:
	user time   =      14.64 seconds =       0.24 minutes
	system time =       0.17 seconds =       0.00 minutes
	total time  =         15 seconds =       0.25 minutes


Properties will be evaluated at   0.000000,   0.000000,   0.000000 Bohr

Properties computed using the  density matrix

  Nuclear Dipole Moment: (a.u.)
     X:    -7.0598      Y:    -5.1628      Z:     3.1612

  Electronic Dipole Moment: (a.u.)
     X:     7.2112      Y:     4.3574      Z:    -3.1113

  Dipole Moment: (a.u.)
     X:     0.1514      Y:    -0.8055      Z:     0.0499     Total:     0.8211

  Dipole Moment: (Debye)
     X:     0.3849      Y:    -2.0473      Z:     0.1268     Total:     2.0870

  Quadrupole Moment: (Debye Ang)
    XX:   -42.8831     YY:   -57.0477     ZZ:   -48.6373
    XY:     0.7201     XZ:    -0.7297     YZ:     0.4877

  Traceless Quadrupole Moment: (Debye Ang)
    XX:     6.6396     YY:    -7.5250     ZZ:     0.8854
    XY:     0.7201     XZ:    -0.7297     YZ:     0.4877

  Mulliken Charges: (a.u.)
   Center  Symbol    Alpha    Beta     Spin     Total
       1     O     4.28433  4.28433  0.00000 -0.56866
       2     C     2.61693  2.61693  0.00000  0.76614
       3     C     3.19731  3.19731  0.00000 -0.39462
       4     O     4.30222  4.30222  0.00000 -0.60443
       5     C     3.16495  3.16495  0.00000 -0.32991
       6     H     0.39914  0.39914  0.00000  0.20172
       7     H     0.40495  0.40495  0.00000  0.19010
       8     C     3.15584  3.15584  0.00000 -0.31168
       9     H     0.41184  0.41184  0.00000  0.17631
      10     H     0.40825  0.40825  0.00000  0.18351
      11     C     3.24209  3.24209  0.00000 -0.48418
      12     H     0.42057  0.42057  0.00000  0.15885
      13     H     0.41669  0.41669  0.00000  0.16662
      14     H     0.41957  0.41957  0.00000  0.16087
      15     H     0.41725  0.41725  0.00000  0.16550
      16     H     0.41895  0.41895  0.00000  0.16209
      17     C     3.09246  3.09246  0.00000 -0.18493
      18     H     0.40877  0.40877  0.00000  0.18246
      19     H     0.40882  0.40882  0.00000  0.18237
      20     H     0.40907  0.40907  0.00000  0.18186

   Total alpha = 32.00000, Total beta = 32.00000, Total charge =  0.00000


*** PSI4 exiting successfully. Buy a developer a beer!
