    -----------------------------------------------------------------------
          Psi4: An Open-Source Ab Initio Electronic Structure Package
                              Psi4 (no tag) Driver

                          Git: Rev {detached?}  

    J. M. Turney, A. C. Simmonett, R. M. Parrish, E. G. Hohenstein,
    F. A. Evangelista, J. T. Fermann, B. J. Mintz, L. A. Burns, J. J. Wilke,
    M. L. Abrams, N. J. Russ, M. L. Leininger, C. L. Janssen, E. T. Seidl,
    W. D. Allen, H. F. Schaefer, R. A. King, E. F. Valeev, C. D. Sherrill,
    and T. D. Crawford, WIREs Comput. Mol. Sci. 2, 556-565 (2012)
    (doi: 10.1002/wcms.93)

                         Additional Contributions by
    A. E. DePrince, M. Saitow, U. Bozkaya, A. Yu. Sokolov
    -----------------------------------------------------------------------


    Psi4 started on: Tue Jul  5 17:04:29 2016

    Process ID:  26053
    PSI4DATADIR: /export131/home/mjharvey/miniconda3/share
    Memory level set to 256.000 MB

  ==> Input File <==

--------------------------------------------------------------------------
set {
	reference rhf
	basis 6-31G*
}


set_num_threads( 1 )
memory 2 gb

molecule MOL {
0 1

H	 2.451652	 -2.178703	 0.543297
O	 2.773837	 -1.297590	 0.410870
C	 1.759943	 -0.431505	 0.213148
C	 0.537431	 -0.960419	 -0.188918
C	 1.899208	 0.930804	 0.394403
H	 0.454568	 -2.022507	 -0.322930
C	 -0.538558	 -0.125229	 -0.407481
H	 2.829298	 1.365352	 0.703640
C	 0.798251	 1.740488	 0.166099
H	 -1.478703	 -0.542041	 -0.717727
C	 -0.423942	 1.247348	 -0.232155
N	 0.950984	 3.180915	 0.359304
H	 -1.249510	 1.907958	 -0.397792
O	 1.955604	 3.567183	 0.876574
O	 0.063800	 3.886800	 -0.010689

	symmetry c1
}
set optking {
	frozen_dihedral = ("
		11 9 12 14
	")
}

ee = energy('scf')
oeprop('DIPOLE', 'QUADRUPOLE', 'MULLIKEN_CHARGES')
f=open( 'psi4out.xyz', 'w' )
f.write( "15  " )
f.write( str(ee) + "\n" )
f.write( MOL.save_string_xyz() )
f.close()
--------------------------------------------------------------------------

  Memory set to   2.000 GiB by Python script.

*** tstart() called on cx1-1-4-3.cx1.hpc.ic.ac.uk
*** at Tue Jul  5 17:04:30 2016


         ---------------------------------------------------------
                                   SCF
            by Justin Turney, Rob Parrish, and Andy Simmonett
                              RHF Reference
                        1 Threads,   2000 MiB Core
         ---------------------------------------------------------

  ==> Geometry <==

    Molecular point group: c1
    Full point group: C1

    Geometry (in Angstrom), charge = 0, multiplicity = 1:

       Center              X                  Y                   Z               Mass       
    ------------   -----------------  -----------------  -----------------  -----------------
           H          1.434561283209    -3.404004840829     0.366345046697     1.007825032070
           O          1.756746283209    -2.522891840829     0.233918046697    15.994914619560
           C          0.742852283209    -1.656806840829     0.036196046697    12.000000000000
           C         -0.479659716791    -2.185720840829    -0.365869953303    12.000000000000
           C          0.882117283209    -0.294497840829     0.217451046697    12.000000000000
           H         -0.562522716791    -3.247808840829    -0.499881953303     1.007825032070
           C         -1.555648716791    -1.350530840829    -0.584432953303    12.000000000000
           H          1.812207283209     0.140050159171     0.526688046697     1.007825032070
           C         -0.218839716791     0.515186159171    -0.010852953303    12.000000000000
           H         -2.495793716791    -1.767342840829    -0.894678953303     1.007825032070
           C         -1.441032716791     0.022046159171    -0.409106953303    12.000000000000
           N         -0.066106716791     1.955613159171     0.182352046697    14.003074004780
           H         -2.266600716791     0.682656159171    -0.574743953303     1.007825032070
           O          0.938513283209     2.341881159171     0.699622046697    15.994914619560
           O         -0.953290716791     2.661498159171    -0.187640953303    15.994914619560

  Running in c1 symmetry.

  Rotational constants: A =      0.09547  B =      0.03297  C =      0.02457 [cm^-1]
  Rotational constants: A =   2862.15490  B =    988.26645  C =    736.61746 [MHz]
  Nuclear repulsion =  503.179481758253587

  Charge       = 0
  Multiplicity = 1
  Electrons    = 72
  Nalpha       = 36
  Nbeta        = 36

  ==> Algorithm <==

  SCF Algorithm Type is DF.
  DIIS enabled.
  MOM disabled.
  Fractional occupation disabled.
  Guess Type is CORE.
  Energy threshold   = 1.00e-06
  Density threshold  = 1.00e-06
  Integral threshold = 0.00e+00

  ==> Primary Basis <==

  Basis Set: 6-31G*
    Number of shells: 70
    Number of basis function: 160
    Number of Cartesian functions: 160
    Spherical Harmonics?: false
    Max angular momentum: 2

  ==> Pre-Iterations <==

   -------------------------------------------------------
    Irrep   Nso     Nmo     Nalpha   Nbeta   Ndocc  Nsocc
   -------------------------------------------------------
     A        160     160       0       0       0       0
   -------------------------------------------------------
    Total     160     160      36      36      36       0
   -------------------------------------------------------

 OEINTS: Overlap, kinetic, potential, dipole, and quadrupole integrals
         stored in file 35.

  ==> Integral Setup <==

  ==> DFJK: Density-Fitted J/K Matrices <==

    J tasked:                  Yes
    K tasked:                  Yes
    wK tasked:                  No
    OpenMP threads:              1
    Integrals threads:           1
    Memory (MB):              1430
    Algorithm:                Core
    Integral Cache:           NONE
    Schwarz Cutoff:          1E-12
    Fitting Condition:       1E-12

   => Auxiliary Basis Set <=

  Basis Set: 
    Number of shells: 285
    Number of basis function: 935
    Number of Cartesian functions: 935
    Spherical Harmonics?: false
    Max angular momentum: 3

  Minimum eigenvalue in the overlap matrix is 4.1792183761E-04.
  Using Symmetric Orthogonalization.
  SCF Guess: Core (One-Electron) Hamiltonian.

  ==> Iterations <==

                           Total Energy        Delta E     RMS |[F,P]|

   @DF-RHF iter   1:  -421.27273002434958   -4.21273e+02   6.03046e-02 
   @DF-RHF iter   2:  -307.72151307071590    1.13551e+02   5.78649e-02 DIIS
   @DF-RHF iter   3:  -329.14451856045889   -2.14230e+01   7.09239e-02 DIIS
   @DF-RHF iter   4:  -494.21281078887716   -1.65068e+02   2.57670e-02 DIIS
   @DF-RHF iter   5:  -495.87765569734984   -1.66484e+00   2.71871e-02 DIIS
   @DF-RHF iter   6:  -507.88942569024175   -1.20118e+01   8.95760e-03 DIIS
   @DF-RHF iter   7:  -508.85184485437389   -9.62419e-01   3.32051e-03 DIIS
   @DF-RHF iter   8:  -508.97374737726159   -1.21903e-01   1.57490e-03 DIIS
   @DF-RHF iter   9:  -509.01921566642818   -4.54683e-02   5.36809e-04 DIIS
   @DF-RHF iter  10:  -509.02300667158352   -3.79101e-03   1.76665e-04 DIIS
   @DF-RHF iter  11:  -509.02363076709560   -6.24096e-04   7.58619e-05 DIIS
   @DF-RHF iter  12:  -509.02375643217067   -1.25665e-04   4.10676e-05 DIIS
   @DF-RHF iter  13:  -509.02380139890533   -4.49667e-05   1.46129e-05 DIIS
   @DF-RHF iter  14:  -509.02381097018645   -9.57128e-06   6.19205e-06 DIIS
   @DF-RHF iter  15:  -509.02381309699263   -2.12681e-06   2.71354e-06 DIIS
   @DF-RHF iter  16:  -509.02381356732644   -4.70334e-07   1.12669e-06 DIIS
   @DF-RHF iter  17:  -509.02381363401514   -6.66887e-08   3.68743e-07 DIIS

  ==> Post-Iterations <==

    Orbital Energies (a.u.)
    -----------------------

    Doubly Occupied:                                                      

       1A    -20.612659     2A    -20.603559     3A    -20.602925  
       4A    -15.857845     5A    -11.330541     6A    -11.311055  
       7A    -11.269024     8A    -11.265246     9A    -11.264994  
      10A    -11.264394    11A     -1.636596    12A     -1.435286  
      13A     -1.419715    14A     -1.200664    15A     -1.094949  
      16A     -1.047723    17A     -0.965334    18A     -0.865932  
      19A     -0.846280    20A     -0.795501    21A     -0.735696  
      22A     -0.733113    23A     -0.721910    24A     -0.712134  
      25A     -0.680415    26A     -0.636622    27A     -0.620368  
      28A     -0.588912    29A     -0.569889    30A     -0.531809  
      31A     -0.514998    32A     -0.491396    33A     -0.488414  
      34A     -0.452544    35A     -0.378895    36A     -0.343994  

    Virtual:                                                              

      37A      0.058236    38A      0.126753    39A      0.176918  
      40A      0.202928    41A      0.228086    42A      0.291240  
      43A      0.294309    44A      0.330271    45A      0.357960  
      46A      0.385138    47A      0.421555    48A      0.446456  
      49A      0.449104    50A      0.518270    51A      0.528774  
      52A      0.563619    53A      0.605777    54A      0.672672  
      55A      0.694100    56A      0.710088    57A      0.715283  
      58A      0.751055    59A      0.784394    60A      0.794128  
      61A      0.799329    62A      0.810386    63A      0.837616  
      64A      0.867422    65A      0.876120    66A      0.882298  
      67A      0.889450    68A      0.948616    69A      0.978346  
      70A      0.982741    71A      0.997354    72A      1.035193  
      73A      1.044037    74A      1.073041    75A      1.091825  
      76A      1.096483    77A      1.129846    78A      1.144754  
      79A      1.169343    80A      1.177997    81A      1.200840  
      82A      1.220381    83A      1.231738    84A      1.250550  
      85A      1.270119    86A      1.295122    87A      1.320872  
      88A      1.342515    89A      1.369935    90A      1.410193  
      91A      1.449461    92A      1.458082    93A      1.495746  
      94A      1.524759    95A      1.543584    96A      1.589146  
      97A      1.628732    98A      1.641334    99A      1.653958  
     100A      1.699821   101A      1.722034   102A      1.727818  
     103A      1.733605   104A      1.743740   105A      1.930898  
     106A      1.971901   107A      2.009896   108A      2.017037  
     109A      2.051397   110A      2.069409   111A      2.077384  
     112A      2.108441   113A      2.126148   114A      2.169538  
     115A      2.212548   116A      2.223849   117A      2.239171  
     118A      2.260860   119A      2.271990   120A      2.292753  
     121A      2.366407   122A      2.387353   123A      2.421233  
     124A      2.460031   125A      2.473303   126A      2.475675  
     127A      2.548238   128A      2.580284   129A      2.603252  
     130A      2.612932   131A      2.732425   132A      2.759185  
     133A      2.813276   134A      2.846121   135A      2.894185  
     136A      2.941772   137A      2.958792   138A      2.966897  
     139A      3.005648   140A      3.092439   141A      3.099643  
     142A      3.109490   143A      3.162219   144A      3.254857  
     145A      3.281066   146A      3.301395   147A      3.413795  
     148A      3.497754   149A      3.605906   150A      3.835120  
     151A      4.163255   152A      4.278388   153A      4.368457  
     154A      4.437152   155A      4.501500   156A      4.535711  
     157A      4.608487   158A      4.756345   159A      4.869786  
     160A      5.159100  

    Final Occupation by Irrep:
              A 
    DOCC [    36 ]

  Energy converged.

  @DF-RHF Final Energy:  -509.02381363401514

   => Energetics <=

    Nuclear Repulsion Energy =            503.1794817582535870
    One-Electron Energy =               -1692.6237060250400646
    Two-Electron Energy =                 680.4204106327719046
    DFT Exchange-Correlation Energy =       0.0000000000000000
    Empirical Dispersion Energy =           0.0000000000000000
    PCM Polarization Energy =               0.0000000000000000
    EFP Energy =                            0.0000000000000000
    Total Energy =                       -509.0238136340145729

    Alert: EFP and PCM quantities not currently incorporated into SCF psivars.

Properties will be evaluated at   0.000000,   0.000000,   0.000000 Bohr
  ==> Properties <==


Properties computed using the SCF density matrix

  Nuclear Dipole Moment: (a.u.)
     X:    -1.9396      Y:    -7.1152      Z:    -1.0059

  Electronic Dipole Moment: (a.u.)
     X:     1.2685      Y:     4.8303      Z:     0.8046

  Dipole Moment: (a.u.)
     X:    -0.6712      Y:    -2.2849      Z:    -0.2014     Total:     2.3900

  Dipole Moment: (Debye)
     X:    -1.7059      Y:    -5.8077      Z:    -0.5118     Total:     6.0747


  Saving occupied orbitals to File 180.

*** tstop() called on cx1-1-4-3.cx1.hpc.ic.ac.uk at Tue Jul  5 17:04:51 2016
Module time:
	user time   =      20.67 seconds =       0.34 minutes
	system time =       0.25 seconds =       0.00 minutes
	total time  =         21 seconds =       0.35 minutes
Total time:
	user time   =      20.67 seconds =       0.34 minutes
	system time =       0.25 seconds =       0.00 minutes
	total time  =         21 seconds =       0.35 minutes


Properties will be evaluated at   0.000000,   0.000000,   0.000000 Bohr

Properties computed using the  density matrix

  Nuclear Dipole Moment: (a.u.)
     X:    -1.9396      Y:    -7.1152      Z:    -1.0059

  Electronic Dipole Moment: (a.u.)
     X:     1.2685      Y:     4.8303      Z:     0.8046

  Dipole Moment: (a.u.)
     X:    -0.6712      Y:    -2.2849      Z:    -0.2014     Total:     2.3900

  Dipole Moment: (Debye)
     X:    -1.7059      Y:    -5.8077      Z:    -0.5118     Total:     6.0747

  Quadrupole Moment: (Debye Ang)
    XX:   -56.8021     YY:   -55.6988     ZZ:   -58.0677
    XY:     2.0781     XZ:     0.6017     YZ:    -1.2772

  Traceless Quadrupole Moment: (Debye Ang)
    XX:     0.0541     YY:     1.1574     ZZ:    -1.2115
    XY:     2.0781     XZ:     0.6017     YZ:    -1.2772

  Mulliken Charges: (a.u.)
   Center  Symbol    Alpha    Beta     Spin     Total
       1     H     0.26691  0.26691  0.00000  0.46618
       2     O     4.37837  4.37837  0.00000 -0.75674
       3     C     2.78769  2.78769  0.00000  0.42463
       4     C     3.13107  3.13107  0.00000 -0.26213
       5     C     3.11648  3.11648  0.00000 -0.23297
       6     H     0.39378  0.39378  0.00000  0.21245
       7     C     3.09994  3.09994  0.00000 -0.19988
       8     H     0.35804  0.35804  0.00000  0.28392
       9     C     2.91091  2.91091  0.00000  0.17817
      10     H     0.38739  0.38739  0.00000  0.22521
      11     C     3.09788  3.09788  0.00000 -0.19576
      12     N     3.24297  3.24297  0.00000  0.51406
      13     H     0.36562  0.36562  0.00000  0.26876
      14     O     4.23123  4.23123  0.00000 -0.46247
      15     O     4.23171  4.23171  0.00000 -0.46342

   Total alpha = 36.00000, Total beta = 36.00000, Total charge =  0.00000


*** PSI4 exiting successfully. Buy a developer a beer!
