    -----------------------------------------------------------------------
          Psi4: An Open-Source Ab Initio Electronic Structure Package
                              Psi4 (no tag) Driver

                          Git: Rev {detached?}  

    J. M. Turney, A. C. Simmonett, R. M. Parrish, E. G. Hohenstein,
    F. A. Evangelista, J. T. Fermann, B. J. Mintz, L. A. Burns, J. J. Wilke,
    M. L. Abrams, N. J. Russ, M. L. Leininger, C. L. Janssen, E. T. Seidl,
    W. D. Allen, H. F. Schaefer, R. A. King, E. F. Valeev, C. D. Sherrill,
    and T. D. Crawford, WIREs Comput. Mol. Sci. 2, 556-565 (2012)
    (doi: 10.1002/wcms.93)

                         Additional Contributions by
    A. E. DePrince, M. Saitow, U. Bozkaya, A. Yu. Sokolov
    -----------------------------------------------------------------------


    Psi4 started on: Tue Jul  5 16:31:36 2016

    Process ID:  28872
    PSI4DATADIR: /export131/home/mjharvey/miniconda3/share
    Memory level set to 256.000 MB

  ==> Input File <==

--------------------------------------------------------------------------
set {
	reference rhf
	basis 6-31G*
}


set_num_threads( 1 )
memory 2 gb

molecule MOL {
0 1

H	 -0.407661	 -0.681784	 -0.969301
N	 -0.626943	 -0.667432	 -0.000092
C	 -1.946565	 -1.092090	 0.408539
C	 0.325755	 -0.252874	 0.869779
H	 -2.598826	 -1.213176	 -0.449890
H	 -2.358159	 -0.335814	 1.056895
H	 -1.902880	 -2.032466	 0.947813
C	 1.674978	 -0.919497	 0.690344
O	 0.127974	 0.574320	 1.716447
H	 2.068026	 -0.726742	 -0.302990
H	 2.359261	 -0.526889	 1.427442
H	 1.590945	 -1.994555	 0.814939

	symmetry c1
}
set optking {
	frozen_dihedral = ("
		4 2 3 5
	")
}

ee = energy('scf')
oeprop('DIPOLE', 'QUADRUPOLE', 'MULLIKEN_CHARGES')
f=open( 'psi4out.xyz', 'w' )
f.write( "12  " )
f.write( str(ee) + "\n" )
f.write( MOL.save_string_xyz() )
f.close()
--------------------------------------------------------------------------

  Memory set to   2.000 GiB by Python script.

*** tstart() called on cx1-3-2-3.cx1.hpc.ic.ac.uk
*** at Tue Jul  5 16:31:37 2016


         ---------------------------------------------------------
                                   SCF
            by Justin Turney, Rob Parrish, and Andy Simmonett
                              RHF Reference
                        1 Threads,   2000 MiB Core
         ---------------------------------------------------------

  ==> Geometry <==

    Molecular point group: c1
    Full point group: C1

    Geometry (in Angstrom), charge = 0, multiplicity = 1:

       Center              X                  Y                   Z               Mass       
    ------------   -----------------  -----------------  -----------------  -----------------
           H         -0.307168569583    -0.203997347788    -1.703314904364     1.007825032070
           N         -0.526450569583    -0.189645347788    -0.734105904364    14.003074004780
           C         -1.846072569583    -0.614303347788    -0.325474904364    12.000000000000
           C          0.426247430417     0.224912652212     0.135765095636    12.000000000000
           H         -2.498333569583    -0.735389347788    -1.183903904364     1.007825032070
           H         -2.257666569583     0.141972652212     0.322881095636     1.007825032070
           H         -1.802387569583    -1.554679347788     0.213799095636     1.007825032070
           C          1.775470430417    -0.441710347788    -0.043669904364    12.000000000000
           O          0.228466430417     1.052106652212     0.982433095636    15.994914619560
           H          2.168518430417    -0.248955347788    -1.037003904364     1.007825032070
           H          2.459753430417    -0.049102347788     0.693428095636     1.007825032070
           H          1.691437430417    -1.516768347788     0.080925095636     1.007825032070

  Running in c1 symmetry.

  Rotational constants: A =      0.30666  B =      0.13074  C =      0.10052 [cm^-1]
  Rotational constants: A =   9193.44884  B =   3919.38911  C =   3013.46495 [MHz]
  Nuclear repulsion =  180.942119157272572

  Charge       = 0
  Multiplicity = 1
  Electrons    = 40
  Nalpha       = 20
  Nbeta        = 20

  ==> Algorithm <==

  SCF Algorithm Type is DF.
  DIIS enabled.
  MOM disabled.
  Fractional occupation disabled.
  Guess Type is CORE.
  Energy threshold   = 1.00e-06
  Density threshold  = 1.00e-06
  Integral threshold = 0.00e+00

  ==> Primary Basis <==

  Basis Set: 6-31G*
    Number of shells: 44
    Number of basis function: 89
    Number of Cartesian functions: 89
    Spherical Harmonics?: false
    Max angular momentum: 2

  ==> Pre-Iterations <==

   -------------------------------------------------------
    Irrep   Nso     Nmo     Nalpha   Nbeta   Ndocc  Nsocc
   -------------------------------------------------------
     A         89      89       0       0       0       0
   -------------------------------------------------------
    Total      89      89      20      20      20       0
   -------------------------------------------------------

 OEINTS: Overlap, kinetic, potential, dipole, and quadrupole integrals
         stored in file 35.

  ==> Integral Setup <==

  ==> DFJK: Density-Fitted J/K Matrices <==

    J tasked:                  Yes
    K tasked:                  Yes
    wK tasked:                  No
    OpenMP threads:              1
    Integrals threads:           1
    Memory (MB):              1430
    Algorithm:                Core
    Integral Cache:           NONE
    Schwarz Cutoff:          1E-12
    Fitting Condition:       1E-12

   => Auxiliary Basis Set <=

  Basis Set: 
    Number of shells: 183
    Number of basis function: 580
    Number of Cartesian functions: 580
    Spherical Harmonics?: false
    Max angular momentum: 3

  Minimum eigenvalue in the overlap matrix is 4.0744601063E-03.
  Using Symmetric Orthogonalization.
  SCF Guess: Core (One-Electron) Hamiltonian.

  ==> Iterations <==

                           Total Energy        Delta E     RMS |[F,P]|

   @DF-RHF iter   1:  -191.17056375999286   -1.91171e+02   8.68265e-02 
   @DF-RHF iter   2:  -192.03509996625789   -8.64536e-01   5.89723e-02 DIIS
   @DF-RHF iter   3:  -216.40316439926167   -2.43681e+01   6.59223e-02 DIIS
   @DF-RHF iter   4:  -242.03629518021850   -2.56331e+01   3.06801e-02 DIIS
   @DF-RHF iter   5:  -245.56251541712911   -3.52622e+00   1.69268e-02 DIIS
   @DF-RHF iter   6:  -246.72230329922084   -1.15979e+00   7.12162e-03 DIIS
   @DF-RHF iter   7:  -246.94371916440710   -2.21416e-01   2.58424e-03 DIIS
   @DF-RHF iter   8:  -246.97739318990958   -3.36740e-02   7.26248e-04 DIIS
   @DF-RHF iter   9:  -246.98072236216629   -3.32917e-03   2.57490e-04 DIIS
   @DF-RHF iter  10:  -246.98119134138662   -4.68979e-04   9.84152e-05 DIIS
   @DF-RHF iter  11:  -246.98130028827174   -1.08947e-04   3.20183e-05 DIIS
   @DF-RHF iter  12:  -246.98131677578331   -1.64875e-05   1.52822e-05 DIIS
   @DF-RHF iter  13:  -246.98131848764584   -1.71186e-06   4.76734e-06 DIIS
   @DF-RHF iter  14:  -246.98131869389115   -2.06245e-07   1.56066e-06 DIIS
   @DF-RHF iter  15:  -246.98131871828210   -2.43909e-08   2.83422e-07 DIIS

  ==> Post-Iterations <==

    Orbital Energies (a.u.)
    -----------------------

    Doubly Occupied:                                                      

       1A    -20.532538     2A    -15.561301     3A    -11.345198  
       4A    -11.257676     5A    -11.226512     6A     -1.390851  
       7A     -1.222927     8A     -1.010625     9A     -0.933251  
      10A     -0.782891    11A     -0.686359    12A     -0.647171  
      13A     -0.637876    14A     -0.584525    15A     -0.583358  
      16A     -0.559887    17A     -0.547587    18A     -0.494949  
      19A     -0.419496    20A     -0.374622  

    Virtual:                                                              

      21A      0.177761    22A      0.223558    23A      0.266630  
      24A      0.275620    25A      0.311289    26A      0.318909  
      27A      0.335291    28A      0.351692    29A      0.378941  
      30A      0.420796    31A      0.512339    32A      0.593848  
      33A      0.719027    34A      0.742082    35A      0.769523  
      36A      0.779339    37A      0.787849    38A      0.820089  
      39A      0.862374    40A      0.970072    41A      1.001102  
      42A      1.012336    43A      1.058687    44A      1.094183  
      45A      1.116777    46A      1.142461    47A      1.146159  
      48A      1.186894    49A      1.209212    50A      1.218365  
      51A      1.222824    52A      1.237707    53A      1.309514  
      54A      1.347336    55A      1.371511    56A      1.411849  
      57A      1.508784    58A      1.625404    59A      1.741439  
      60A      1.786330    61A      1.864644    62A      1.942502  
      63A      2.034820    64A      2.101264    65A      2.143439  
      66A      2.192001    67A      2.252509    68A      2.259735  
      69A      2.331862    70A      2.382732    71A      2.409753  
      72A      2.466413    73A      2.513707    74A      2.554521  
      75A      2.625604    76A      2.668577    77A      2.769247  
      78A      2.835987    79A      2.934229    80A      3.022342  
      81A      3.110553    82A      3.248924    83A      3.366802  
      84A      3.507402    85A      4.352240    86A      4.464040  
      87A      4.600410    88A      4.709243    89A      4.863071  

    Final Occupation by Irrep:
              A 
    DOCC [    20 ]

  Energy converged.

  @DF-RHF Final Energy:  -246.98131871828210

   => Energetics <=

    Nuclear Repulsion Energy =            180.9421191572725718
    One-Electron Energy =                -694.2476428187524107
    Two-Electron Energy =                 266.3242049431977421
    DFT Exchange-Correlation Energy =       0.0000000000000000
    Empirical Dispersion Energy =           0.0000000000000000
    PCM Polarization Energy =               0.0000000000000000
    EFP Energy =                            0.0000000000000000
    Total Energy =                       -246.9813187182820684

    Alert: EFP and PCM quantities not currently incorporated into SCF psivars.

Properties will be evaluated at   0.000000,   0.000000,   0.000000 Bohr
  ==> Properties <==


Properties computed using the SCF density matrix

  Nuclear Dipole Moment: (a.u.)
     X:    -0.5091      Y:    -3.9008      Z:    -2.4429

  Electronic Dipole Moment: (a.u.)
     X:     0.4839      Y:     2.9255      Z:     1.3316

  Dipole Moment: (a.u.)
     X:    -0.0252      Y:    -0.9752      Z:    -1.1113     Total:     1.4788

  Dipole Moment: (Debye)
     X:    -0.0641      Y:    -2.4788      Z:    -2.8247     Total:     3.7586


  Saving occupied orbitals to File 180.

*** tstop() called on cx1-3-2-3.cx1.hpc.ic.ac.uk at Tue Jul  5 16:31:42 2016
Module time:
	user time   =       4.73 seconds =       0.08 minutes
	system time =       0.03 seconds =       0.00 minutes
	total time  =          5 seconds =       0.08 minutes
Total time:
	user time   =       4.73 seconds =       0.08 minutes
	system time =       0.03 seconds =       0.00 minutes
	total time  =          5 seconds =       0.08 minutes


Properties will be evaluated at   0.000000,   0.000000,   0.000000 Bohr

Properties computed using the  density matrix

  Nuclear Dipole Moment: (a.u.)
     X:    -0.5091      Y:    -3.9008      Z:    -2.4429

  Electronic Dipole Moment: (a.u.)
     X:     0.4839      Y:     2.9255      Z:     1.3316

  Dipole Moment: (a.u.)
     X:    -0.0252      Y:    -0.9752      Z:    -1.1113     Total:     1.4788

  Dipole Moment: (Debye)
     X:    -0.0641      Y:    -2.4788      Z:    -2.8247     Total:     3.7586

  Quadrupole Moment: (Debye Ang)
    XX:   -27.3578     YY:   -33.6922     ZZ:   -30.3040
    XY:     0.3869     XZ:    -0.0552     YZ:    -2.5163

  Traceless Quadrupole Moment: (Debye Ang)
    XX:     3.0936     YY:    -3.2408     ZZ:     0.1473
    XY:     0.3869     XZ:    -0.0552     YZ:    -2.5163

  Mulliken Charges: (a.u.)
   Center  Symbol    Alpha    Beta     Spin     Total
       1     H     0.30956  0.30956  0.00000  0.38088
       2     N     3.89871  3.89871  0.00000 -0.79741
       3     C     3.13686  3.13686  0.00000 -0.27373
       4     C     2.64785  2.64785  0.00000  0.70430
       5     H     0.41417  0.41417  0.00000  0.17167
       6     H     0.39992  0.39992  0.00000  0.20015
       7     H     0.41756  0.41756  0.00000  0.16488
       8     C     3.28336  3.28336  0.00000 -0.56672
       9     O     4.27515  4.27515  0.00000 -0.55030
      10     H     0.41304  0.41304  0.00000  0.17392
      11     H     0.39799  0.39799  0.00000  0.20402
      12     H     0.40583  0.40583  0.00000  0.18835

   Total alpha = 20.00000, Total beta = 20.00000, Total charge = -0.00000


*** PSI4 exiting successfully. Buy a developer a beer!
