    -----------------------------------------------------------------------
          Psi4: An Open-Source Ab Initio Electronic Structure Package
                              Psi4 (no tag) Driver

                          Git: Rev {detached?}  

    J. M. Turney, A. C. Simmonett, R. M. Parrish, E. G. Hohenstein,
    F. A. Evangelista, J. T. Fermann, B. J. Mintz, L. A. Burns, J. J. Wilke,
    M. L. Abrams, N. J. Russ, M. L. Leininger, C. L. Janssen, E. T. Seidl,
    W. D. Allen, H. F. Schaefer, R. A. King, E. F. Valeev, C. D. Sherrill,
    and T. D. Crawford, WIREs Comput. Mol. Sci. 2, 556-565 (2012)
    (doi: 10.1002/wcms.93)

                         Additional Contributions by
    A. E. DePrince, M. Saitow, U. Bozkaya, A. Yu. Sokolov
    -----------------------------------------------------------------------


    Psi4 started on: Tue Jul  5 16:31:41 2016

    Process ID:  16193
    PSI4DATADIR: /export131/home/mjharvey/miniconda3/share
    Memory level set to 256.000 MB

  ==> Input File <==

--------------------------------------------------------------------------
set {
	reference rhf
	basis 6-31G*
}


set_num_threads( 1 )
memory 2 gb

molecule MOL {
0 1

H	 2.471689	 1.249822	 -1.905088
O	 1.631499	 0.886023	 -1.665460
C	 0.933123	 1.800208	 -0.858179
C	 0.031547	 1.023609	 0.088541
H	 0.323809	 2.461624	 -1.471493
H	 1.627426	 2.424882	 -0.300660
C	 -1.134819	 0.293262	 -0.585751
H	 -0.364656	 1.721166	 0.821156
H	 0.648061	 0.310390	 0.633012
C	 -1.917817	 -0.639439	 0.339494
H	 -0.758119	 -0.268455	 -1.433105
H	 -1.813832	 1.041889	 -0.986690
H	 -2.777680	 -1.057197	 -0.174994
H	 -1.310268	 -1.471279	 0.680599
H	 -2.283753	 -0.111424	 1.216626

	symmetry c1
}
set optking {
	frozen_dihedral = ("
		8 4 7 11,
		2 3 4 8
	")
}

ee = energy('scf')
oeprop('DIPOLE', 'QUADRUPOLE', 'MULLIKEN_CHARGES')
f=open( 'psi4out.xyz', 'w' )
f.write( "15  " )
f.write( str(ee) + "\n" )
f.write( MOL.save_string_xyz() )
f.close()
--------------------------------------------------------------------------

  Memory set to   2.000 GiB by Python script.

*** tstart() called on cx1-1-3-3.cx1.hpc.ic.ac.uk
*** at Tue Jul  5 16:31:41 2016


         ---------------------------------------------------------
                                   SCF
            by Justin Turney, Rob Parrish, and Andy Simmonett
                              RHF Reference
                        1 Threads,   2000 MiB Core
         ---------------------------------------------------------

  ==> Geometry <==

    Molecular point group: c1
    Full point group: C1

    Geometry (in Angstrom), charge = 0, multiplicity = 1:

       Center              X                  Y                   Z               Mass       
    ------------   -----------------  -----------------  -----------------  -----------------
           H          2.515299732498     0.571381041328    -1.341143937205     1.007825032070
           O          1.675109732498     0.207582041328    -1.101515937205    15.994914619560
           C          0.976733732498     1.121767041328    -0.294234937205    12.000000000000
           C          0.075157732498     0.345168041328     0.652485062795    12.000000000000
           H          0.367419732498     1.783183041328    -0.907548937205     1.007825032070
           H          1.671036732498     1.746441041328     0.263284062795     1.007825032070
           C         -1.091208267502    -0.385178958672    -0.021806937205    12.000000000000
           H         -0.321045267502     1.042725041328     1.385100062795     1.007825032070
           H          0.691671732498    -0.368050958672     1.196956062795     1.007825032070
           C         -1.874206267502    -1.317879958672     0.903438062795    12.000000000000
           H         -0.714508267502    -0.946895958672    -0.869160937205     1.007825032070
           H         -1.770221267502     0.363448041328    -0.422745937205     1.007825032070
           H         -2.734069267502    -1.735637958672     0.388950062795     1.007825032070
           H         -1.266657267502    -2.149719958672     1.244543062795     1.007825032070
           H         -2.240142267502    -0.789864958672     1.780570062795     1.007825032070

  Running in c1 symmetry.

  Rotational constants: A =      0.42038  B =      0.07764  C =      0.07244 [cm^-1]
  Rotational constants: A =  12602.60112  B =   2327.62789  C =   2171.70244 [MHz]
  Nuclear repulsion =  188.052753859643872

  Charge       = 0
  Multiplicity = 1
  Electrons    = 42
  Nalpha       = 21
  Nbeta        = 21

  ==> Algorithm <==

  SCF Algorithm Type is DF.
  DIIS enabled.
  MOM disabled.
  Fractional occupation disabled.
  Guess Type is CORE.
  Energy threshold   = 1.00e-06
  Density threshold  = 1.00e-06
  Integral threshold = 0.00e+00

  ==> Primary Basis <==

  Basis Set: 6-31G*
    Number of shells: 50
    Number of basis function: 95
    Number of Cartesian functions: 95
    Spherical Harmonics?: false
    Max angular momentum: 2

  ==> Pre-Iterations <==

   -------------------------------------------------------
    Irrep   Nso     Nmo     Nalpha   Nbeta   Ndocc  Nsocc
   -------------------------------------------------------
     A         95      95       0       0       0       0
   -------------------------------------------------------
    Total      95      95      21      21      21       0
   -------------------------------------------------------

 OEINTS: Overlap, kinetic, potential, dipole, and quadrupole integrals
         stored in file 35.

  ==> Integral Setup <==

  ==> DFJK: Density-Fitted J/K Matrices <==

    J tasked:                  Yes
    K tasked:                  Yes
    wK tasked:                  No
    OpenMP threads:              1
    Integrals threads:           1
    Memory (MB):              1430
    Algorithm:                Core
    Integral Cache:           NONE
    Schwarz Cutoff:          1E-12
    Fitting Condition:       1E-12

   => Auxiliary Basis Set <=

  Basis Set: 
    Number of shells: 210
    Number of basis function: 655
    Number of Cartesian functions: 655
    Spherical Harmonics?: false
    Max angular momentum: 3

  Minimum eigenvalue in the overlap matrix is 4.2620873127E-03.
  Using Symmetric Orthogonalization.
  SCF Guess: Core (One-Electron) Hamiltonian.

  ==> Iterations <==

                           Total Energy        Delta E     RMS |[F,P]|

   @DF-RHF iter   1:  -180.37140778112001   -1.80371e+02   8.16097e-02 
   @DF-RHF iter   2:   -97.71173101905924    8.26597e+01   9.37588e-02 DIIS
   @DF-RHF iter   3:  -191.86506930943375   -9.41533e+01   5.11141e-02 DIIS
   @DF-RHF iter   4:  -173.05206165476858    1.88130e+01   7.14599e-02 DIIS
   @DF-RHF iter   5:  -231.54054900406572   -5.84885e+01   1.13087e-02 DIIS
   @DF-RHF iter   6:  -232.05652112493874   -5.15972e-01   4.78780e-03 DIIS
   @DF-RHF iter   7:  -232.13273187850643   -7.62108e-02   1.28118e-03 DIIS
   @DF-RHF iter   8:  -232.14154802948462   -8.81615e-03   4.66501e-04 DIIS
   @DF-RHF iter   9:  -232.14297800305349   -1.42997e-03   1.55871e-04 DIIS
   @DF-RHF iter  10:  -232.14313761755125   -1.59614e-04   4.73765e-05 DIIS
   @DF-RHF iter  11:  -232.14315434952954   -1.67320e-05   1.19024e-05 DIIS
   @DF-RHF iter  12:  -232.14315550287404   -1.15334e-06   3.01755e-06 DIIS
   @DF-RHF iter  13:  -232.14315557471843   -7.18444e-08   7.16154e-07 DIIS

  ==> Post-Iterations <==

    Orbital Energies (a.u.)
    -----------------------

    Doubly Occupied:                                                      

       1A    -20.552399     2A    -11.268606     3A    -11.211186  
       4A    -11.209348     5A    -11.205280     6A     -1.359642  
       7A     -1.063018     8A     -0.973784     9A     -0.857463  
      10A     -0.786956    11A     -0.704326    12A     -0.639405  
      13A     -0.604912    14A     -0.591458    15A     -0.545277  
      16A     -0.525646    17A     -0.520416    18A     -0.477965  
      19A     -0.462724    20A     -0.454069    21A     -0.428690  

    Virtual:                                                              

      22A      0.221966    23A      0.249616    24A      0.275929  
      25A      0.294230    26A      0.309058    27A      0.326015  
      28A      0.335067    29A      0.347507    30A      0.349899  
      31A      0.360718    32A      0.399178    33A      0.424748  
      34A      0.435896    35A      0.459989    36A      0.703100  
      37A      0.721586    38A      0.755959    39A      0.768570  
      40A      0.813032    41A      0.849022    42A      0.876731  
      43A      0.927312    44A      0.965717    45A      1.017106  
      46A      1.049078    47A      1.100077    48A      1.121041  
      49A      1.135821    50A      1.150663    51A      1.173985  
      52A      1.189588    53A      1.198431    54A      1.214729  
      55A      1.223923    56A      1.236895    57A      1.252771  
      58A      1.272101    59A      1.303154    60A      1.332277  
      61A      1.493247    62A      1.512117    63A      1.664944  
      64A      1.703245    65A      1.723121    66A      1.839111  
      67A      1.892088    68A      1.908837    69A      2.033344  
      70A      2.115802    71A      2.170343    72A      2.200583  
      73A      2.241205    74A      2.286014    75A      2.306939  
      76A      2.371910    77A      2.411998    78A      2.465746  
      79A      2.574047    80A      2.600005    81A      2.655819  
      82A      2.674367    83A      2.727775    84A      2.777732  
      85A      2.820910    86A      2.884088    87A      2.967839  
      88A      3.065889    89A      3.079050    90A      3.233914  
      91A      4.178421    92A      4.572808    93A      4.706788  
      94A      4.819521    95A      4.962988  

    Final Occupation by Irrep:
              A 
    DOCC [    21 ]

  Energy converged.

  @DF-RHF Final Energy:  -232.14315557471843

   => Energetics <=

    Nuclear Repulsion Energy =            188.0527538596438717
    One-Electron Energy =                -687.5067024366380792
    Two-Electron Energy =                 267.3107930022765117
    DFT Exchange-Correlation Energy =       0.0000000000000000
    Empirical Dispersion Energy =           0.0000000000000000
    PCM Polarization Energy =               0.0000000000000000
    EFP Energy =                            0.0000000000000000
    Total Energy =                       -232.1431555747176958

    Alert: EFP and PCM quantities not currently incorporated into SCF psivars.

Properties will be evaluated at   0.000000,   0.000000,   0.000000 Bohr
  ==> Properties <==


Properties computed using the SCF density matrix

  Nuclear Dipole Moment: (a.u.)
     X:    -3.5555      Y:    -0.4518      Z:     2.5435

  Electronic Dipole Moment: (a.u.)
     X:     3.8516      Y:     1.0362      Z:    -2.3797

  Dipole Moment: (a.u.)
     X:     0.2961      Y:     0.5844      Z:     0.1638     Total:     0.6753

  Dipole Moment: (Debye)
     X:     0.7527      Y:     1.4855      Z:     0.4162     Total:     1.7165


  Saving occupied orbitals to File 180.

*** tstop() called on cx1-1-3-3.cx1.hpc.ic.ac.uk at Tue Jul  5 16:31:50 2016
Module time:
	user time   =       8.39 seconds =       0.14 minutes
	system time =       0.04 seconds =       0.00 minutes
	total time  =          9 seconds =       0.15 minutes
Total time:
	user time   =       8.39 seconds =       0.14 minutes
	system time =       0.04 seconds =       0.00 minutes
	total time  =          9 seconds =       0.15 minutes


Properties will be evaluated at   0.000000,   0.000000,   0.000000 Bohr

Properties computed using the  density matrix

  Nuclear Dipole Moment: (a.u.)
     X:    -3.5555      Y:    -0.4518      Z:     2.5435

  Electronic Dipole Moment: (a.u.)
     X:     3.8516      Y:     1.0362      Z:    -2.3797

  Dipole Moment: (a.u.)
     X:     0.2961      Y:     0.5844      Z:     0.1638     Total:     0.6753

  Dipole Moment: (Debye)
     X:     0.7527      Y:     1.4855      Z:     0.4162     Total:     1.7165

  Quadrupole Moment: (Debye Ang)
    XX:   -29.0374     YY:   -32.0465     ZZ:   -34.3336
    XY:     2.8056     XZ:    -0.7944     YZ:    -1.0180

  Traceless Quadrupole Moment: (Debye Ang)
    XX:     2.7684     YY:    -0.2407     ZZ:    -2.5277
    XY:     2.8056     XZ:    -0.7944     YZ:    -1.0180

  Mulliken Charges: (a.u.)
   Center  Symbol    Alpha    Beta     Spin     Total
       1     H     0.27998  0.27998  0.00000  0.44004
       2     O     4.37024  4.37024  0.00000 -0.74048
       3     C     2.99896  2.99896  0.00000  0.00207
       4     C     3.15559  3.15559  0.00000 -0.31119
       5     H     0.42988  0.42988  0.00000  0.14024
       6     H     0.42959  0.42959  0.00000  0.14082
       7     C     3.15504  3.15504  0.00000 -0.31008
       8     H     0.42599  0.42599  0.00000  0.14803
       9     H     0.41776  0.41776  0.00000  0.16447
      10     C     3.23975  3.23975  0.00000 -0.47950
      11     H     0.40793  0.40793  0.00000  0.18415
      12     H     0.42602  0.42602  0.00000  0.14797
      13     H     0.41935  0.41935  0.00000  0.16130
      14     H     0.42004  0.42004  0.00000  0.15992
      15     H     0.42387  0.42387  0.00000  0.15225

   Total alpha = 21.00000, Total beta = 21.00000, Total charge =  0.00000


*** PSI4 exiting successfully. Buy a developer a beer!
