    -----------------------------------------------------------------------
          Psi4: An Open-Source Ab Initio Electronic Structure Package
                              Psi4 (no tag) Driver

                          Git: Rev {detached?}  

    J. M. Turney, A. C. Simmonett, R. M. Parrish, E. G. Hohenstein,
    F. A. Evangelista, J. T. Fermann, B. J. Mintz, L. A. Burns, J. J. Wilke,
    M. L. Abrams, N. J. Russ, M. L. Leininger, C. L. Janssen, E. T. Seidl,
    W. D. Allen, H. F. Schaefer, R. A. King, E. F. Valeev, C. D. Sherrill,
    and T. D. Crawford, WIREs Comput. Mol. Sci. 2, 556-565 (2012)
    (doi: 10.1002/wcms.93)

                         Additional Contributions by
    A. E. DePrince, M. Saitow, U. Bozkaya, A. Yu. Sokolov
    -----------------------------------------------------------------------


    Psi4 started on: Tue Jul  5 16:21:13 2016

    Process ID:  25312
    PSI4DATADIR: /export131/home/mjharvey/miniconda3/share
    Memory level set to 256.000 MB

  ==> Input File <==

--------------------------------------------------------------------------
set {
	reference rhf
	basis 6-31G*
}


set_num_threads( 1 )
memory 2 gb

molecule MOL {
0 1

H	 -0.588386	 2.204666	 0.047358
C	 -0.273889	 1.380778	 0.679531
N	 -0.528168	 0.128977	 -0.000000
H	 -0.856202	 1.424540	 1.592785
H	 0.777192	 1.539986	 0.934770
C	 0.248044	 -0.037491	 -1.209632
H	 -0.353326	 -0.635039	 0.621882
H	 0.998722	 0.743888	 -1.266824
H	 -0.398417	 0.061950	 -2.074060
H	 0.763621	 -0.999315	 -1.275517

	symmetry c1
}
ee = energy('scf')
oeprop('DIPOLE', 'QUADRUPOLE', 'MULLIKEN_CHARGES')
f=open( 'psi4out.xyz', 'w' )
f.write( "10  " )
f.write( str(ee) + "\n" )
f.write( MOL.save_string_xyz() )
f.close()
--------------------------------------------------------------------------

  Memory set to   2.000 GiB by Python script.

*** tstart() called on cx1-3-1-3.cx1.hpc.ic.ac.uk
*** at Tue Jul  5 16:21:13 2016


         ---------------------------------------------------------
                                   SCF
            by Justin Turney, Rob Parrish, and Andy Simmonett
                              RHF Reference
                        1 Threads,   2000 MiB Core
         ---------------------------------------------------------

  ==> Geometry <==

    Molecular point group: c1
    Full point group: C1

    Geometry (in Angstrom), charge = 0, multiplicity = 1:

       Center              X                  Y                   Z               Mass       
    ------------   -----------------  -----------------  -----------------  -----------------
           H         -0.425035415484     1.709743122271     0.220289611157     1.007825032070
           C         -0.110538415484     0.885855122271     0.852462611157    12.000000000000
           N         -0.364817415484    -0.365945877729     0.172931611157    14.003074004780
           H         -0.692851415484     0.929617122271     1.765716611157     1.007825032070
           H          0.940542584516     1.045063122271     1.107701611157     1.007825032070
           C          0.411394584516    -0.532413877729    -1.036700388843    12.000000000000
           H         -0.189975415484    -1.129961877729     0.794813611157     1.007825032070
           H          1.162072584516     0.248965122271    -1.093892388843     1.007825032070
           H         -0.235066415484    -0.432972877729    -1.901128388843     1.007825032070
           H          0.926971584516    -1.494237877729    -1.102585388843     1.007825032070

  Running in c1 symmetry.

  Rotational constants: A =      1.18624  B =      0.31276  C =      0.27693 [cm^-1]
  Rotational constants: A =  35562.55523  B =   9376.30006  C =   8302.21365 [MHz]
  Nuclear repulsion =   84.711343526625072

  Charge       = 0
  Multiplicity = 1
  Electrons    = 26
  Nalpha       = 13
  Nbeta        = 13

  ==> Algorithm <==

  SCF Algorithm Type is DF.
  DIIS enabled.
  MOM disabled.
  Fractional occupation disabled.
  Guess Type is CORE.
  Energy threshold   = 1.00e-06
  Density threshold  = 1.00e-06
  Integral threshold = 0.00e+00

  ==> Primary Basis <==

  Basis Set: 6-31G*
    Number of shells: 32
    Number of basis function: 59
    Number of Cartesian functions: 59
    Spherical Harmonics?: false
    Max angular momentum: 2

  ==> Pre-Iterations <==

   -------------------------------------------------------
    Irrep   Nso     Nmo     Nalpha   Nbeta   Ndocc  Nsocc
   -------------------------------------------------------
     A         59      59       0       0       0       0
   -------------------------------------------------------
    Total      59      59      13      13      13       0
   -------------------------------------------------------

 OEINTS: Overlap, kinetic, potential, dipole, and quadrupole integrals
         stored in file 35.

  ==> Integral Setup <==

  ==> DFJK: Density-Fitted J/K Matrices <==

    J tasked:                  Yes
    K tasked:                  Yes
    wK tasked:                  No
    OpenMP threads:              1
    Integrals threads:           1
    Memory (MB):              1430
    Algorithm:                Core
    Integral Cache:           NONE
    Schwarz Cutoff:          1E-12
    Fitting Condition:       1E-12

   => Auxiliary Basis Set <=

  Basis Set: 
    Number of shells: 135
    Number of basis function: 418
    Number of Cartesian functions: 418
    Spherical Harmonics?: false
    Max angular momentum: 3

  Minimum eigenvalue in the overlap matrix is 6.9708769697E-03.
  Using Symmetric Orthogonalization.
  SCF Guess: Core (One-Electron) Hamiltonian.

  ==> Iterations <==

                           Total Energy        Delta E     RMS |[F,P]|

   @DF-RHF iter   1:  -109.54237392099147   -1.09542e+02   9.12398e-02 
   @DF-RHF iter   2:  -114.79439148377053   -5.25202e+00   5.95440e-02 DIIS
   @DF-RHF iter   3:  -131.75496599421467   -1.69606e+01   3.92691e-02 DIIS
   @DF-RHF iter   4:  -133.69021931642220   -1.93525e+00   1.76106e-02 DIIS
   @DF-RHF iter   5:  -134.16477683272592   -4.74558e-01   6.44128e-03 DIIS
   @DF-RHF iter   6:  -134.23202146597873   -6.72446e-02   7.63015e-04 DIIS
   @DF-RHF iter   7:  -134.23315061500813   -1.12915e-03   1.46982e-04 DIIS
   @DF-RHF iter   8:  -134.23322061044212   -6.99954e-05   3.79217e-05 DIIS
   @DF-RHF iter   9:  -134.23322523308275   -4.62264e-06   7.56696e-06 DIIS
   @DF-RHF iter  10:  -134.23322550194132   -2.68859e-07   1.60367e-06 DIIS
   @DF-RHF iter  11:  -134.23322551042912   -8.48780e-09   5.03458e-07 DIIS

  ==> Post-Iterations <==

    Orbital Energies (a.u.)
    -----------------------

    Doubly Occupied:                                                      

       1A    -15.535264     2A    -11.236494     3A    -11.234807  
       4A     -1.198750     5A     -0.946639     6A     -0.854962  
       7A     -0.661280     8A     -0.613766     9A     -0.586502  
      10A     -0.545353    11A     -0.508328    12A     -0.505280  
      13A     -0.358421  

    Virtual:                                                              

      14A      0.230404    15A      0.278868    16A      0.298995  
      17A      0.315841    18A      0.322922    19A      0.329323  
      20A      0.349793    21A      0.408925    22A      0.456711  
      23A      0.739480    24A      0.759616    25A      0.776025  
      26A      0.819345    27A      0.854519    28A      0.917089  
      29A      1.013512    30A      1.099281    31A      1.110456  
      32A      1.137878    33A      1.156277    34A      1.207538  
      35A      1.214261    36A      1.228876    37A      1.249591  
      38A      1.256782    39A      1.270841    40A      1.551499  
      41A      1.677667    42A      1.723983    43A      1.770517  
      44A      2.132140    45A      2.224416    46A      2.343643  
      47A      2.387849    48A      2.414169    49A      2.474617  
      50A      2.524086    51A      2.614584    52A      2.743662  
      53A      2.783320    54A      2.822201    55A      3.036826  
      56A      3.129118    57A      4.331880    58A      4.651809  
      59A      4.733569  

    Final Occupation by Irrep:
              A 
    DOCC [    13 ]

  Energy converged.

  @DF-RHF Final Energy:  -134.23322551042912

   => Energetics <=

    Nuclear Repulsion Energy =             84.7113435266250718
    One-Electron Energy =                -348.3174762647598186
    Two-Electron Energy =                 129.3729072277057242
    DFT Exchange-Correlation Energy =       0.0000000000000000
    Empirical Dispersion Energy =           0.0000000000000000
    PCM Polarization Energy =               0.0000000000000000
    EFP Energy =                            0.0000000000000000
    Total Energy =                       -134.2332255104290368

    Alert: EFP and PCM quantities not currently incorporated into SCF psivars.

Properties will be evaluated at   0.000000,   0.000000,   0.000000 Bohr
  ==> Properties <==


Properties computed using the SCF density matrix

  Nuclear Dipole Moment: (a.u.)
     X:     1.3948      Y:     0.8225      Z:    -0.1965

  Electronic Dipole Moment: (a.u.)
     X:    -0.9262      Y:    -0.8781      Z:     0.3676

  Dipole Moment: (a.u.)
     X:     0.4686      Y:    -0.0557      Z:     0.1711     Total:     0.5019

  Dipole Moment: (Debye)
     X:     1.1909      Y:    -0.1415      Z:     0.4349     Total:     1.2757


  Saving occupied orbitals to File 180.

*** tstop() called on cx1-3-1-3.cx1.hpc.ic.ac.uk at Tue Jul  5 16:21:15 2016
Module time:
	user time   =       1.62 seconds =       0.03 minutes
	system time =       0.02 seconds =       0.00 minutes
	total time  =          2 seconds =       0.03 minutes
Total time:
	user time   =       1.62 seconds =       0.03 minutes
	system time =       0.02 seconds =       0.00 minutes
	total time  =          2 seconds =       0.03 minutes


Properties will be evaluated at   0.000000,   0.000000,   0.000000 Bohr

Properties computed using the  density matrix

  Nuclear Dipole Moment: (a.u.)
     X:     1.3948      Y:     0.8225      Z:    -0.1965

  Electronic Dipole Moment: (a.u.)
     X:    -0.9262      Y:    -0.8781      Z:     0.3676

  Dipole Moment: (a.u.)
     X:     0.4686      Y:    -0.0557      Z:     0.1711     Total:     0.5019

  Dipole Moment: (Debye)
     X:     1.1909      Y:    -0.1415      Z:     0.4349     Total:     1.2757

  Quadrupole Moment: (Debye Ang)
    XX:   -22.6933     YY:   -19.3659     ZZ:   -19.5601
    XY:    -0.9473     XZ:    -0.3683     YZ:    -0.4282

  Traceless Quadrupole Moment: (Debye Ang)
    XX:    -2.1535     YY:     1.1739     ZZ:     0.9797
    XY:    -0.9473     XZ:    -0.3683     YZ:    -0.4282

  Mulliken Charges: (a.u.)
   Center  Symbol    Alpha    Beta     Spin     Total
       1     H     0.41724  0.41724  0.00000  0.16552
       2     C     3.14633  3.14633  0.00000 -0.29267
       3     N     3.84087  3.84087  0.00000 -0.68175
       4     H     0.41729  0.41729  0.00000  0.16542
       5     H     0.43426  0.43426  0.00000  0.13148
       6     C     3.14606  3.14606  0.00000 -0.29212
       7     H     0.33150  0.33150  0.00000  0.33699
       8     H     0.42698  0.42698  0.00000  0.14605
       9     H     0.41632  0.41632  0.00000  0.16737
      10     H     0.42314  0.42314  0.00000  0.15371

   Total alpha = 13.00000, Total beta = 13.00000, Total charge = -0.00000


*** PSI4 exiting successfully. Buy a developer a beer!
