    -----------------------------------------------------------------------
          Psi4: An Open-Source Ab Initio Electronic Structure Package
                              Psi4 (no tag) Driver

                          Git: Rev {detached?}  

    J. M. Turney, A. C. Simmonett, R. M. Parrish, E. G. Hohenstein,
    F. A. Evangelista, J. T. Fermann, B. J. Mintz, L. A. Burns, J. J. Wilke,
    M. L. Abrams, N. J. Russ, M. L. Leininger, C. L. Janssen, E. T. Seidl,
    W. D. Allen, H. F. Schaefer, R. A. King, E. F. Valeev, C. D. Sherrill,
    and T. D. Crawford, WIREs Comput. Mol. Sci. 2, 556-565 (2012)
    (doi: 10.1002/wcms.93)

                         Additional Contributions by
    A. E. DePrince, M. Saitow, U. Bozkaya, A. Yu. Sokolov
    -----------------------------------------------------------------------


    Psi4 started on: Tue Jul  5 16:21:41 2016

    Process ID:  25537
    PSI4DATADIR: /export131/home/mjharvey/miniconda3/share
    Memory level set to 256.000 MB

  ==> Input File <==

--------------------------------------------------------------------------
set {
	reference rhf
	basis 6-31G*
}


set_num_threads( 1 )
memory 2 gb

molecule MOL {
0 1

H	 -0.367348	 2.047014	 -0.308205
C	 0.352277	 1.337084	 0.083769
N	 -0.000016	 0.000074	 -0.335546
H	 1.328359	 1.600444	 -0.307950
H	 0.381933	 1.450534	 1.172486
C	 -1.426894	 -0.223047	 -0.285502
C	 0.551810	 -0.322561	 -1.631521
H	 -1.646842	 -1.254381	 -0.537146
H	 -1.792955	 -0.039067	 0.718298
H	 -1.985280	 0.420360	 -0.973336
H	 1.630034	 -0.211401	 -1.610309
H	 0.327544	 -1.353656	 -1.880493
H	 0.161381	 0.312635	 -2.433405

	symmetry c1
}
ee = energy('scf')
oeprop('DIPOLE', 'QUADRUPOLE', 'MULLIKEN_CHARGES')
f=open( 'psi4out.xyz', 'w' )
f.write( "13  " )
f.write( str(ee) + "\n" )
f.write( MOL.save_string_xyz() )
f.close()
--------------------------------------------------------------------------

  Memory set to   2.000 GiB by Python script.

*** tstart() called on cx1-3-1-3.cx1.hpc.ic.ac.uk
*** at Tue Jul  5 16:21:41 2016


         ---------------------------------------------------------
                                   SCF
            by Justin Turney, Rob Parrish, and Andy Simmonett
                              RHF Reference
                        1 Threads,   2000 MiB Core
         ---------------------------------------------------------

  ==> Geometry <==

    Molecular point group: c1
    Full point group: C1

    Geometry (in Angstrom), charge = 0, multiplicity = 1:

       Center              X                  Y                   Z               Mass       
    ------------   -----------------  -----------------  -----------------  -----------------
           H         -0.227650097431     1.835506468807     0.248829652266     1.007825032070
           C          0.491974902569     1.125576468807     0.640803652266    12.000000000000
           N          0.139681902569    -0.211433531193     0.221488652266    14.003074004780
           H          1.468056902569     1.388936468807     0.249084652266     1.007825032070
           H          0.521630902569     1.239026468807     1.729520652266     1.007825032070
           C         -1.287196097431    -0.434554531193     0.271532652266    12.000000000000
           C          0.691507902569    -0.534068531193    -1.074486347734    12.000000000000
           H         -1.507144097431    -1.465888531193     0.019888652266     1.007825032070
           H         -1.653257097431    -0.250574531193     1.275332652266     1.007825032070
           H         -1.845582097431     0.208852468807    -0.416301347734     1.007825032070
           H          1.769731902569    -0.422908531193    -1.053274347734     1.007825032070
           H          0.467241902569    -1.565163531193    -1.323458347734     1.007825032070
           H          0.301078902569     0.101127468807    -1.876370347734     1.007825032070

  Running in c1 symmetry.

  Rotational constants: A =      0.29366  B =      0.29355  C =      0.16559 [cm^-1]
  Rotational constants: A =   8803.76993  B =   8800.41937  C =   4964.25741 [MHz]
  Nuclear repulsion =  139.337002369145097

  Charge       = 0
  Multiplicity = 1
  Electrons    = 34
  Nalpha       = 17
  Nbeta        = 17

  ==> Algorithm <==

  SCF Algorithm Type is DF.
  DIIS enabled.
  MOM disabled.
  Fractional occupation disabled.
  Guess Type is CORE.
  Energy threshold   = 1.00e-06
  Density threshold  = 1.00e-06
  Integral threshold = 0.00e+00

  ==> Primary Basis <==

  Basis Set: 6-31G*
    Number of shells: 42
    Number of basis function: 78
    Number of Cartesian functions: 78
    Spherical Harmonics?: false
    Max angular momentum: 2

  ==> Pre-Iterations <==

   -------------------------------------------------------
    Irrep   Nso     Nmo     Nalpha   Nbeta   Ndocc  Nsocc
   -------------------------------------------------------
     A         78      78       0       0       0       0
   -------------------------------------------------------
    Total      78      78      17      17      17       0
   -------------------------------------------------------

 OEINTS: Overlap, kinetic, potential, dipole, and quadrupole integrals
         stored in file 35.

  ==> Integral Setup <==

  ==> DFJK: Density-Fitted J/K Matrices <==

    J tasked:                  Yes
    K tasked:                  Yes
    wK tasked:                  No
    OpenMP threads:              1
    Integrals threads:           1
    Memory (MB):              1430
    Algorithm:                Core
    Integral Cache:           NONE
    Schwarz Cutoff:          1E-12
    Fitting Condition:       1E-12

   => Auxiliary Basis Set <=

  Basis Set: 
    Number of shells: 177
    Number of basis function: 549
    Number of Cartesian functions: 549
    Spherical Harmonics?: false
    Max angular momentum: 3

  Minimum eigenvalue in the overlap matrix is 6.3010067475E-03.
  Using Symmetric Orthogonalization.
  SCF Guess: Core (One-Electron) Hamiltonian.

  ==> Iterations <==

                           Total Energy        Delta E     RMS |[F,P]|

   @DF-RHF iter   1:  -136.62902820647471   -1.36629e+02   8.44028e-02 
   @DF-RHF iter   2:  -146.66576502354278   -1.00367e+01   5.28643e-02 DIIS
   @DF-RHF iter   3:  -169.41349535358873   -2.27477e+01   3.71089e-02 DIIS
   @DF-RHF iter   4:  -172.18133582396567   -2.76784e+00   1.91955e-02 DIIS
   @DF-RHF iter   5:  -173.22639413455246   -1.04506e+00   3.42240e-03 DIIS
   @DF-RHF iter   6:  -173.26375644384476   -3.73623e-02   9.09913e-04 DIIS
   @DF-RHF iter   7:  -173.26593284771499   -2.17640e-03   1.02392e-04 DIIS
   @DF-RHF iter   8:  -173.26599704299750   -6.41953e-05   3.82595e-05 DIIS
   @DF-RHF iter   9:  -173.26600356527800   -6.52228e-06   8.29194e-06 DIIS
   @DF-RHF iter  10:  -173.26600402551642   -4.60238e-07   2.37671e-06 DIIS
   @DF-RHF iter  11:  -173.26600405328796   -2.77715e-08   7.36340e-07 DIIS

  ==> Post-Iterations <==

    Orbital Energies (a.u.)
    -----------------------

    Doubly Occupied:                                                      

       1A    -15.542118     2A    -11.236003     3A    -11.235807  
       4A    -11.235569     5A     -1.225197     6A     -0.951987  
       7A     -0.950843     8A     -0.806828     9A     -0.641806  
      10A     -0.631602    11A     -0.627830    12A     -0.548054  
      13A     -0.542732    14A     -0.515895    15A     -0.503103  
      16A     -0.500031    17A     -0.344426  

    Virtual:                                                              

      18A      0.225762    19A      0.293412    20A      0.300691  
      21A      0.307438    22A      0.308909    23A      0.319603  
      24A      0.338816    25A      0.345448    26A      0.355987  
      27A      0.384002    28A      0.437310    29A      0.451853  
      30A      0.724757    31A      0.745760    32A      0.757492  
      33A      0.776161    34A      0.796059    35A      0.849506  
      36A      0.942567    37A      0.945288    38A      1.031094  
      39A      1.074736    40A      1.109579    41A      1.126251  
      42A      1.131822    43A      1.160481    44A      1.167677  
      45A      1.184412    46A      1.208756    47A      1.254467  
      48A      1.258666    49A      1.264618    50A      1.273894  
      51A      1.300859    52A      1.597911    53A      1.648778  
      54A      1.675455    55A      1.732979    56A      1.752228  
      57A      2.070666    58A      2.215312    59A      2.227240  
      60A      2.269021    61A      2.352858    62A      2.382384  
      63A      2.424941    64A      2.452973    65A      2.495745  
      66A      2.569096    67A      2.590065    68A      2.611478  
      69A      2.620818    70A      2.871215    71A      2.969251  
      72A      2.981121    73A      3.150999    74A      3.159640  
      75A      4.465446    76A      4.680057    77A      4.689673  
      78A      4.787685  

    Final Occupation by Irrep:
              A 
    DOCC [    17 ]

  Energy converged.

  @DF-RHF Final Energy:  -173.26600405328796

   => Energetics <=

    Nuclear Repulsion Energy =            139.3370023691450967
    One-Electron Energy =                -509.1265240488223753
    Two-Electron Energy =                 196.5235176263894630
    DFT Exchange-Correlation Energy =       0.0000000000000000
    Empirical Dispersion Energy =           0.0000000000000000
    PCM Polarization Energy =               0.0000000000000000
    EFP Energy =                            0.0000000000000000
    Total Energy =                       -173.2660040532877872

    Alert: EFP and PCM quantities not currently incorporated into SCF psivars.

Properties will be evaluated at   0.000000,   0.000000,   0.000000 Bohr
  ==> Properties <==


Properties computed using the SCF density matrix

  Nuclear Dipole Moment: (a.u.)
     X:    -0.6622      Y:     1.0027      Z:    -1.0757

  Electronic Dipole Moment: (a.u.)
     X:     0.5524      Y:    -0.8017      Z:     0.8600

  Dipole Moment: (a.u.)
     X:    -0.1098      Y:     0.2010      Z:    -0.2157     Total:     0.3146

  Dipole Moment: (Debye)
     X:    -0.2790      Y:     0.5108      Z:    -0.5483     Total:     0.7996


  Saving occupied orbitals to File 180.

*** tstop() called on cx1-3-1-3.cx1.hpc.ic.ac.uk at Tue Jul  5 16:21:44 2016
Module time:
	user time   =       2.94 seconds =       0.05 minutes
	system time =       0.03 seconds =       0.00 minutes
	total time  =          3 seconds =       0.05 minutes
Total time:
	user time   =       2.94 seconds =       0.05 minutes
	system time =       0.03 seconds =       0.00 minutes
	total time  =          3 seconds =       0.05 minutes


Properties will be evaluated at   0.000000,   0.000000,   0.000000 Bohr

Properties computed using the  density matrix

  Nuclear Dipole Moment: (a.u.)
     X:    -0.6622      Y:     1.0027      Z:    -1.0757

  Electronic Dipole Moment: (a.u.)
     X:     0.5524      Y:    -0.8017      Z:     0.8600

  Dipole Moment: (a.u.)
     X:    -0.1098      Y:     0.2010      Z:    -0.2157     Total:     0.3146

  Dipole Moment: (Debye)
     X:    -0.2790      Y:     0.5108      Z:    -0.5483     Total:     0.7996

  Quadrupole Moment: (Debye Ang)
    XX:   -26.7566     YY:   -27.5093     ZZ:   -27.7120
    XY:     1.0145     XZ:    -0.9401     YZ:     1.3287

  Traceless Quadrupole Moment: (Debye Ang)
    XX:     0.5694     YY:    -0.1833     ZZ:    -0.3860
    XY:     1.0145     XZ:    -0.9401     YZ:     1.3287

  Mulliken Charges: (a.u.)
   Center  Symbol    Alpha    Beta     Spin     Total
       1     H     0.43215  0.43215  0.00000  0.13570
       2     C     3.14276  3.14276  0.00000 -0.28551
       3     N     3.76559  3.76559  0.00000 -0.53119
       4     H     0.41891  0.41891  0.00000  0.16218
       5     H     0.41648  0.41648  0.00000  0.16704
       6     C     3.14380  3.14380  0.00000 -0.28761
       7     C     3.14339  3.14339  0.00000 -0.28678
       8     H     0.41674  0.41674  0.00000  0.16652
       9     H     0.41602  0.41602  0.00000  0.16795
      10     H     0.43507  0.43507  0.00000  0.12987
      11     H     0.41630  0.41630  0.00000  0.16740
      12     H     0.41701  0.41701  0.00000  0.16598
      13     H     0.43577  0.43577  0.00000  0.12845

   Total alpha = 17.00000, Total beta = 17.00000, Total charge =  0.00000


*** PSI4 exiting successfully. Buy a developer a beer!
