
    -----------------------------------------------------------------------
          Psi4: An Open-Source Ab Initio Electronic Structure Package
                               Psi4 1.1 release

                         Git: Rev {HEAD} add49b9 


    R. M. Parrish, L. A. Burns, D. G. A. Smith, A. C. Simmonett,
    A. E. DePrince III, E. G. Hohenstein, U. Bozkaya, A. Yu. Sokolov,
    R. Di Remigio, R. M. Richard, J. F. Gonthier, A. M. James,
    H. R. McAlexander, A. Kumar, M. Saitow, X. Wang, B. P. Pritchard,
    P. Verma, H. F. Schaefer III, K. Patkowski, R. A. King, E. F. Valeev,
    F. A. Evangelista, J. M. Turney, T. D. Crawford, and C. D. Sherrill,
    J. Chem. Theory Comput. in press (2017).
    (doi: 10.1021/acs.jctc.7b00174)

    -----------------------------------------------------------------------


    Psi4 started on: Tuesday, 12 December 2017 11:17AM

    Process ID:  26532
    PSIDATADIR: /shared/raimis/opt/miniconda/envs/htmd/share/psi4
    Memory:     500.0 MiB
    Threads:    1
    
  ==> Input File <==

--------------------------------------------------------------------------
set_num_threads(1)
set_memory(4203741184)

set { reference rks }
set { basis cc-pVDZ }

molecule MOL {
    0 1
    noreorient
    nocom
    symmetry c1
    O    1.050400   0.042900  -0.048100
    C    2.474100   0.047400  -0.029000
    C    3.002600  -1.068900  -0.932000
    N    4.463734  -1.114924  -0.953625
    H    0.760400   0.728400   0.578000
    H    2.809900  -0.097900   1.003200
    H    2.817400   1.026800  -0.378600
    H    2.621740  -0.933792  -1.951034
    H    2.611809  -2.031736  -0.583742
    H    4.821779  -0.265722  -1.389677
    H    4.758852  -1.883355  -1.555846
}

set optking { frozen_dihedral = (" 1 2 3 4 ") }

energy, wfn = energy('B3LYP-D3', return_wfn=True)

import os
os.chdir(os.environ['HTMD_PSI4_WORKDIR'])

oeprop(wfn, 'DIPOLE', 'QUADRUPOLE', 'MULLIKEN_CHARGES')

with open('psi4out.xyz', 'w') as f:
    f.write('11 ' )
    f.write('%.12f\n' % energy)
    f.write(MOL.save_string_xyz())
--------------------------------------------------------------------------
  Threads set to 1 by Python driver.

  Memory set to   3.915 GiB by Python driver.

*** tstart() called on computer06
*** at Tue Dec 12 11:17:03 2017

   => Loading Basis Set <=

    Name: CC-PVDZ
    Role: ORBITAL
    Keyword: BASIS
    atoms 1    entry O          line   190 file /shared/raimis/opt/miniconda/envs/htmd/share/psi4/basis/cc-pvdz.gbs 
    atoms 2-3  entry C          line   130 file /shared/raimis/opt/miniconda/envs/htmd/share/psi4/basis/cc-pvdz.gbs 
    atoms 4    entry N          line   160 file /shared/raimis/opt/miniconda/envs/htmd/share/psi4/basis/cc-pvdz.gbs 
    atoms 5-11 entry H          line    20 file /shared/raimis/opt/miniconda/envs/htmd/share/psi4/basis/cc-pvdz.gbs 


         ---------------------------------------------------------
                                   SCF
            by Justin Turney, Rob Parrish, and Andy Simmonett
                              RKS Reference
                        1 Threads,   4009 MiB Core
         ---------------------------------------------------------

  ==> Geometry <==

    Molecular point group: c1
    Full point group: C1

    Geometry (in Angstrom), charge = 0, multiplicity = 1:

       Center              X                  Y                   Z               Mass       
    ------------   -----------------  -----------------  -----------------  -----------------
           O          1.050400000000     0.042900000000    -0.048100000000    15.994914619560
           C          2.474100000000     0.047400000000    -0.029000000000    12.000000000000
           C          3.002600000000    -1.068900000000    -0.932000000000    12.000000000000
           N          4.463734000000    -1.114924000000    -0.953625000000    14.003074004780
           H          0.760400000000     0.728400000000     0.578000000000     1.007825032070
           H          2.809900000000    -0.097900000000     1.003200000000     1.007825032070
           H          2.817400000000     1.026800000000    -0.378600000000     1.007825032070
           H          2.621740000000    -0.933792000000    -1.951034000000     1.007825032070
           H          2.611809000000    -2.031736000000    -0.583742000000     1.007825032070
           H          4.821779000000    -0.265722000000    -1.389677000000     1.007825032070
           H          4.758852000000    -1.883355000000    -1.555846000000     1.007825032070

  Running in c1 symmetry.

  Rotational constants: A =      0.72294  B =      0.02763  C =      0.02694 [cm^-1]
  Rotational constants: A =  21673.26741  B =    828.26810  C =    807.60477 [MHz]
  Nuclear repulsion =  130.406119904018965

  Charge       = 0
  Multiplicity = 1
  Electrons    = 34
  Nalpha       = 17
  Nbeta        = 17

  ==> Algorithm <==

  SCF Algorithm Type is DF.
  DIIS enabled.
  MOM disabled.
  Fractional occupation disabled.
  Guess Type is SAD.
  Energy threshold   = 1.00e-06
  Density threshold  = 1.00e-06
  Integral threshold = 0.00e+00

  ==> Primary Basis <==

  Basis Set: CC-PVDZ
    Blend: CC-PVDZ
    Number of shells: 45
    Number of basis function: 91
    Number of Cartesian functions: 95
    Spherical Harmonics?: true
    Max angular momentum: 2

  ==> DFT Potential <==

   => B3LYP Composite Functional <= 

    B3LYP Hybrid-GGA Exchange-Correlation Functional (VWN1-RPA)

    P.J. Stephens et. al., J. Phys. Chem., 98, 11623-11627, 1994

    Points   =           5000
    Deriv    =              1
    GGA      =           TRUE
    Meta     =          FALSE

    X_LRC        =          FALSE
    X_Hybrid     =           TRUE
    X_Alpha      =   2.000000E-01
    X_Omega      =   0.000000E+00
    C_LRC        =          FALSE
    C_Hybrid     =          FALSE
    C_Alpha      =   0.000000E+00
    C_Omega      =   0.000000E+00

   => Exchange Functionals <=

    0.8000    B3_X
    0.2000      HF 

   => Correlation Functionals <=

    0.1900 VWN3RPA_C
    0.8100   LYP_C

   => Molecular Quadrature <=

    Radial Scheme    =       TREUTLER
    Pruning Scheme   =           FLAT
    Nuclear Scheme   =       TREUTLER

    BS radius alpha  =              1
    Pruning alpha    =              1
    Radial Points    =             75
    Spherical Points =            302
    Total Points     =         245081
    Total Blocks     =            221
    Max Points       =           4987
    Max Functions    =             91

   => -D3ZERO: Empirical Dispersion <=

    Grimme's -D3 (zero-damping) Dispersion Correction
    Grimme S.; Antony J.; Ehrlich S.; Krieg H. (2010), J. Chem. Phys., 132: 154104

        S6 =   1.000000E+00
        S8 =   1.703000E+00
       SR6 =   1.261000E+00
    ALPHA6 =   1.400000E+01

   => Loading Basis Set <=

    Name: (CC-PVDZ AUX)
    Role: JKFIT
    Keyword: DF_BASIS_SCF
    atoms 1    entry O          line   220 file /shared/raimis/opt/miniconda/envs/htmd/share/psi4/basis/cc-pvdz-jkfit.gbs 
    atoms 2-3  entry C          line   120 file /shared/raimis/opt/miniconda/envs/htmd/share/psi4/basis/cc-pvdz-jkfit.gbs 
    atoms 4    entry N          line   170 file /shared/raimis/opt/miniconda/envs/htmd/share/psi4/basis/cc-pvdz-jkfit.gbs 
    atoms 5-11 entry H          line    50 file /shared/raimis/opt/miniconda/envs/htmd/share/psi4/basis/cc-pvdz-jkfit.gbs 

  ==> Pre-Iterations <==

   -------------------------------------------------------
    Irrep   Nso     Nmo     Nalpha   Nbeta   Ndocc  Nsocc
   -------------------------------------------------------
     A         91      91       0       0       0       0
   -------------------------------------------------------
    Total      91      91      17      17      17       0
   -------------------------------------------------------

  ==> Integral Setup <==

  ==> DFJK: Density-Fitted J/K Matrices <==

    J tasked:                  Yes
    K tasked:                  Yes
    wK tasked:                  No
    OpenMP threads:              1
    Integrals threads:           1
    Memory (MB):              3006
    Algorithm:                Core
    Integral Cache:           NONE
    Schwarz Cutoff:          1E-12
    Fitting Condition:       1E-12

   => Auxiliary Basis Set <=

  Basis Set: (CC-PVDZ AUX)
    Blend: CC-PVDZ-JKFIT
    Number of shells: 159
    Number of basis function: 441
    Number of Cartesian functions: 499
    Spherical Harmonics?: true
    Max angular momentum: 3

  Minimum eigenvalue in the overlap matrix is 4.4994011942E-03.
  Using Symmetric Orthogonalization.

  SCF Guess: Superposition of Atomic Densities via on-the-fly atomic UHF.

  ==> Iterations <==

                           Total Energy        Delta E     RMS |[F,P]|

   @DF-RKS iter   0:  -210.81030983375581   -2.10810e+02   3.61979e-02 
   @DF-RKS iter   1:  -210.19585346176819    6.14456e-01   7.40863e-03 
   @DF-RKS iter   2:  -210.03371134700924    1.62142e-01   1.01646e-02 DIIS
   @DF-RKS iter   3:  -210.39017666295109   -3.56465e-01   5.76760e-04 DIIS
   @DF-RKS iter   4:  -210.39079901965133   -6.22357e-04   3.89268e-04 DIIS
   @DF-RKS iter   5:  -210.39133655743106   -5.37538e-04   4.67918e-05 DIIS
   @DF-RKS iter   6:  -210.39134232686877   -5.76944e-06   2.32067e-05 DIIS
   @DF-RKS iter   7:  -210.39134429543927   -1.96857e-06   1.97777e-06 DIIS
   @DF-RKS iter   8:  -210.39134430902283   -1.35836e-08   6.85236e-07 DIIS

  ==> Post-Iterations <==

    Orbital Energies (a.u.)
    -----------------------

    Doubly Occupied:                                                      

       1A    -19.126947     2A    -14.304946     3A    -10.223717  
       4A    -10.201769     5A     -1.009323     6A     -0.876790  
       7A     -0.712100     8A     -0.597008     9A     -0.505912  
      10A     -0.485249    11A     -0.455605    12A     -0.415239  
      13A     -0.388360    14A     -0.363471    15A     -0.323216  
      16A     -0.260602    17A     -0.231104  

    Virtual:                                                              

      18A      0.050927    19A      0.058521    20A      0.101607  
      21A      0.119164    22A      0.124726    23A      0.153765  
      24A      0.169617    25A      0.204204    26A      0.242993  
      27A      0.256046    28A      0.440078    29A      0.452550  
      30A      0.483290    31A      0.498094    32A      0.563779  
      33A      0.580683    34A      0.610321    35A      0.615694  
      36A      0.639683    37A      0.652772    38A      0.658064  
      39A      0.680120    40A      0.701911    41A      0.818578  
      42A      0.833126    43A      0.846699    44A      0.912476  
      45A      0.965438    46A      0.993867    47A      1.017554  
      48A      1.063654    49A      1.182055    50A      1.213839  
      51A      1.231546    52A      1.246893    53A      1.337089  
      54A      1.353804    55A      1.420418    56A      1.483132  
      57A      1.516649    58A      1.600951    59A      1.612339  
      60A      1.634944    61A      1.657189    62A      1.664222  
      63A      1.712892    64A      1.739044    65A      1.759295  
      66A      1.769496    67A      1.808869    68A      1.859046  
      69A      1.917383    70A      1.948633    71A      1.985101  
      72A      2.016384    73A      2.052326    74A      2.144856  
      75A      2.156609    76A      2.246602    77A      2.301168  
      78A      2.370411    79A      2.393544    80A      2.444753  
      81A      2.471677    82A      2.534242    83A      2.610338  
      84A      2.681159    85A      2.822067    86A      2.959302  
      87A      3.021650    88A      3.034538    89A      3.124499  
      90A      3.203713    91A      3.696519  

    Final Occupation by Irrep:
              A 
    DOCC [    17 ]

  Energy converged.

  @DF-RKS Final Energy:  -210.39134430902283

   => Energetics <=

    Nuclear Repulsion Energy =            130.4061199040189649
    One-Electron Energy =                -543.7502264455936256
    Two-Electron Energy =                 226.4440492437764192
    DFT Exchange-Correlation Energy =     -23.4863708812245733
    Empirical Dispersion Energy =          -0.0049161300000000
    PCM Polarization Energy =               0.0000000000000000
    EFP Energy =                            0.0000000000000000
    Total Energy =                       -210.3913443090227986



Properties will be evaluated at   0.000000,   0.000000,   0.000000 Bohr

Properties computed using the SCF density matrix

  Nuclear Dipole Moment: (a.u.)
     X:   177.0889      Y:   -32.2152      Z:   -32.3216

  Electronic Dipole Moment: (a.u.)
     X:  -176.8881      Y:    32.6091      Z:    32.1779

  Dipole Moment: (a.u.)
     X:     0.2008      Y:     0.3939      Z:    -0.1438     Total:     0.4649

  Dipole Moment: (Debye)
     X:     0.5103      Y:     1.0011      Z:    -0.3654     Total:     1.1816


*** tstop() called on computer06 at Tue Dec 12 11:17:26 2017
Module time:
	user time   =      22.97 seconds =       0.38 minutes
	system time =       0.15 seconds =       0.00 minutes
	total time  =         23 seconds =       0.38 minutes
Total time:
	user time   =      22.97 seconds =       0.38 minutes
	system time =       0.15 seconds =       0.00 minutes
	total time  =         23 seconds =       0.38 minutes


Properties will be evaluated at   0.000000,   0.000000,   0.000000 Bohr

Properties computed using the  density matrix

  Nuclear Dipole Moment: (a.u.)
     X:   177.0889      Y:   -32.2152      Z:   -32.3216

  Electronic Dipole Moment: (a.u.)
     X:  -176.8881      Y:    32.6091      Z:    32.1779

  Dipole Moment: (a.u.)
     X:     0.2008      Y:     0.3939      Z:    -0.1438     Total:     0.4649

  Dipole Moment: (Debye)
     X:     0.5103      Y:     1.0011      Z:    -0.3654     Total:     1.1816

  Quadrupole Moment: (Debye Ang)
    XX:   -24.6951     YY:   -23.4027     ZZ:   -22.7380
    XY:     1.0273     XZ:    -6.2350     YZ:     2.4988

  Traceless Quadrupole Moment: (Debye Ang)
    XX:    -1.0832     YY:     0.2092     ZZ:     0.8739
    XY:     1.0273     XZ:    -6.2350     YZ:     2.4988

  Mulliken Charges: (a.u.)
   Center  Symbol    Alpha    Beta     Spin     Total
       1     O     4.13939  4.13939  0.00000 -0.27879
       2     C     2.92973  2.92973  0.00000  0.14055
       3     C     2.98476  2.98476  0.00000  0.03048
       4     N     3.59327  3.59327  0.00000 -0.18653
       5     H     0.42978  0.42978  0.00000  0.14044
       6     H     0.49822  0.49822  0.00000  0.00355
       7     H     0.50463  0.50463  0.00000 -0.00926
       8     H     0.50103  0.50103  0.00000 -0.00206
       9     H     0.48989  0.48989  0.00000  0.02022
      10     H     0.46596  0.46596  0.00000  0.06808
      11     H     0.46334  0.46334  0.00000  0.07332

   Total alpha = 17.00000, Total beta = 17.00000, Total charge = -0.00000


*** Psi4 exiting successfully. Buy a developer a beer!
