    -----------------------------------------------------------------------
          Psi4: An Open-Source Ab Initio Electronic Structure Package
                              Psi4 (no tag) Driver

                          Git: Rev {detached?}  

    J. M. Turney, A. C. Simmonett, R. M. Parrish, E. G. Hohenstein,
    F. A. Evangelista, J. T. Fermann, B. J. Mintz, L. A. Burns, J. J. Wilke,
    M. L. Abrams, N. J. Russ, M. L. Leininger, C. L. Janssen, E. T. Seidl,
    W. D. Allen, H. F. Schaefer, R. A. King, E. F. Valeev, C. D. Sherrill,
    and T. D. Crawford, WIREs Comput. Mol. Sci. 2, 556-565 (2012)
    (doi: 10.1002/wcms.93)

                         Additional Contributions by
    A. E. DePrince, M. Saitow, U. Bozkaya, A. Yu. Sokolov
    -----------------------------------------------------------------------


    Psi4 started on: Tue Jul 26 13:27:24 2016

    Process ID:   9044
    PSI4DATADIR: /export131/home/mjharvey/miniconda3/share
    Memory level set to 256.000 MB

  ==> Input File <==

--------------------------------------------------------------------------
set {
	reference rhf
	basis 6-31G*
}


set_num_threads( 24 )
memory 2 gb

molecule MOL {
0 1

H	 -3.793000	 1.004000	 -0.340000
C	 -3.097000	 0.384000	 0.191000
C	 -1.977000	 0.015000	 -0.386000
H	 -3.341000	 0.079000	 1.192000
O	 -1.081000	 -0.797000	 0.234000
H	 -1.712000	 0.315000	 -1.384000
C	 0.151000	 -0.997000	 -0.369000
C	 1.143000	 0.077000	 0.017000
H	 0.082000	 -1.019000	 -1.451000
H	 0.537000	 -1.944000	 -0.023000
F	 1.575307	 -0.144519	 1.249890
F	 2.196656	 0.081674	 -0.782183
F	 0.608000	 1.279509	 -0.015524

	symmetry c1
}
set optking {
	frozen_dihedral = ("
		3 5 7 9,
		6 3 2 1,
		6 3 5 7
	")
}

ee = energy('scf')
oeprop('DIPOLE', 'QUADRUPOLE', 'MULLIKEN_CHARGES')
f=open( 'psi4out.xyz', 'w' )
f.write( "13  " )
f.write( str(ee) + "\n" )
f.write( MOL.save_string_xyz() )
f.close()
--------------------------------------------------------------------------

  Memory set to   2.000 GiB by Python script.

*** tstart() called on cx1b.hpc.ic.ac.uk
*** at Tue Jul 26 13:27:25 2016


         ---------------------------------------------------------
                                   SCF
            by Justin Turney, Rob Parrish, and Andy Simmonett
                              RHF Reference
                       24 Threads,   2000 MiB Core
         ---------------------------------------------------------

  ==> Geometry <==

    Molecular point group: c1
    Full point group: C1

    Geometry (in Angstrom), charge = 0, multiplicity = 1:

       Center              X                  Y                   Z               Mass       
    ------------   -----------------  -----------------  -----------------  -----------------
           H         -3.890361715562     0.983865942675    -0.369738080549     1.007825032070
           C         -3.194361715562     0.363865942675     0.161261919451    12.000000000000
           C         -2.074361715562    -0.005134057325    -0.415738080549    12.000000000000
           H         -3.438361715562     0.058865942675     1.162261919451     1.007825032070
           O         -1.178361715562    -0.817134057325     0.204261919451    15.994914619560
           H         -1.809361715562     0.294865942675    -1.413738080549     1.007825032070
           C          0.053638284438    -1.017134057325    -0.398738080549    12.000000000000
           C          1.045638284438     0.056865942675    -0.012738080549    12.000000000000
           H         -0.015361715562    -1.039134057325    -1.480738080549     1.007825032070
           H          0.439638284438    -1.964134057325    -0.052738080549     1.007825032070
           F          1.477945284438    -0.164653057325     1.220151919451    18.998403224000
           F          2.099294284438     0.061539942675    -0.811921080549    18.998403224000
           F          0.510638284438     1.259374942675    -0.045262080549    18.998403224000

  Running in c1 symmetry.

  Rotational constants: A =      0.14933  B =      0.03999  C =      0.03901 [cm^-1]
  Rotational constants: A =   4476.74096  B =   1198.85153  C =   1169.37689 [MHz]
  Nuclear repulsion =  413.996178015419332

  Charge       = 0
  Multiplicity = 1
  Electrons    = 64
  Nalpha       = 32
  Nbeta        = 32

  ==> Algorithm <==

  SCF Algorithm Type is DF.
  DIIS enabled.
  MOM disabled.
  Fractional occupation disabled.
  Guess Type is CORE.
  Energy threshold   = 1.00e-06
  Density threshold  = 1.00e-06
  Integral threshold = 0.00e+00

  ==> Primary Basis <==

  Basis Set: 6-31G*
    Number of shells: 58
    Number of basis function: 130
    Number of Cartesian functions: 130
    Spherical Harmonics?: false
    Max angular momentum: 2

  ==> Pre-Iterations <==

   -------------------------------------------------------
    Irrep   Nso     Nmo     Nalpha   Nbeta   Ndocc  Nsocc
   -------------------------------------------------------
     A        130     130       0       0       0       0
   -------------------------------------------------------
    Total     130     130      32      32      32       0
   -------------------------------------------------------

 OEINTS: Overlap, kinetic, potential, dipole, and quadrupole integrals
         stored in file 35.

  ==> Integral Setup <==

  ==> DFJK: Density-Fitted J/K Matrices <==

    J tasked:                  Yes
    K tasked:                  Yes
    wK tasked:                  No
    OpenMP threads:             24
    Integrals threads:          24
    Memory (MB):              1430
    Algorithm:                Core
    Integral Cache:           NONE
    Schwarz Cutoff:          1E-12
    Fitting Condition:       1E-12

   => Auxiliary Basis Set <=

  Basis Set: 
    Number of shells: 237
    Number of basis function: 773
    Number of Cartesian functions: 773
    Spherical Harmonics?: false
    Max angular momentum: 3

  Minimum eigenvalue in the overlap matrix is 1.8344163877E-03.
  Using Symmetric Orthogonalization.
  SCF Guess: Core (One-Electron) Hamiltonian.

  ==> Iterations <==

                           Total Energy        Delta E     RMS |[F,P]|

   @DF-RHF iter   1:  -440.25016849147357   -4.40250e+02   7.40125e-02 
   @DF-RHF iter   2:  -175.93236229960394    2.64318e+02   9.73447e-02 DIIS
   @DF-RHF iter   3:  -490.90327603104254   -3.14971e+02   3.96325e-02 DIIS
   @DF-RHF iter   4:  -414.77589102173806    7.61274e+01   8.04157e-02 DIIS
   @DF-RHF iter   5:  -518.86659320846309   -1.04091e+02   2.22970e-02 DIIS
   @DF-RHF iter   6:  -526.84748254970089   -7.98089e+00   9.91194e-03 DIIS
   @DF-RHF iter   7:  -527.48961876133978   -6.42136e-01   2.28315e-03 DIIS
   @DF-RHF iter   8:  -527.52424732836187   -3.46286e-02   9.49552e-04 DIIS
   @DF-RHF iter   9:  -527.53171999478991   -7.47267e-03   4.53333e-04 DIIS
   @DF-RHF iter  10:  -527.53330851875410   -1.58852e-03   2.44561e-04 DIIS
   @DF-RHF iter  11:  -527.53395551743449   -6.46999e-04   5.62670e-05 DIIS
   @DF-RHF iter  12:  -527.53399055764532   -3.50402e-05   1.91308e-05 DIIS
   @DF-RHF iter  13:  -527.53399671447744   -6.15683e-06   7.25700e-06 DIIS
   @DF-RHF iter  14:  -527.53399758685634   -8.72379e-07   2.07828e-06 DIIS
   @DF-RHF iter  15:  -527.53399768810800   -1.01252e-07   6.51576e-07 DIIS

  ==> Post-Iterations <==

    Orbital Energies (a.u.)
    -----------------------

    Doubly Occupied:                                                      

       1A    -26.346800     2A    -26.345027     3A    -26.336587  
       4A    -20.608407     5A    -11.503068     6A    -11.318364  
       7A    -11.299345     8A    -11.215439     9A     -1.742123  
      10A     -1.642242    11A     -1.635823    12A     -1.438063  
      13A     -1.084168    14A     -1.016225    15A     -0.925251  
      16A     -0.836551    17A     -0.831312    18A     -0.821986  
      19A     -0.790836    20A     -0.722219    21A     -0.713485  
      22A     -0.696739    23A     -0.675005    24A     -0.662098  
      25A     -0.653525    26A     -0.642720    27A     -0.631370  
      28A     -0.583597    29A     -0.562618    30A     -0.524246  
      31A     -0.514040    32A     -0.351245  

    Virtual:                                                              

      33A      0.191353    34A      0.233673    35A      0.271112  
      36A      0.280860    37A      0.295532    38A      0.313769  
      39A      0.344110    40A      0.409162    41A      0.419624  
      42A      0.451313    43A      0.475817    44A      0.509555  
      45A      0.523585    46A      0.691368    47A      0.700440  
      48A      0.720204    49A      0.739003    50A      0.758705  
      51A      0.768891    52A      0.810135    53A      0.826179  
      54A      0.876666    55A      0.910300    56A      0.922203  
      57A      0.979688    58A      1.076884    59A      1.098161  
      60A      1.129537    61A      1.147158    62A      1.159288  
      63A      1.203650    64A      1.236838    65A      1.273121  
      66A      1.325496    67A      1.360875    68A      1.370606  
      69A      1.416755    70A      1.427918    71A      1.452256  
      72A      1.468399    73A      1.586208    74A      1.612237  
      75A      1.634781    76A      1.648688    77A      1.669069  
      78A      1.672323    79A      1.689463    80A      1.713274  
      81A      1.746300    82A      1.820731    83A      1.849139  
      84A      1.901483    85A      1.943665    86A      1.965939  
      87A      2.021030    88A      2.036317    89A      2.110176  
      90A      2.126722    91A      2.137691    92A      2.145622  
      93A      2.235454    94A      2.246126    95A      2.277368  
      96A      2.298206    97A      2.316585    98A      2.326075  
      99A      2.367117   100A      2.401553   101A      2.412571  
     102A      2.422853   103A      2.498660   104A      2.523887  
     105A      2.551926   106A      2.586743   107A      2.672211  
     108A      2.698991   109A      2.716424   110A      2.801077  
     111A      2.869259   112A      2.919717   113A      2.999185  
     114A      3.096894   115A      3.149035   116A      3.175871  
     117A      3.211168   118A      3.295292   119A      3.421153  
     120A      3.422579   121A      3.442515   122A      3.488030  
     123A      4.358612   124A      4.537985   125A      4.605950  
     126A      4.720748   127A      4.905653   128A      4.945160  
     129A      5.128405   130A      5.796189  

    Final Occupation by Irrep:
              A 
    DOCC [    32 ]

  Energy converged.

  @DF-RHF Final Energy:  -527.53399768810800

   => Energetics <=

    Nuclear Repulsion Energy =            413.9961780154193320
    One-Electron Energy =               -1551.7192707842225445
    Two-Electron Energy =                 610.1890950806955516
    DFT Exchange-Correlation Energy =       0.0000000000000000
    Empirical Dispersion Energy =           0.0000000000000000
    PCM Polarization Energy =               0.0000000000000000
    EFP Energy =                            0.0000000000000000
    Total Energy =                       -527.5339976881077746

    Alert: EFP and PCM quantities not currently incorporated into SCF psivars.

Properties will be evaluated at   0.000000,   0.000000,   0.000000 Bohr
  ==> Properties <==


Properties computed using the SCF density matrix

  Nuclear Dipole Moment: (a.u.)
     X:   -12.0309      Y:    -2.6562      Z:    -2.3614

  Electronic Dipole Moment: (a.u.)
     X:    11.7936      Y:     2.2855      Z:     1.6281

  Dipole Moment: (a.u.)
     X:    -0.2373      Y:    -0.3707      Z:    -0.7333     Total:     0.8553

  Dipole Moment: (Debye)
     X:    -0.6031      Y:    -0.9423      Z:    -1.8639     Total:     2.1739


  Saving occupied orbitals to File 180.

*** tstop() called on cx1b.hpc.ic.ac.uk at Tue Jul 26 13:27:31 2016
Module time:
	user time   =      71.27 seconds =       1.19 minutes
	system time =       3.22 seconds =       0.05 minutes
	total time  =          6 seconds =       0.10 minutes
Total time:
	user time   =      71.27 seconds =       1.19 minutes
	system time =       3.22 seconds =       0.05 minutes
	total time  =          6 seconds =       0.10 minutes


Properties will be evaluated at   0.000000,   0.000000,   0.000000 Bohr

Properties computed using the  density matrix

  Nuclear Dipole Moment: (a.u.)
     X:   -12.0309      Y:    -2.6562      Z:    -2.3614

  Electronic Dipole Moment: (a.u.)
     X:    11.7936      Y:     2.2855      Z:     1.6281

  Dipole Moment: (a.u.)
     X:    -0.2373      Y:    -0.3707      Z:    -0.7333     Total:     0.8553

  Dipole Moment: (Debye)
     X:    -0.6031      Y:    -0.9423      Z:    -1.8639     Total:     2.1739

  Quadrupole Moment: (Debye Ang)
    XX:   -45.8967     YY:   -44.2855     ZZ:   -43.4581
    XY:    -3.1700     XZ:     0.8692     YZ:     0.5313

  Traceless Quadrupole Moment: (Debye Ang)
    XX:    -1.3500     YY:     0.2613     ZZ:     1.0887
    XY:    -3.1700     XZ:     0.8692     YZ:     0.5313

  Mulliken Charges: (a.u.)
   Center  Symbol    Alpha    Beta     Spin     Total
       1     H     0.40726  0.40726  0.00000  0.18547
       2     C     3.23640  3.23640  0.00000 -0.47279
       3     C     2.89268  2.89268  0.00000  0.21464
       4     H     0.40192  0.40192  0.00000  0.19616
       5     O     4.30134  4.30134  0.00000 -0.60268
       6     H     0.40794  0.40794  0.00000  0.18411
       7     C     3.06891  3.06891  0.00000 -0.13782
       8     C     2.45148  2.45148  0.00000  1.09704
       9     H     0.40682  0.40682  0.00000  0.18637
      10     H     0.38800  0.38800  0.00000  0.22399
      11     F     4.68048  4.68048  0.00000 -0.36096
      12     F     4.68105  4.68105  0.00000 -0.36211
      13     F     4.67571  4.67571  0.00000 -0.35143

   Total alpha = 32.00000, Total beta = 32.00000, Total charge =  0.00000


*** PSI4 exiting successfully. Buy a developer a beer!
