    -----------------------------------------------------------------------
          Psi4: An Open-Source Ab Initio Electronic Structure Package
                              Psi4 (no tag) Driver

                          Git: Rev {detached?}  

    J. M. Turney, A. C. Simmonett, R. M. Parrish, E. G. Hohenstein,
    F. A. Evangelista, J. T. Fermann, B. J. Mintz, L. A. Burns, J. J. Wilke,
    M. L. Abrams, N. J. Russ, M. L. Leininger, C. L. Janssen, E. T. Seidl,
    W. D. Allen, H. F. Schaefer, R. A. King, E. F. Valeev, C. D. Sherrill,
    and T. D. Crawford, WIREs Comput. Mol. Sci. 2, 556-565 (2012)
    (doi: 10.1002/wcms.93)

                         Additional Contributions by
    A. E. DePrince, M. Saitow, U. Bozkaya, A. Yu. Sokolov
    -----------------------------------------------------------------------


    Psi4 started on: Tue Jul  5 16:38:21 2016

    Process ID:  12264
    PSI4DATADIR: /export131/home/mjharvey/miniconda3/share
    Memory level set to 256.000 MB

  ==> Input File <==

--------------------------------------------------------------------------
set {
	reference rhf
	basis 6-31G*
}


set_num_threads( 1 )
memory 2 gb

molecule MOL {
0 1

O	 0.391030	 1.298905	 0.000133
C	 0.503002	 0.111612	 0.000005
C	 -0.702327	 -0.811998	 -0.000075
C	 1.863306	 -0.554493	 0.000030
C	 -0.679101	 -1.846058	 -1.119152
H	 -0.751839	 -1.296448	 0.973387
H	 -1.596348	 -0.194273	 -0.062578
H	 0.197066	 -2.478551	 -1.044961
H	 -1.561284	 -2.475815	 -1.070007
H	 -0.654932	 -1.366605	 -2.090110
H	 1.974395	 -1.189404	 -0.874166
H	 2.638695	 0.198920	 -0.000196
H	 1.974487	 -1.188655	 0.874727

	symmetry c1
}
ee = energy('scf')
oeprop('DIPOLE', 'QUADRUPOLE', 'MULLIKEN_CHARGES')
f=open( 'psi4out.xyz', 'w' )
f.write( "13  " )
f.write( str(ee) + "\n" )
f.write( MOL.save_string_xyz() )
f.close()
--------------------------------------------------------------------------

  Memory set to   2.000 GiB by Python script.

*** tstart() called on cx1-3-4-4.cx1.hpc.ic.ac.uk
*** at Tue Jul  5 16:38:21 2016


         ---------------------------------------------------------
                                   SCF
            by Justin Turney, Rob Parrish, and Andy Simmonett
                              RHF Reference
                        1 Threads,   2000 MiB Core
         ---------------------------------------------------------

  ==> Geometry <==

    Molecular point group: c1
    Full point group: C1

    Geometry (in Angstrom), charge = 0, multiplicity = 1:

       Center              X                  Y                   Z               Mass       
    ------------   -----------------  -----------------  -----------------  -----------------
           O          0.109162592446     1.666727551813     0.232556441324    15.994914619560
           C          0.221134592446     0.479434551813     0.232428441324    12.000000000000
           C         -0.984194407554    -0.444175448187     0.232348441324    12.000000000000
           C          1.581438592446    -0.186670448187     0.232453441324    12.000000000000
           C         -0.960968407554    -1.478235448187    -0.886728558676    12.000000000000
           H         -1.033706407554    -0.928625448187     1.205810441324     1.007825032070
           H         -1.878215407554     0.173549551813     0.169845441324     1.007825032070
           H         -0.084801407554    -2.110728448187    -0.812537558676     1.007825032070
           H         -1.843151407554    -2.107992448187    -0.837583558676     1.007825032070
           H         -0.936799407554    -0.998782448187    -1.857686558676     1.007825032070
           H          1.692527592446    -0.821581448187    -0.641742558676     1.007825032070
           H          2.356827592446     0.566742551813     0.232227441324     1.007825032070
           H          1.692619592446    -0.820832448187     1.107150441324     1.007825032070

  Running in c1 symmetry.

  Rotational constants: A =      0.26247  B =      0.13008  C =      0.09806 [cm^-1]
  Rotational constants: A =   7868.71822  B =   3899.68722  C =   2939.81290 [MHz]
  Nuclear repulsion =  177.302224132756066

  Charge       = 0
  Multiplicity = 1
  Electrons    = 40
  Nalpha       = 20
  Nbeta        = 20

  ==> Algorithm <==

  SCF Algorithm Type is DF.
  DIIS enabled.
  MOM disabled.
  Fractional occupation disabled.
  Guess Type is CORE.
  Energy threshold   = 1.00e-06
  Density threshold  = 1.00e-06
  Integral threshold = 0.00e+00

  ==> Primary Basis <==

  Basis Set: 6-31G*
    Number of shells: 46
    Number of basis function: 91
    Number of Cartesian functions: 91
    Spherical Harmonics?: false
    Max angular momentum: 2

  ==> Pre-Iterations <==

   -------------------------------------------------------
    Irrep   Nso     Nmo     Nalpha   Nbeta   Ndocc  Nsocc
   -------------------------------------------------------
     A         91      91       0       0       0       0
   -------------------------------------------------------
    Total      91      91      20      20      20       0
   -------------------------------------------------------

 OEINTS: Overlap, kinetic, potential, dipole, and quadrupole integrals
         stored in file 35.

  ==> Integral Setup <==

  ==> DFJK: Density-Fitted J/K Matrices <==

    J tasked:                  Yes
    K tasked:                  Yes
    wK tasked:                  No
    OpenMP threads:              1
    Integrals threads:           1
    Memory (MB):              1430
    Algorithm:                Core
    Integral Cache:           NONE
    Schwarz Cutoff:          1E-12
    Fitting Condition:       1E-12

   => Auxiliary Basis Set <=

  Basis Set: 
    Number of shells: 192
    Number of basis function: 605
    Number of Cartesian functions: 605
    Spherical Harmonics?: false
    Max angular momentum: 3

  Minimum eigenvalue in the overlap matrix is 4.1077952481E-03.
  Using Symmetric Orthogonalization.
  SCF Guess: Core (One-Electron) Hamiltonian.

  ==> Iterations <==

                           Total Energy        Delta E     RMS |[F,P]|

   @DF-RHF iter   1:  -181.94684441583178   -1.81947e+02   8.18192e-02 
   @DF-RHF iter   2:  -166.35802516200351    1.55888e+01   6.33989e-02 DIIS
   @DF-RHF iter   3:  -203.33804494639236   -3.69800e+01   5.87264e-02 DIIS
   @DF-RHF iter   4:  -229.23173951937264   -2.58937e+01   1.88511e-02 DIIS
   @DF-RHF iter   5:  -230.87589081495611   -1.64415e+00   4.72894e-03 DIIS
   @DF-RHF iter   6:  -230.98322031458872   -1.07329e-01   1.26927e-03 DIIS
   @DF-RHF iter   7:  -230.99269138005889   -9.47107e-03   3.60457e-04 DIIS
   @DF-RHF iter   8:  -230.99363455712074   -9.43177e-04   1.53433e-04 DIIS
   @DF-RHF iter   9:  -230.99387802287487   -2.43466e-04   6.61375e-05 DIIS
   @DF-RHF iter  10:  -230.99391759868081   -3.95758e-05   3.70706e-05 DIIS
   @DF-RHF iter  11:  -230.99393500387339   -1.74052e-05   1.27341e-05 DIIS
   @DF-RHF iter  12:  -230.99393888224313   -3.87837e-06   4.70713e-06 DIIS
   @DF-RHF iter  13:  -230.99393942159048   -5.39347e-07   2.22240e-06 DIIS
   @DF-RHF iter  14:  -230.99393952790956   -1.06319e-07   8.50420e-07 DIIS

  ==> Post-Iterations <==

    Orbital Energies (a.u.)
    -----------------------

    Doubly Occupied:                                                      

       1A    -20.550170     2A    -11.325944     3A    -11.233545  
       4A    -11.229976     5A    -11.227974     6A     -1.395041  
       7A     -1.071668     8A     -0.993698     9A     -0.888940  
      10A     -0.733868    11A     -0.655145    12A     -0.646474  
      13A     -0.616403    14A     -0.593702    15A     -0.558026  
      16A     -0.543327    17A     -0.532654    18A     -0.501333  
      19A     -0.484121    20A     -0.400070  

    Virtual:                                                              

      21A      0.167517    22A      0.222545    23A      0.274631  
      24A      0.282621    25A      0.297170    26A      0.307074  
      27A      0.315440    28A      0.346240    29A      0.353519  
      30A      0.385089    31A      0.401803    32A      0.481823  
      33A      0.511863    34A      0.704868    35A      0.719008  
      36A      0.734504    37A      0.770737    38A      0.818118  
      39A      0.831769    40A      0.882381    41A      0.923370  
      42A      0.973255    43A      0.978623    44A      1.011751  
      45A      1.051929    46A      1.098616    47A      1.122559  
      48A      1.143359    49A      1.153439    50A      1.167188  
      51A      1.183805    52A      1.194195    53A      1.233828  
      54A      1.254514    55A      1.275959    56A      1.321109  
      57A      1.376536    58A      1.408936    59A      1.550123  
      60A      1.664905    61A      1.706757    62A      1.798022  
      63A      1.867693    64A      1.953095    65A      2.033256  
      66A      2.079583    67A      2.094282    68A      2.144630  
      69A      2.211713    70A      2.238932    71A      2.264914  
      72A      2.326661    73A      2.365421    74A      2.444027  
      75A      2.503292    76A      2.584112    77A      2.643312  
      78A      2.668680    79A      2.712058    80A      2.739331  
      81A      2.848021    82A      2.959055    83A      2.983360  
      84A      3.112987    85A      3.367424    86A      3.387119  
      87A      4.407100    88A      4.542359    89A      4.668808  
      90A      4.795349    91A      4.939736  

    Final Occupation by Irrep:
              A 
    DOCC [    20 ]

  Energy converged.

  @DF-RHF Final Energy:  -230.99393952790956

   => Energetics <=

    Nuclear Repulsion Energy =            177.3022241327560664
    One-Electron Energy =                -664.2282224626909510
    Two-Electron Energy =                 255.9320588020245282
    DFT Exchange-Correlation Energy =       0.0000000000000000
    Empirical Dispersion Energy =           0.0000000000000000
    PCM Polarization Energy =               0.0000000000000000
    EFP Energy =                            0.0000000000000000
    Total Energy =                       -230.9939395279103564

    Alert: EFP and PCM quantities not currently incorporated into SCF psivars.

Properties will be evaluated at   0.000000,   0.000000,   0.000000 Bohr
  ==> Properties <==


Properties computed using the SCF density matrix

  Nuclear Dipole Moment: (a.u.)
     X:    -0.0320      Y:    -6.5995      Z:    -1.3437

  Electronic Dipole Moment: (a.u.)
     X:     0.1039      Y:     5.3493      Z:     1.3184

  Dipole Moment: (a.u.)
     X:     0.0719      Y:    -1.2502      Z:    -0.0253     Total:     1.2526

  Dipole Moment: (Debye)
     X:     0.1828      Y:    -3.1778      Z:    -0.0642     Total:     3.1837


  Saving occupied orbitals to File 180.

*** tstop() called on cx1-3-4-4.cx1.hpc.ic.ac.uk at Tue Jul  5 16:38:28 2016
Module time:
	user time   =       6.25 seconds =       0.10 minutes
	system time =       0.04 seconds =       0.00 minutes
	total time  =          7 seconds =       0.12 minutes
Total time:
	user time   =       6.25 seconds =       0.10 minutes
	system time =       0.04 seconds =       0.00 minutes
	total time  =          7 seconds =       0.12 minutes


Properties will be evaluated at   0.000000,   0.000000,   0.000000 Bohr

Properties computed using the  density matrix

  Nuclear Dipole Moment: (a.u.)
     X:    -0.0320      Y:    -6.5995      Z:    -1.3437

  Electronic Dipole Moment: (a.u.)
     X:     0.1039      Y:     5.3493      Z:     1.3184

  Dipole Moment: (a.u.)
     X:     0.0719      Y:    -1.2502      Z:    -0.0253     Total:     1.2526

  Dipole Moment: (Debye)
     X:     0.1828      Y:    -3.1778      Z:    -0.0642     Total:     3.1837

  Quadrupole Moment: (Debye Ang)
    XX:   -29.9837     YY:   -37.5458     ZZ:   -30.7884
    XY:     0.0912     XZ:     0.1371     YZ:    -0.8636

  Traceless Quadrupole Moment: (Debye Ang)
    XX:     2.7890     YY:    -4.7732     ZZ:     1.9842
    XY:     0.0912     XZ:     0.1371     YZ:    -0.8636

  Mulliken Charges: (a.u.)
   Center  Symbol    Alpha    Beta     Spin     Total
       1     O     4.25990  4.25990  0.00000 -0.51979
       2     C     2.73252  2.73252  0.00000  0.53496
       3     C     3.20468  3.20468  0.00000 -0.40935
       4     C     3.29279  3.29279  0.00000 -0.58558
       5     C     3.25130  3.25130  0.00000 -0.50259
       6     H     0.41009  0.41009  0.00000  0.17982
       7     H     0.39900  0.39900  0.00000  0.20199
       8     H     0.41691  0.41691  0.00000  0.16619
       9     H     0.40996  0.40996  0.00000  0.18008
      10     H     0.41150  0.41150  0.00000  0.17700
      11     H     0.40649  0.40649  0.00000  0.18703
      12     H     0.39593  0.39593  0.00000  0.20814
      13     H     0.40895  0.40895  0.00000  0.18210

   Total alpha = 20.00000, Total beta = 20.00000, Total charge =  0.00000


*** PSI4 exiting successfully. Buy a developer a beer!
