    -----------------------------------------------------------------------
          Psi4: An Open-Source Ab Initio Electronic Structure Package
                              Psi4 (no tag) Driver

                          Git: Rev {detached?}  

    J. M. Turney, A. C. Simmonett, R. M. Parrish, E. G. Hohenstein,
    F. A. Evangelista, J. T. Fermann, B. J. Mintz, L. A. Burns, J. J. Wilke,
    M. L. Abrams, N. J. Russ, M. L. Leininger, C. L. Janssen, E. T. Seidl,
    W. D. Allen, H. F. Schaefer, R. A. King, E. F. Valeev, C. D. Sherrill,
    and T. D. Crawford, WIREs Comput. Mol. Sci. 2, 556-565 (2012)
    (doi: 10.1002/wcms.93)

                         Additional Contributions by
    A. E. DePrince, M. Saitow, U. Bozkaya, A. Yu. Sokolov
    -----------------------------------------------------------------------


    Psi4 started on: Tue Jul  5 18:21:18 2016

    Process ID:   6524
    PSI4DATADIR: /export131/home/mjharvey/miniconda3/share
    Memory level set to 256.000 MB

  ==> Input File <==

--------------------------------------------------------------------------
set {
	reference rhf
	basis 6-31G*
}


set_num_threads( 1 )
memory 2 gb

molecule MOL {
0 1

H	 -2.634058	 0.426738	 0.717547
O	 -1.689081	 0.399928	 0.754579
C	 -1.155861	 1.475926	 0.025224
C	 -1.332194	 2.820573	 0.722043
H	 -0.101567	 1.259539	 -0.090166
H	 -1.589605	 1.511495	 -0.973466
C	 -0.933598	 2.812714	 2.199854
H	 -0.745182	 3.564451	 0.189662
H	 -2.376249	 3.115466	 0.630640
C	 -1.877724	 1.970510	 3.062488
H	 -0.917146	 3.833780	 2.570688
H	 0.080947	 2.426486	 2.299186
C	 -2.207908	 0.586133	 2.492558
H	 -1.449153	 1.857490	 4.056671
H	 -2.807888	 2.519212	 3.194479
C	 -3.034785	 0.600176	 1.203932
H	 -1.272939	 0.064496	 2.298798
H	 -2.728660	 0.000920	 3.248985
C	 -4.465221	 1.099239	 1.418936
H	 -3.065093	 -0.405012	 0.785853
H	 -2.553062	 1.226450	 0.456921
C	 -5.411106	 0.710962	 0.283063
H	 -4.847259	 0.703375	 2.357459
H	 -4.456195	 2.181939	 1.526468
H	 -5.467273	 -0.368187	 0.171231
H	 -6.416738	 1.077069	 0.465559
H	 -5.076338	 1.123259	 -0.664726

	symmetry c1
}
set optking {
	frozen_dihedral = ("
		14 10 7 4,
		14 10 13 16,
		10 7 4 8,
		8 4 3 2,
		10 13 16 20,
		4 3 2 1
	")
}

ee = energy('scf')
oeprop('DIPOLE', 'QUADRUPOLE', 'MULLIKEN_CHARGES')
f=open( 'psi4out.xyz', 'w' )
f.write( "27  " )
f.write( str(ee) + "\n" )
f.write( MOL.save_string_xyz() )
f.close()
--------------------------------------------------------------------------

  Memory set to   2.000 GiB by Python script.

*** tstart() called on cx1-3-4-2.cx1.hpc.ic.ac.uk
*** at Tue Jul  5 18:21:19 2016


         ---------------------------------------------------------
                                   SCF
            by Justin Turney, Rob Parrish, and Andy Simmonett
                              RHF Reference
                        1 Threads,   2000 MiB Core
         ---------------------------------------------------------

  ==> Geometry <==

    Molecular point group: c1
    Full point group: C1

    Geometry (in Angstrom), charge = 0, multiplicity = 1:

       Center              X                  Y                   Z               Mass       
    ------------   -----------------  -----------------  -----------------  -----------------
           H         -0.168633963748    -0.938259221877    -0.607148476008     1.007825032070
           O          0.776343036252    -0.965069221877    -0.570116476008    15.994914619560
           C          1.309563036252     0.110928778123    -1.299471476008    12.000000000000
           C          1.133230036252     1.455575778123    -0.602652476008    12.000000000000
           H          2.363857036252    -0.105458221877    -1.414861476008     1.007825032070
           H          0.875819036252     0.146497778123    -2.298161476008     1.007825032070
           C          1.531826036252     1.447716778123     0.875158523992    12.000000000000
           H          1.720242036252     2.199453778123    -1.135033476008     1.007825032070
           H          0.089175036252     1.750468778123    -0.694055476008     1.007825032070
           C          0.587700036252     0.605512778123     1.737792523992    12.000000000000
           H          1.548278036252     2.468782778123     1.245992523992     1.007825032070
           H          2.546371036252     1.061488778123     0.974490523992     1.007825032070
           C          0.257516036252    -0.778864221877     1.167862523992    12.000000000000
           H          1.016271036252     0.492492778123     2.731975523992     1.007825032070
           H         -0.342463963748     1.154214778123     1.869783523992     1.007825032070
           C         -0.569360963748    -0.764821221877    -0.120763476008    12.000000000000
           H          1.192485036252    -1.300501221877     0.974102523992     1.007825032070
           H         -0.263235963748    -1.364077221877     1.924289523992     1.007825032070
           C         -1.999796963748    -0.265758221877     0.094240523992    12.000000000000
           H         -0.599668963748    -1.770009221877    -0.538842476008     1.007825032070
           H         -0.087637963748    -0.138547221877    -0.867774476008     1.007825032070
           C         -2.945681963748    -0.654035221877    -1.041632476008    12.000000000000
           H         -2.381834963748    -0.661622221877     1.032763523992     1.007825032070
           H         -1.990770963748     0.816941778123     0.201772523992     1.007825032070
           H         -3.001848963748    -1.733184221877    -1.153464476008     1.007825032070
           H         -3.951313963748    -0.287928221877    -0.859136476008     1.007825032070
           H         -2.610913963748    -0.241738221877    -1.989421476008     1.007825032070

  Running in c1 symmetry.

  Rotational constants: A =      0.07989  B =      0.03952  C =      0.03531 [cm^-1]
  Rotational constants: A =   2395.13658  B =   1184.67835  C =   1058.43438 [MHz]
  Nuclear repulsion =  551.427991040807569

  Charge       = 0
  Multiplicity = 1
  Electrons    = 74
  Nalpha       = 37
  Nbeta        = 37

  ==> Algorithm <==

  SCF Algorithm Type is DF.
  DIIS enabled.
  MOM disabled.
  Fractional occupation disabled.
  Guess Type is CORE.
  Energy threshold   = 1.00e-06
  Density threshold  = 1.00e-06
  Integral threshold = 0.00e+00

  ==> Primary Basis <==

  Basis Set: 6-31G*
    Number of shells: 90
    Number of basis function: 171
    Number of Cartesian functions: 171
    Spherical Harmonics?: false
    Max angular momentum: 2

  ==> Pre-Iterations <==

   -------------------------------------------------------
    Irrep   Nso     Nmo     Nalpha   Nbeta   Ndocc  Nsocc
   -------------------------------------------------------
     A        171     171       0       0       0       0
   -------------------------------------------------------
    Total     171     171      37      37      37       0
   -------------------------------------------------------

 OEINTS: Overlap, kinetic, potential, dipole, and quadrupole integrals
         stored in file 35.

  ==> Integral Setup <==

  ==> DFJK: Density-Fitted J/K Matrices <==

    J tasked:                  Yes
    K tasked:                  Yes
    wK tasked:                  No
    OpenMP threads:              1
    Integrals threads:           1
    Memory (MB):              1430
    Algorithm:                Core
    Integral Cache:           NONE
    Schwarz Cutoff:          1E-12
    Fitting Condition:       1E-12

   => Auxiliary Basis Set <=

  Basis Set: 
    Number of shells: 378
    Number of basis function: 1179
    Number of Cartesian functions: 1179
    Spherical Harmonics?: false
    Max angular momentum: 3

  Minimum eigenvalue in the overlap matrix is 1.3739315457E-03.
  Using Symmetric Orthogonalization.
  SCF Guess: Core (One-Electron) Hamiltonian.

  ==> Iterations <==

                           Total Energy        Delta E     RMS |[F,P]|

   @DF-RHF iter   1:  -244.47339414826104   -2.44473e+02   7.18355e-02 
   @DF-RHF iter   2:  -137.47477480622399    1.06999e+02   6.95161e-02 DIIS
   @DF-RHF iter   3:  -298.49970270720837   -1.61025e+02   4.84740e-02 DIIS
   @DF-RHF iter   4:  -288.71893727042414    9.78077e+00   6.06430e-02 DIIS
   @DF-RHF iter   5:  -386.56917037485698   -9.78502e+01   5.78453e-03 DIIS
   @DF-RHF iter   6:  -386.97999058514631   -4.10820e-01   3.06197e-03 DIIS
   @DF-RHF iter   7:  -387.10498364425473   -1.24993e-01   5.89203e-04 DIIS
   @DF-RHF iter   8:  -387.11111626887316   -6.13262e-03   2.67083e-04 DIIS
   @DF-RHF iter   9:  -387.11227928465428   -1.16302e-03   9.20296e-05 DIIS
   @DF-RHF iter  10:  -387.11245518754663   -1.75903e-04   2.71857e-05 DIIS
   @DF-RHF iter  11:  -387.11248140223597   -2.62147e-05   1.07657e-05 DIIS
   @DF-RHF iter  12:  -387.11248718152763   -5.77929e-06   5.50952e-06 DIIS
   @DF-RHF iter  13:  -387.11248887695308   -1.69543e-06   1.90613e-06 DIIS
   @DF-RHF iter  14:  -387.11248915629346   -2.79340e-07   6.50983e-07 DIIS

  ==> Post-Iterations <==

    Orbital Energies (a.u.)
    -----------------------

    Doubly Occupied:                                                      

       1A    -20.496047     2A    -11.279193     3A    -11.268697  
       4A    -11.228039     5A    -11.219219     6A    -11.210533  
       7A    -11.198663     8A    -11.192263     9A    -11.174899  
      10A     -1.642500    11A     -1.146968    12A     -1.080794  
      13A     -1.021816    14A     -1.003011    15A     -0.919390  
      16A     -0.877759    17A     -0.836811    18A     -0.785041  
      19A     -0.750664    20A     -0.671641    21A     -0.659455  
      22A     -0.634977    23A     -0.611347    24A     -0.600179  
      25A     -0.588671    26A     -0.556225    27A     -0.550467  
      28A     -0.526594    29A     -0.503202    30A     -0.490193  
      31A     -0.473527    32A     -0.465927    33A     -0.457303  
      34A     -0.449062    35A     -0.441999    36A     -0.351899  
      37A     -0.249558  

    Virtual:                                                              

      38A      0.196936    39A      0.238314    40A      0.244424  
      41A      0.257395    42A      0.274828    43A      0.292913  
      44A      0.302757    45A      0.306296    46A      0.315539  
      47A      0.318796    48A      0.331623    49A      0.334335  
      50A      0.345797    51A      0.359247    52A      0.368686  
      53A      0.373652    54A      0.387851    55A      0.405468  
      56A      0.412446    57A      0.429788    58A      0.447266  
      59A      0.454171    60A      0.459222    61A      0.489762  
      62A      0.505727    63A      0.571913    64A      0.686213  
      65A      0.710729    66A      0.722938    67A      0.728000  
      68A      0.750474    69A      0.761161    70A      0.781263  
      71A      0.800933    72A      0.857603    73A      0.868114  
      74A      0.889595    75A      0.907189    76A      0.926841  
      77A      0.949900    78A      0.957274    79A      0.979888  
      80A      0.991257    81A      1.013349    82A      1.056775  
      83A      1.087228    84A      1.094260    85A      1.107127  
      86A      1.118120    87A      1.138478    88A      1.150298  
      89A      1.154392    90A      1.171620    91A      1.174658  
      92A      1.179774    93A      1.193617    94A      1.201362  
      95A      1.213952    96A      1.232731    97A      1.234308  
      98A      1.248327    99A      1.261069   100A      1.272985  
     101A      1.278832   102A      1.305771   103A      1.321293  
     104A      1.360174   105A      1.404932   106A      1.432302  
     107A      1.505297   108A      1.555526   109A      1.624610  
     110A      1.624915   111A      1.682093   112A      1.726646  
     113A      1.753046   114A      1.780510   115A      1.798753  
     116A      1.847558   117A      1.890975   118A      1.919477  
     119A      1.938801   120A      1.972085   121A      2.034949  
     122A      2.065477   123A      2.099496   124A      2.132174  
     125A      2.183830   126A      2.199401   127A      2.233329  
     128A      2.244951   129A      2.255165   130A      2.299157  
     131A      2.317697   132A      2.334041   133A      2.368302  
     134A      2.377614   135A      2.384427   136A      2.458326  
     137A      2.470198   138A      2.535836   139A      2.563179  
     140A      2.576371   141A      2.645072   142A      2.670750  
     143A      2.688476   144A      2.697728   145A      2.724974  
     146A      2.736231   147A      2.742529   148A      2.749790  
     149A      2.794593   150A      2.800336   151A      2.812378  
     152A      2.865786   153A      2.929609   154A      2.995968  
     155A      3.010464   156A      3.032837   157A      3.070906  
     158A      3.122395   159A      3.163944   160A      3.262516  
     161A      3.546074   162A      4.542040   163A      4.588182  
     164A      4.671233   165A      4.722888   166A      4.814255  
     167A      4.871080   168A      4.960172   169A      5.003036  
     170A      5.070075   171A      5.142960  

    Final Occupation by Irrep:
              A 
    DOCC [    37 ]

  Energy converged.

  @DF-RHF Final Energy:  -387.11248915629346

   => Energetics <=

    Nuclear Repulsion Energy =            551.4279910408075693
    One-Electron Energy =               -1617.8519060129210629
    Two-Electron Energy =                 679.3114258158199164
    DFT Exchange-Correlation Energy =       0.0000000000000000
    Empirical Dispersion Energy =           0.0000000000000000
    PCM Polarization Energy =               0.0000000000000000
    EFP Energy =                            0.0000000000000000
    Total Energy =                       -387.1124891562934636

    Alert: EFP and PCM quantities not currently incorporated into SCF psivars.

Properties will be evaluated at   0.000000,   0.000000,   0.000000 Bohr
  ==> Properties <==


Properties computed using the SCF density matrix

  Nuclear Dipole Moment: (a.u.)
     X:    -3.7891      Y:     1.4475      Z:    -0.5678

  Electronic Dipole Moment: (a.u.)
     X:     4.2400      Y:    -1.0988      Z:     0.0947

  Dipole Moment: (a.u.)
     X:     0.4509      Y:     0.3487      Z:    -0.4731     Total:     0.7408

  Dipole Moment: (Debye)
     X:     1.1462      Y:     0.8864      Z:    -1.2024     Total:     1.8829


  Saving occupied orbitals to File 180.

*** tstop() called on cx1-3-4-2.cx1.hpc.ic.ac.uk at Tue Jul  5 18:21:52 2016
Module time:
	user time   =      32.47 seconds =       0.54 minutes
	system time =       0.28 seconds =       0.00 minutes
	total time  =         33 seconds =       0.55 minutes
Total time:
	user time   =      32.47 seconds =       0.54 minutes
	system time =       0.28 seconds =       0.00 minutes
	total time  =         33 seconds =       0.55 minutes


Properties will be evaluated at   0.000000,   0.000000,   0.000000 Bohr

Properties computed using the  density matrix

  Nuclear Dipole Moment: (a.u.)
     X:    -3.7891      Y:     1.4475      Z:    -0.5678

  Electronic Dipole Moment: (a.u.)
     X:     4.2400      Y:    -1.0988      Z:     0.0947

  Dipole Moment: (a.u.)
     X:     0.4509      Y:     0.3487      Z:    -0.4731     Total:     0.7408

  Dipole Moment: (Debye)
     X:     1.1462      Y:     0.8864      Z:    -1.2024     Total:     1.8829

  Quadrupole Moment: (Debye Ang)
    XX:   -61.9553     YY:   -60.2049     ZZ:   -60.3948
    XY:     1.9508     XZ:    -0.9353     YZ:     0.0221

  Traceless Quadrupole Moment: (Debye Ang)
    XX:    -1.1036     YY:     0.6468     ZZ:     0.4569
    XY:     1.9508     XZ:    -0.9353     YZ:     0.0221

  Mulliken Charges: (a.u.)
   Center  Symbol    Alpha    Beta     Spin     Total
       1     H     0.42292  0.42292  0.00000  0.15417
       2     O     4.28273  4.28273  0.00000 -0.56545
       3     C     3.07243  3.07243  0.00000 -0.14486
       4     C     3.19074  3.19074  0.00000 -0.38149
       5     H     0.38846  0.38846  0.00000  0.22307
       6     H     0.40855  0.40855  0.00000  0.18291
       7     C     3.15076  3.15076  0.00000 -0.30152
       8     H     0.41128  0.41128  0.00000  0.17743
       9     H     0.40432  0.40432  0.00000  0.19135
      10     C     3.15104  3.15104  0.00000 -0.30208
      11     H     0.41577  0.41577  0.00000  0.16846
      12     H     0.42276  0.42276  0.00000  0.15449
      13     C     3.16192  3.16192  0.00000 -0.32385
      14     H     0.41843  0.41843  0.00000  0.16313
      15     H     0.42058  0.42058  0.00000  0.15884
      16     C     3.10149  3.10149  0.00000 -0.20299
      17     H     0.39254  0.39254  0.00000  0.21491
      18     H     0.43815  0.43815  0.00000  0.12370
      19     C     3.16170  3.16170  0.00000 -0.32340
      20     H     0.37308  0.37308  0.00000  0.25384
      21     H     0.42124  0.42124  0.00000  0.15751
      22     C     3.24486  3.24486  0.00000 -0.48971
      23     H     0.43400  0.43400  0.00000  0.13200
      24     H     0.43318  0.43318  0.00000  0.13364
      25     H     0.42852  0.42852  0.00000  0.14297
      26     H     0.41839  0.41839  0.00000  0.16322
      27     H     0.43015  0.43015  0.00000  0.13970

   Total alpha = 37.00000, Total beta = 37.00000, Total charge = -0.00000


*** PSI4 exiting successfully. Buy a developer a beer!
