    -----------------------------------------------------------------------
          Psi4: An Open-Source Ab Initio Electronic Structure Package
                              Psi4 (no tag) Driver

                          Git: Rev {detached?}  

    J. M. Turney, A. C. Simmonett, R. M. Parrish, E. G. Hohenstein,
    F. A. Evangelista, J. T. Fermann, B. J. Mintz, L. A. Burns, J. J. Wilke,
    M. L. Abrams, N. J. Russ, M. L. Leininger, C. L. Janssen, E. T. Seidl,
    W. D. Allen, H. F. Schaefer, R. A. King, E. F. Valeev, C. D. Sherrill,
    and T. D. Crawford, WIREs Comput. Mol. Sci. 2, 556-565 (2012)
    (doi: 10.1002/wcms.93)

                         Additional Contributions by
    A. E. DePrince, M. Saitow, U. Bozkaya, A. Yu. Sokolov
    -----------------------------------------------------------------------


    Psi4 started on: Tue Jul  5 16:36:17 2016

    Process ID:  12050
    PSI4DATADIR: /export131/home/mjharvey/miniconda3/share
    Memory level set to 256.000 MB

  ==> Input File <==

--------------------------------------------------------------------------
set {
	reference rhf
	basis 6-31G*
}


set_num_threads( 1 )
memory 2 gb

molecule MOL {
0 1

O	 0.413000	 1.358000	 -0.000000
C	 0.525000	 0.171000	 -0.000000
C	 -0.680000	 -0.753000	 -0.000000
C	 1.885000	 -0.495000	 0.000000
C	 -2.014000	 -0.016000	 0.000000
H	 -0.600000	 -1.407000	 -0.866000
H	 -0.600000	 -1.407000	 0.866000
H	 -2.108000	 0.617000	 -0.874000
H	 -2.837000	 -0.723000	 0.000000
H	 -2.108000	 0.617000	 0.874000
H	 1.997000	 -1.130000	 -0.874000
H	 2.660000	 0.258000	 -0.000000
H	 1.997000	 -1.130000	 0.875000

	symmetry c1
}
ee = optimize('scf')
oeprop('DIPOLE', 'QUADRUPOLE', 'MULLIKEN_CHARGES')
f=open( 'psi4out.xyz', 'w' )
f.write( "13  " )
f.write( str(ee) + "\n" )
f.write( MOL.save_string_xyz() )
f.close()
--------------------------------------------------------------------------

  Memory set to   2.000 GiB by Python script.
gradient() will perform analytic gradient computation.

*** tstart() called on cx1-3-4-4.cx1.hpc.ic.ac.uk
*** at Tue Jul  5 16:36:18 2016


         ---------------------------------------------------------
                                   SCF
            by Justin Turney, Rob Parrish, and Andy Simmonett
                              RHF Reference
                        1 Threads,   2000 MiB Core
         ---------------------------------------------------------

  ==> Geometry <==

    Molecular point group: c1
    Full point group: C1

    Geometry (in Angstrom), charge = 0, multiplicity = 1:

       Center              X                  Y                   Z               Mass       
    ------------   -----------------  -----------------  -----------------  -----------------
           O          0.390984426547     1.298791639878    -0.000013986397    15.994914619560
           C          0.502984426547     0.111791639878    -0.000013986397    12.000000000000
           C         -0.702015573453    -0.812208360122    -0.000013986397    12.000000000000
           C          1.862984426547    -0.554208360122    -0.000013986397    12.000000000000
           C         -2.036015573453    -0.075208360122    -0.000013986397    12.000000000000
           H         -0.622015573453    -1.466208360122    -0.866013986397     1.007825032070
           H         -0.622015573453    -1.466208360122     0.865986013603     1.007825032070
           H         -2.130015573453     0.557791639878    -0.874013986397     1.007825032070
           H         -2.859015573453    -0.782208360122    -0.000013986397     1.007825032070
           H         -2.130015573453     0.557791639878     0.873986013603     1.007825032070
           H          1.974984426547    -1.189208360122    -0.874013986397     1.007825032070
           H          2.637984426547     0.198791639878    -0.000013986397     1.007825032070
           H          1.974984426547    -1.189208360122     0.874986013603     1.007825032070

  Running in c1 symmetry.

  Rotational constants: A =      0.32552  B =      0.11999  C =      0.09207 [cm^-1]
  Rotational constants: A =   9758.96816  B =   3597.15801  C =   2760.20961 [MHz]
  Nuclear repulsion =  176.962146652245536

  Charge       = 0
  Multiplicity = 1
  Electrons    = 40
  Nalpha       = 20
  Nbeta        = 20

  ==> Algorithm <==

  SCF Algorithm Type is DF.
  DIIS enabled.
  MOM disabled.
  Fractional occupation disabled.
  Guess Type is CORE.
  Energy threshold   = 1.00e-08
  Density threshold  = 1.00e-08
  Integral threshold = 0.00e+00

  ==> Primary Basis <==

  Basis Set: 6-31G*
    Number of shells: 46
    Number of basis function: 91
    Number of Cartesian functions: 91
    Spherical Harmonics?: false
    Max angular momentum: 2

  ==> Pre-Iterations <==

   -------------------------------------------------------
    Irrep   Nso     Nmo     Nalpha   Nbeta   Ndocc  Nsocc
   -------------------------------------------------------
     A         91      91       0       0       0       0
   -------------------------------------------------------
    Total      91      91      20      20      20       0
   -------------------------------------------------------

 OEINTS: Overlap, kinetic, potential, dipole, and quadrupole integrals
         stored in file 35.

  ==> Integral Setup <==

  ==> DFJK: Density-Fitted J/K Matrices <==

    J tasked:                  Yes
    K tasked:                  Yes
    wK tasked:                  No
    OpenMP threads:              1
    Integrals threads:           1
    Memory (MB):              1430
    Algorithm:                Core
    Integral Cache:           NONE
    Schwarz Cutoff:          1E-12
    Fitting Condition:       1E-12

   => Auxiliary Basis Set <=

  Basis Set: 
    Number of shells: 192
    Number of basis function: 605
    Number of Cartesian functions: 605
    Spherical Harmonics?: false
    Max angular momentum: 3

  Minimum eigenvalue in the overlap matrix is 3.9790526210E-03.
  Using Symmetric Orthogonalization.
  SCF Guess: Core (One-Electron) Hamiltonian.

  ==> Iterations <==

                           Total Energy        Delta E     RMS |[F,P]|

   @DF-RHF iter   1:  -178.24700867970009   -1.78247e+02   8.92601e-02 
   @DF-RHF iter   2:  -177.28038585288832    9.66623e-01   6.48760e-02 DIIS
   @DF-RHF iter   3:  -208.70799897949129   -3.14276e+01   5.25735e-02 DIIS
   @DF-RHF iter   4:  -229.85787191632463   -2.11499e+01   1.62260e-02 DIIS
   @DF-RHF iter   5:  -230.93131328367642   -1.07344e+00   4.01928e-03 DIIS
   @DF-RHF iter   6:  -230.99166313348130   -6.03498e-02   1.20847e-03 DIIS
   @DF-RHF iter   7:  -230.99660765016719   -4.94452e-03   5.54997e-04 DIIS
   @DF-RHF iter   8:  -230.99771116999287   -1.10352e-03   1.01116e-04 DIIS
   @DF-RHF iter   9:  -230.99778406490864   -7.28949e-05   4.65981e-05 DIIS
   @DF-RHF iter  10:  -230.99779673953444   -1.26746e-05   1.31027e-05 DIIS
   @DF-RHF iter  11:  -230.99779831241293   -1.57288e-06   4.31901e-06 DIIS
   @DF-RHF iter  12:  -230.99779853442860   -2.22016e-07   1.07048e-06 DIIS
   @DF-RHF iter  13:  -230.99779854807323   -1.36446e-08   2.49958e-07 DIIS
   @DF-RHF iter  14:  -230.99779854870044   -6.27210e-10   5.53299e-08 DIIS
   @DF-RHF iter  15:  -230.99779854873228   -3.18323e-11   1.48982e-08 DIIS
   @DF-RHF iter  16:  -230.99779854873421   -1.93268e-12   3.52311e-09 DIIS

  ==> Post-Iterations <==

    Orbital Energies (a.u.)
    -----------------------

    Doubly Occupied:                                                      

       1A    -20.551544     2A    -11.326960     3A    -11.234977  
       4A    -11.229151     5A    -11.214090     6A     -1.397117  
       7A     -1.061457     8A     -1.000334     9A     -0.878064  
      10A     -0.730098    11A     -0.659075    12A     -0.640513  
      13A     -0.622003    14A     -0.583087    15A     -0.570270  
      16A     -0.520321    17A     -0.511992    18A     -0.508451  
      19A     -0.485809    20A     -0.403340  

    Virtual:                                                              

      21A      0.169809    22A      0.222670    23A      0.264322  
      24A      0.301293    25A      0.305991    26A      0.312806  
      27A      0.326673    28A      0.329392    29A      0.350083  
      30A      0.393105    31A      0.410717    32A      0.478515  
      33A      0.507586    34A      0.689211    35A      0.735596  
      36A      0.759799    37A      0.763847    38A      0.820858  
      39A      0.828703    40A      0.847990    41A      0.902453  
      42A      0.992785    43A      1.014815    44A      1.022250  
      45A      1.038397    46A      1.111498    47A      1.116322  
      48A      1.123441    49A      1.165194    50A      1.187090  
      51A      1.188068    52A      1.207789    53A      1.213557  
      54A      1.232515    55A      1.258073    56A      1.322490  
      57A      1.341368    58A      1.409259    59A      1.650266  
      60A      1.668092    61A      1.705401    62A      1.788386  
      63A      1.848354    64A      1.966590    65A      2.066576  
      66A      2.072183    67A      2.107692    68A      2.173252  
      69A      2.195389    70A      2.226561    71A      2.290302  
      72A      2.290531    73A      2.422382    74A      2.426173  
      75A      2.521210    76A      2.590032    77A      2.638741  
      78A      2.670038    79A      2.678501    80A      2.765045  
      81A      2.854803    82A      2.911621    83A      2.974487  
      84A      3.163885    85A      3.371361    86A      3.403792  
      87A      4.394533    88A      4.536742    89A      4.674565  
      90A      4.801124    91A      4.925425  

    Final Occupation by Irrep:
              A 
    DOCC [    20 ]

  Energy converged.

  @DF-RHF Final Energy:  -230.99779854873421

   => Energetics <=

    Nuclear Repulsion Energy =            176.9621466522455364
    One-Electron Energy =                -663.6625830209623018
    Two-Electron Energy =                 255.7026378199828685
    DFT Exchange-Correlation Energy =       0.0000000000000000
    Empirical Dispersion Energy =           0.0000000000000000
    PCM Polarization Energy =               0.0000000000000000
    EFP Energy =                            0.0000000000000000
    Total Energy =                       -230.9977985487338685

    Alert: EFP and PCM quantities not currently incorporated into SCF psivars.

Properties will be evaluated at   0.000000,   0.000000,   0.000000 Bohr
  ==> Properties <==


Properties computed using the SCF density matrix

  Nuclear Dipole Moment: (a.u.)
     X:    -1.6622      Y:    -4.4736      Z:     0.0008

  Electronic Dipole Moment: (a.u.)
     X:     1.7594      Y:     3.2973      Z:    -0.0009

  Dipole Moment: (a.u.)
     X:     0.0971      Y:    -1.1763      Z:    -0.0001     Total:     1.1803

  Dipole Moment: (Debye)
     X:     0.2468      Y:    -2.9899      Z:    -0.0003     Total:     3.0000


  Saving occupied orbitals to File 180.

*** tstop() called on cx1-3-4-4.cx1.hpc.ic.ac.uk at Tue Jul  5 16:36:23 2016
Module time:
	user time   =       4.67 seconds =       0.08 minutes
	system time =       0.05 seconds =       0.00 minutes
	total time  =          5 seconds =       0.08 minutes
Total time:
	user time   =       4.67 seconds =       0.08 minutes
	system time =       0.05 seconds =       0.00 minutes
	total time  =          5 seconds =       0.08 minutes

*** tstart() called on cx1-3-4-4.cx1.hpc.ic.ac.uk
*** at Tue Jul  5 16:36:23 2016


         ------------------------------------------------------------
                                   SCF GRAD                          
                          Rob Parrish, Justin Turney,                
                       Andy Simmonett, and Alex Sokolov              
         ------------------------------------------------------------

  ==> Geometry <==

    Molecular point group: c1
    Full point group: C1

    Geometry (in Angstrom), charge = 0, multiplicity = 1:

       Center              X                  Y                   Z               Mass       
    ------------   -----------------  -----------------  -----------------  -----------------
           O          0.390984426547     1.298791639878    -0.000013986397    15.994914619560
           C          0.502984426547     0.111791639878    -0.000013986397    12.000000000000
           C         -0.702015573453    -0.812208360122    -0.000013986397    12.000000000000
           C          1.862984426547    -0.554208360122    -0.000013986397    12.000000000000
           C         -2.036015573453    -0.075208360122    -0.000013986397    12.000000000000
           H         -0.622015573453    -1.466208360122    -0.866013986397     1.007825032070
           H         -0.622015573453    -1.466208360122     0.865986013603     1.007825032070
           H         -2.130015573453     0.557791639878    -0.874013986397     1.007825032070
           H         -2.859015573453    -0.782208360122    -0.000013986397     1.007825032070
           H         -2.130015573453     0.557791639878     0.873986013603     1.007825032070
           H          1.974984426547    -1.189208360122    -0.874013986397     1.007825032070
           H          2.637984426547     0.198791639878    -0.000013986397     1.007825032070
           H          1.974984426547    -1.189208360122     0.874986013603     1.007825032070

  Nuclear repulsion =  176.962146652245536

  ==> Basis Set <==

  Basis Set: 6-31G*
    Number of shells: 46
    Number of basis function: 91
    Number of Cartesian functions: 91
    Spherical Harmonics?: false
    Max angular momentum: 2

  ==> DFJKGrad: Density-Fitted SCF Gradients <==

    Gradient:                    1
    J tasked:                  Yes
    K tasked:                  Yes
    wK tasked:                  No
    OpenMP threads:              1
    Integrals threads:           1
    Memory (MB):              1430
    Schwarz Cutoff:          0E+00
    Fitting Condition:       1E-12

   => Auxiliary Basis Set <=

  Basis Set: 
    Number of shells: 192
    Number of basis function: 605
    Number of Cartesian functions: 605
    Spherical Harmonics?: false
    Max angular momentum: 3


  -Total Gradient:
     Atom            X                  Y                   Z
    ------   -----------------  -----------------  -----------------
       1        0.000079734664    -0.000589083565    -0.000001939490
       2        0.000036713461     0.000677531060     0.000005314406
       3        0.000381015417    -0.000381685078    -0.000001788854
       4       -0.000201475233     0.000712622390    -0.000453607732
       5        0.000097245701    -0.000066766662     0.000000534482
       6       -0.000095206248     0.000126864112     0.000162076517
       7       -0.000094609506     0.000126061440    -0.000160537767
       8       -0.000071646775     0.000000107321    -0.000062224883
       9       -0.000055984850     0.000101886084    -0.000000010483
      10       -0.000071887545     0.000000262255     0.000062197083
      11        0.000096728856    -0.000047311638     0.000055726438
      12       -0.000251573211    -0.000293554892     0.000004492113
      13        0.000150945269    -0.000366932829     0.000389768170


*** tstop() called on cx1-3-4-4.cx1.hpc.ic.ac.uk at Tue Jul  5 16:36:29 2016
Module time:
	user time   =       5.75 seconds =       0.10 minutes
	system time =       0.03 seconds =       0.00 minutes
	total time  =          6 seconds =       0.10 minutes
Total time:
	user time   =      10.42 seconds =       0.17 minutes
	system time =       0.08 seconds =       0.00 minutes
	total time  =         11 seconds =       0.18 minutes
CURRENT ENERGY: -230.9977985487

			-----------------------------------------
			 OPTKING 2.0: for geometry optimizations 
			  - R.A. King,  Bethel University        
			-----------------------------------------

	Internal coordinates to be generated automatically.
	Detected frag with atoms:  1 2 3 4 5 6 7 8 9 10 11 12 13
	---Fragment 1 Bond Connectivity---
	 1 : 2
	 2 : 1 3 4
	 3 : 2 5 6 7
	 4 : 2 11 12 13
	 5 : 3 8 9 10
	 6 : 3
	 7 : 3
	 8 : 5
	 9 : 5
	 10 : 5
	 11 : 4
	 12 : 4
	 13 : 4

	---Fragment 1 Geometry and Gradient---
	 O           0.7388534884        2.4543605031       -0.0000264305
	 C           0.9505028153        0.2112555833       -0.0000264305
	 C          -1.3266171748       -1.5348513635       -0.0000264305
	 C           3.5205303560       -1.0473020212       -0.0000264305
	 C          -3.8475118361       -0.1421232035       -0.0000264305
	 H          -1.1754390842       -2.7707322544       -1.6365292615
	 H          -1.1754390842       -2.7707322544        1.6364764006
	 H          -4.0251460926        1.0540734386       -1.6516470706
	 H          -5.4027564435       -1.4781595795       -0.0000264305
	 H          -4.0251460926        1.0540734386        1.6515942097
	 H           3.7321796829       -2.2472781156       -1.6516470706
	 H           4.9850681090        0.3756617569       -0.0000264305
	 H           3.7321796829       -2.2472781156        1.6534839358
	             0.0000797347       -0.0005890836       -0.0000019395
	             0.0000367135        0.0006775311        0.0000053144
	             0.0003810154       -0.0003816851       -0.0000017889
	            -0.0002014752        0.0007126224       -0.0004536077
	             0.0000972457       -0.0000667667        0.0000005345
	            -0.0000952062        0.0001268641        0.0001620765
	            -0.0000946095        0.0001260614       -0.0001605378
	            -0.0000716468        0.0000001073       -0.0000622249
	            -0.0000559849        0.0001018861       -0.0000000105
	            -0.0000718875        0.0000002623        0.0000621971
	             0.0000967289       -0.0000473116        0.0000557264
	            -0.0002515732       -0.0002935549        0.0000044921
	             0.0001509453       -0.0003669328        0.0003897682

	Previous optimization step data not found.  Starting new optimization.

	---Fragment 1 Intrafragment Coordinates---
	 - Coordinate -           - BOHR/RAD -       - ANG/DEG -
	 R(1,2)           =         2.253068	       1.192272
	 R(2,3)           =         2.869523	       1.518487
	 R(2,4)           =         2.861644	       1.514317
	 R(3,5)           =         2.880035	       1.524049
	 R(3,6)           =         2.056307	       1.088151
	 R(3,7)           =         2.056307	       1.088151
	 R(4,11)          =         2.052459	       1.086115
	 R(4,12)          =         2.041984	       1.080571
	 R(4,13)          =         2.053980	       1.086920
	 R(5,8)           =         2.047020	       1.083236
	 R(5,9)           =         2.050312	       1.084978
	 R(5,10)          =         2.047020	       1.083236
	 B(1,2,3)         =         2.130889	     122.090956
	 B(1,2,4)         =         2.120252	     121.481478
	 B(2,3,5)         =         1.982682	     113.599331
	 B(2,3,6)         =         1.883234	     107.901375
	 B(2,3,7)         =         1.883234	     107.901375
	 B(2,4,11)        =         1.928093	     110.471598
	 B(2,4,12)        =         1.915213	     109.733619
	 B(2,4,13)        =         1.927817	     110.455760
	 B(3,2,4)         =         2.032044	     116.427566
	 B(3,5,8)         =         1.937501	     111.010614
	 B(3,5,9)         =         1.927126	     110.416200
	 B(3,5,10)        =         1.937501	     111.010614
	 B(5,3,6)         =         1.933703	     110.792994
	 B(5,3,7)         =         1.933703	     110.792994
	 B(6,3,7)         =         1.840806	     105.470401
	 B(8,5,9)         =         1.891211	     108.358414
	 B(8,5,10)        =         1.877572	     107.576943
	 B(9,5,10)        =         1.891211	     108.358414
	 B(11,4,12)       =         1.910766	     109.478830
	 B(11,4,13)       =         1.870897	     107.194512
	 B(12,4,13)       =         1.910504	     109.463824
	 D(1,2,3,5)       =         0.000000	       0.000000
	 D(1,2,3,6)       =         2.151029	     123.244885
	 D(1,2,3,7)       =        -2.151029	    -123.244885
	 D(1,2,4,11)      =        -2.108378	    -120.801146
	 D(1,2,4,12)      =         0.000000	       0.000000
	 D(1,2,4,13)      =         2.107875	     120.772336
	 D(2,3,5,8)       =         1.043768	      59.803516
	 D(2,3,5,9)       =         3.141593	     180.000000
	 D(2,3,5,10)      =        -1.043768	     -59.803516
	 D(3,2,4,11)      =         1.033215	      59.198854
	 D(3,2,4,12)      =         3.141593	     180.000000
	 D(3,2,4,13)      =        -1.033718	     -59.227664
	 D(4,2,3,5)       =         3.141593	     180.000000
	 D(4,2,3,6)       =        -0.990564	     -56.755115
	 D(4,2,3,7)       =         0.990564	      56.755115
	 D(6,3,5,8)       =        -1.079384	     -61.844121
	 D(6,3,5,9)       =         1.018441	      58.352363
	 D(6,3,5,10)      =         3.116265	     178.548847
	 D(7,3,5,8)       =        -3.116265	    -178.548847
	 D(7,3,5,9)       =        -1.018441	     -58.352363
	 D(7,3,5,10)      =         1.079384	      61.844121

	Current energy   :      -230.9977985487

	Generating empirical Hessian (Schlegel '84) for each fragment.
	Taking RFO optimization step.
	Going to follow RFO solution 1.
	Using RFO vector 1.
	Norm of target step-size    0.00360
	Projected energy change by RFO approximation:        -0.0000026866

	Back-transformation to cartesian coordinates...
	Successfully converged to displaced geometry.
	First geometry is closer to target in internal coordinates, so am using that one.
	First geometry has RMS(Delta(q)) = 9.51e-07

	--- Internal Coordinate Step in ANG or DEG, aJ/ANG or AJ/DEG ---
	 ---------------------------------------------------------------------------
	   Coordinate                Previous        Force       Change         New 
	   ----------                --------       ------       ------       ------
	    1 R(1,2)          =      1.192272     0.004894     0.000289     1.192561
	    2 R(2,3)          =      1.518487     0.000114     0.000024     1.518511
	    3 R(2,4)          =      1.514317     0.001537     0.000319     1.514636
	    4 R(3,5)          =      1.524049    -0.000879    -0.000188     1.523861
	    5 R(3,6)          =      1.088151     0.001749     0.000321     1.088472
	    6 R(3,7)          =      1.088151     0.001734     0.000318     1.088469
	    7 R(4,11)         =      1.086115     0.000059     0.000011     1.086126
	    8 R(4,12)         =      1.080571     0.003172     0.000567     1.081138
	    9 R(4,13)         =      1.086920    -0.004479    -0.000818     1.086102
	   10 R(5,8)          =      1.083236    -0.000465    -0.000084     1.083153
	   11 R(5,9)          =      1.084978     0.000197     0.000036     1.085014
	   12 R(5,10)         =      1.083236    -0.000466    -0.000084     1.083152
	   13 B(1,2,3)        =    122.090956    -0.000005    -0.016565   122.074391
	   14 B(1,2,4)        =    121.481478    -0.000001    -0.004149   121.477329
	   15 B(2,3,5)        =    113.599331     0.000006     0.021084   113.620415
	   16 B(2,3,6)        =    107.901375    -0.000006    -0.036816   107.864559
	   17 B(2,3,7)        =    107.901375    -0.000006    -0.036270   107.865105
	   18 B(2,4,11)       =    110.471598    -0.000011    -0.050042   110.421556
	   19 B(2,4,12)       =    109.733619     0.000000     0.000101   109.733720
	   20 B(2,4,13)       =    110.455760    -0.000010    -0.046038   110.409722
	   21 B(3,2,4)        =    116.427566     0.000007     0.020714   116.448280
	   22 B(3,5,8)        =    111.010614    -0.000003    -0.016268   110.994346
	   23 B(3,5,9)        =    110.416200    -0.000010    -0.038899   110.377301
	   24 B(3,5,10)       =    111.010614    -0.000003    -0.016473   110.994141
	   25 B(5,3,6)        =    110.792994     0.000003     0.028073   110.821067
	   26 B(5,3,7)        =    110.792994     0.000003     0.028323   110.821317
	   27 B(6,3,7)        =    105.470401    -0.000001    -0.009504   105.460897
	   28 B(8,5,9)        =    108.358414     0.000008     0.042371   108.400785
	   29 B(8,5,10)       =    107.576943     0.000001    -0.009484   107.567458
	   30 B(9,5,10)       =    108.358414     0.000008     0.042359   108.400773
	   31 B(11,4,12)      =    109.478830     0.000005     0.023344   109.502174
	   32 B(11,4,13)      =    107.194512     0.000010     0.048209   107.242721
	   33 B(12,4,13)      =    109.463824     0.000005     0.026319   109.490143
	   34 D(1,2,3,5)      =      0.000000     0.000000     0.005813     0.005813
	   35 D(1,2,3,6)      =    123.244885     0.000001     0.028945   123.273831
	   36 D(1,2,3,7)      =   -123.244885    -0.000001    -0.018042  -123.262927
	   37 D(1,2,4,11)     =   -120.801146     0.000000    -0.017884  -120.819029
	   38 D(1,2,4,12)     =      0.000000    -0.000000    -0.020790    -0.020790
	   39 D(1,2,4,13)     =    120.772336     0.000000    -0.017419   120.754917
	   40 D(2,3,5,8)      =     59.803516    -0.000000    -0.017225    59.786290
	   41 D(2,3,5,9)      =    180.000000    -0.000000     0.000000   180.000000
	   42 D(2,3,5,10)     =    -59.803516     0.000000     0.016298   -59.787218
	   43 D(3,2,4,11)     =     59.198854     0.000000    -0.013052    59.185802
	   44 D(3,2,4,12)     =    180.000000    -0.000000    -0.015959   179.984041
	   45 D(3,2,4,13)     =    -59.227664     0.000000    -0.012587   -59.240251
	   46 D(4,2,3,5)      =    180.000000     0.000000     0.000950   180.000950
	   47 D(4,2,3,6)      =    -56.755115     0.000001     0.024083   -56.731032
	   48 D(4,2,3,7)      =     56.755115    -0.000001    -0.022904    56.732210
	   49 D(6,3,5,8)      =    -61.844121     0.000000    -0.005254   -61.849375
	   50 D(6,3,5,9)      =     58.352363     0.000000     0.011582    58.363945
	   51 D(6,3,5,10)     =    178.548847     0.000001     0.028269   178.577117
	   52 D(7,3,5,8)      =   -178.548847    -0.000001    -0.028296  -178.577144
	   53 D(7,3,5,9)      =    -58.352363    -0.000000    -0.011460   -58.363823
	   54 D(7,3,5,10)     =     61.844121    -0.000000     0.005226    61.849348
	 ---------------------------------------------------------------------------

  ==> Convergence Check <==

  Measures of convergence in internal coordinates in au.
  Criteria marked as inactive (o), active & met (*), and active & unmet ( ).
  --------------------------------------------------------------------------------------------- ~
   Step     Total Energy     Delta E     MAX Force     RMS Force      MAX Disp      RMS Disp    ~
  --------------------------------------------------------------------------------------------- ~
    Convergence Criteria    1.00e-06 *    3.00e-04 *             o    1.20e-03 *             o  ~
  --------------------------------------------------------------------------------------------- ~
      1    -230.99779855   -2.31e+02      5.94e-04      1.42e-04 o    1.55e-03      4.90e-04 o  ~
  ---------------------------------------------------------------------------------------------

	Writing optimization data to binary file.
	Structure for next step:
	Cartesian Geometry (in Angstrom)
	    O     0.3909629131   1.2988862342   0.0002140028
	    C     0.5029345363   0.1115933013   0.0000863841
	    C    -0.7023949265  -0.8120165975   0.0000060266
	    C     1.8632384730  -0.5545122938   0.0001108879
	    C    -2.0362538626  -0.0751504174  -0.0000379086
	    H    -0.6217376126  -1.4661803927  -0.8662125428
	    H    -0.6218216158  -1.4662363702   0.8661867582
	    H    -2.1298206142   0.5579596430  -0.8739008507
	    H    -2.8587783423  -0.7827589695  -0.0001016295
	    H    -2.1299062041   0.5579013203   0.8738579046
	    H     1.9743277529  -1.1894225230  -0.8740845835
	    H     2.6386272760   0.1989014494  -0.0001146962
	    H     1.9744196378  -1.1886734329   0.8748084241
			--------------------------
			 OPTKING Finished Execution 
			--------------------------

    Structure for next step:
    Molecular point group: c1
    Full point group: C1

    Geometry (in Angstrom), charge = 0, multiplicity = 1:

    O            0.391030435827     1.298904994073     0.000132819663
    C            0.503002050447     0.111612151825     0.000005200954
    C           -0.702327320359    -0.811997676475    -0.000075156546
    C            1.863305883304    -0.554493392402     0.000029704801
    C           -2.036186154569    -0.075131552599    -0.000119091690
    H           -0.621670012581    -1.466161421725    -0.866293659734
    H           -0.621754015818    -1.466217399153     0.866105508938
    H           -2.129752899017     0.557978459403    -0.873981967111
    H           -2.858710571463    -0.782740050700    -0.000182812639
    H           -2.129838488858     0.557920136702     0.873776654724
    H            1.974395154631    -1.189403573135    -0.874165699838
    H            2.638694627037     0.198920293265    -0.000195879302
    H            1.974487039608    -1.188654483063     0.874727174151

gradient() will perform analytic gradient computation.

*** tstart() called on cx1-3-4-4.cx1.hpc.ic.ac.uk
*** at Tue Jul  5 16:36:29 2016


         ---------------------------------------------------------
                                   SCF
            by Justin Turney, Rob Parrish, and Andy Simmonett
                              RHF Reference
                        1 Threads,   2000 MiB Core
         ---------------------------------------------------------

  ==> Geometry <==

    Molecular point group: c1
    Full point group: C1

    Geometry (in Angstrom), charge = 0, multiplicity = 1:

       Center              X                  Y                   Z               Mass       
    ------------   -----------------  -----------------  -----------------  -----------------
           O          0.391030435827     1.298904994073     0.000132819663    15.994914619560
           C          0.503002050447     0.111612151825     0.000005200954    12.000000000000
           C         -0.702327320359    -0.811997676475    -0.000075156546    12.000000000000
           C          1.863305883304    -0.554493392402     0.000029704801    12.000000000000
           C         -2.036186154569    -0.075131552599    -0.000119091690    12.000000000000
           H         -0.621670012581    -1.466161421725    -0.866293659734     1.007825032070
           H         -0.621754015818    -1.466217399153     0.866105508938     1.007825032070
           H         -2.129752899017     0.557978459403    -0.873981967111     1.007825032070
           H         -2.858710571463    -0.782740050700    -0.000182812639     1.007825032070
           H         -2.129838488858     0.557920136702     0.873776654724     1.007825032070
           H          1.974395154631    -1.189403573135    -0.874165699838     1.007825032070
           H          2.638694627037     0.198920293265    -0.000195879302     1.007825032070
           H          1.974487039608    -1.188654483063     0.874727174151     1.007825032070

  Running in c1 symmetry.

  Rotational constants: A =      0.32550  B =      0.11997  C =      0.09206 [cm^-1]
  Rotational constants: A =   9758.12157  B =   3596.55594  C =   2759.78988 [MHz]
  Nuclear repulsion =  176.950095911249406

  Charge       = 0
  Multiplicity = 1
  Electrons    = 40
  Nalpha       = 20
  Nbeta        = 20

  ==> Algorithm <==

  SCF Algorithm Type is DF.
  DIIS enabled.
  MOM disabled.
  Fractional occupation disabled.
  Guess Type is READ.
  Energy threshold   = 1.00e-08
  Density threshold  = 1.00e-08
  Integral threshold = 0.00e+00

  ==> Primary Basis <==

  Basis Set: 6-31G*
    Number of shells: 46
    Number of basis function: 91
    Number of Cartesian functions: 91
    Spherical Harmonics?: false
    Max angular momentum: 2

  ==> Pre-Iterations <==

   -------------------------------------------------------
    Irrep   Nso     Nmo     Nalpha   Nbeta   Ndocc  Nsocc
   -------------------------------------------------------
     A         91      91       0       0       0       0
   -------------------------------------------------------
    Total      91      91      20      20      20       0
   -------------------------------------------------------

 OEINTS: Overlap, kinetic, potential, dipole, and quadrupole integrals
         stored in file 35.

  ==> Integral Setup <==

  ==> DFJK: Density-Fitted J/K Matrices <==

    J tasked:                  Yes
    K tasked:                  Yes
    wK tasked:                  No
    OpenMP threads:              1
    Integrals threads:           1
    Memory (MB):              1430
    Algorithm:                Core
    Integral Cache:           NONE
    Schwarz Cutoff:          1E-12
    Fitting Condition:       1E-12

   => Auxiliary Basis Set <=

  Basis Set: 
    Number of shells: 192
    Number of basis function: 605
    Number of Cartesian functions: 605
    Spherical Harmonics?: false
    Max angular momentum: 3

  Minimum eigenvalue in the overlap matrix is 3.9785493390E-03.
  Using Symmetric Orthogonalization.
  SCF Guess: Reading in previously saved MOs, projecting if necessary.

  Using orbitals from previous SCF, no projection.
  Recomputing DOCC and SOCC from number of alpha and beta electrons from previous calculation.
              A 
    DOCC [    20 ]

  ==> Iterations <==

                           Total Energy        Delta E     RMS |[F,P]|

   @DF-RHF iter   0:  -230.99734199993091   -2.30997e+02   2.27597e-05 
   @DF-RHF iter   1:  -230.99779996600202   -4.57966e-04   3.95090e-06 
   @DF-RHF iter   2:  -230.99780003702435   -7.10223e-08   1.49593e-06 DIIS
   @DF-RHF iter   3:  -230.99780004582973   -8.80539e-09   3.63164e-07 DIIS
   @DF-RHF iter   4:  -230.99780004676873   -9.38996e-10   1.47407e-07 DIIS
   @DF-RHF iter   5:  -230.99780004688759   -1.18860e-10   5.36157e-08 DIIS
   @DF-RHF iter   6:  -230.99780004690385   -1.62572e-11   1.20703e-08 DIIS
   @DF-RHF iter   7:  -230.99780004690561   -1.76215e-12   4.63413e-09 DIIS

  ==> Post-Iterations <==

    Orbital Energies (a.u.)
    -----------------------

    Doubly Occupied:                                                      

       1A    -20.551504     2A    -11.326985     3A    -11.235065  
       4A    -11.229183     5A    -11.214105     6A     -1.396882  
       7A     -1.061467     8A     -1.000342     9A     -0.878069  
      10A     -0.730005    11A     -0.658973    12A     -0.640504  
      13A     -0.621862    14A     -0.583219    15A     -0.570251  
      16A     -0.520349    17A     -0.512058    18A     -0.508462  
      19A     -0.485703    20A     -0.403297  

    Virtual:                                                              

      21A      0.169814    22A      0.222627    23A      0.264309  
      24A      0.301172    25A      0.305894    26A      0.312808  
      27A      0.326666    28A      0.329475    29A      0.350043  
      30A      0.392977    31A      0.410703    32A      0.478449  
      33A      0.507568    34A      0.689153    35A      0.735542  
      36A      0.759753    37A      0.763816    38A      0.820886  
      39A      0.828655    40A      0.847860    41A      0.902334  
      42A      0.992504    43A      1.014875    44A      1.022130  
      45A      1.038465    46A      1.111559    47A      1.116372  
      48A      1.123428    49A      1.165357    50A      1.186862  
      51A      1.188075    52A      1.207812    53A      1.213520  
      54A      1.232224    55A      1.258054    56A      1.322409  
      57A      1.341322    58A      1.409239    59A      1.650080  
      60A      1.668123    61A      1.705377    62A      1.788303  
      63A      1.848156    64A      1.966476    65A      2.066765  
      66A      2.072151    67A      2.107751    68A      2.173162  
      69A      2.195304    70A      2.226482    71A      2.290306  
      72A      2.290398    73A      2.422449    74A      2.426779  
      75A      2.520989    76A      2.590086    77A      2.638528  
      78A      2.670136    79A      2.678280    80A      2.764500  
      81A      2.854630    82A      2.911438    83A      2.974218  
      84A      3.163452    85A      3.371004    86A      3.403323  
      87A      4.394343    88A      4.536491    89A      4.674504  
      90A      4.801078    91A      4.925265  

    Final Occupation by Irrep:
              A 
    DOCC [    20 ]

  Energy converged.

  @DF-RHF Final Energy:  -230.99780004690561

   => Energetics <=

    Nuclear Repulsion Energy =            176.9500959112494058
    One-Electron Energy =                -663.6392243046543626
    Two-Electron Energy =                 255.6913283464994890
    DFT Exchange-Correlation Energy =       0.0000000000000000
    Empirical Dispersion Energy =           0.0000000000000000
    PCM Polarization Energy =               0.0000000000000000
    EFP Energy =                            0.0000000000000000
    Total Energy =                       -230.9978000469054962

    Alert: EFP and PCM quantities not currently incorporated into SCF psivars.

Properties will be evaluated at   0.000000,   0.000000,   0.000000 Bohr
  ==> Properties <==


Properties computed using the SCF density matrix

  Nuclear Dipole Moment: (a.u.)
     X:    -1.6613      Y:    -4.4733      Z:    -0.0002

  Electronic Dipole Moment: (a.u.)
     X:     1.7581      Y:     3.2966      Z:     0.0001

  Dipole Moment: (a.u.)
     X:     0.0968      Y:    -1.1767      Z:    -0.0000     Total:     1.1807

  Dipole Moment: (Debye)
     X:     0.2460      Y:    -2.9910      Z:    -0.0001     Total:     3.0011


  Saving occupied orbitals to File 180.

*** tstop() called on cx1-3-4-4.cx1.hpc.ic.ac.uk at Tue Jul  5 16:36:33 2016
Module time:
	user time   =       3.76 seconds =       0.06 minutes
	system time =       0.03 seconds =       0.00 minutes
	total time  =          4 seconds =       0.07 minutes
Total time:
	user time   =      14.28 seconds =       0.24 minutes
	system time =       0.12 seconds =       0.00 minutes
	total time  =         15 seconds =       0.25 minutes

*** tstart() called on cx1-3-4-4.cx1.hpc.ic.ac.uk
*** at Tue Jul  5 16:36:33 2016


         ------------------------------------------------------------
                                   SCF GRAD                          
                          Rob Parrish, Justin Turney,                
                       Andy Simmonett, and Alex Sokolov              
         ------------------------------------------------------------

  ==> Geometry <==

    Molecular point group: c1
    Full point group: C1

    Geometry (in Angstrom), charge = 0, multiplicity = 1:

       Center              X                  Y                   Z               Mass       
    ------------   -----------------  -----------------  -----------------  -----------------
           O          0.391030435827     1.298904994073     0.000132819663    15.994914619560
           C          0.503002050447     0.111612151825     0.000005200954    12.000000000000
           C         -0.702327320359    -0.811997676475    -0.000075156546    12.000000000000
           C          1.863305883304    -0.554493392402     0.000029704801    12.000000000000
           C         -2.036186154569    -0.075131552599    -0.000119091690    12.000000000000
           H         -0.621670012581    -1.466161421725    -0.866293659734     1.007825032070
           H         -0.621754015818    -1.466217399153     0.866105508938     1.007825032070
           H         -2.129752899017     0.557978459403    -0.873981967111     1.007825032070
           H         -2.858710571463    -0.782740050700    -0.000182812639     1.007825032070
           H         -2.129838488858     0.557920136702     0.873776654724     1.007825032070
           H          1.974395154631    -1.189403573135    -0.874165699838     1.007825032070
           H          2.638694627037     0.198920293265    -0.000195879302     1.007825032070
           H          1.974487039608    -1.188654483063     0.874727174151     1.007825032070

  Nuclear repulsion =  176.950095911249406

  ==> Basis Set <==

  Basis Set: 6-31G*
    Number of shells: 46
    Number of basis function: 91
    Number of Cartesian functions: 91
    Spherical Harmonics?: false
    Max angular momentum: 2

  ==> DFJKGrad: Density-Fitted SCF Gradients <==

    Gradient:                    1
    J tasked:                  Yes
    K tasked:                  Yes
    wK tasked:                  No
    OpenMP threads:              1
    Integrals threads:           1
    Memory (MB):              1430
    Schwarz Cutoff:          0E+00
    Fitting Condition:       1E-12

   => Auxiliary Basis Set <=

  Basis Set: 
    Number of shells: 192
    Number of basis function: 605
    Number of Cartesian functions: 605
    Spherical Harmonics?: false
    Max angular momentum: 3


  -Total Gradient:
     Atom            X                  Y                   Z
    ------   -----------------  -----------------  -----------------
       1        0.000013605488    -0.000061703758     0.000001828716
       2       -0.000003937997     0.000046360046     0.000000991873
       3       -0.000003721718    -0.000045017527     0.000005816871
       4       -0.000048458727     0.000040079255    -0.000003160357
       5        0.000017950347     0.000016577515    -0.000001518371
       6       -0.000001920658     0.000012850422    -0.000009482548
       7       -0.000003454021     0.000013580003     0.000007380105
       8       -0.000003895674     0.000001066609    -0.000001548158
       9       -0.000015247431    -0.000012355420     0.000000089485
      10       -0.000003539262     0.000000871950     0.000001772387
      11        0.000000941189    -0.000024312451     0.000006864390
      12        0.000051620546     0.000012535604     0.000011499027
      13        0.000000057919    -0.000000532250    -0.000020533420


*** tstop() called on cx1-3-4-4.cx1.hpc.ic.ac.uk at Tue Jul  5 16:36:39 2016
Module time:
	user time   =       5.72 seconds =       0.10 minutes
	system time =       0.03 seconds =       0.00 minutes
	total time  =          6 seconds =       0.10 minutes
Total time:
	user time   =      20.01 seconds =       0.33 minutes
	system time =       0.15 seconds =       0.00 minutes
	total time  =         21 seconds =       0.35 minutes
CURRENT ENERGY: -230.9978000469

			-----------------------------------------
			 OPTKING 2.0: for geometry optimizations 
			  - R.A. King,  Bethel University        
			-----------------------------------------

	Previous internal coordinate definitions found.
	---Fragment 1 Geometry and Gradient---
	 O           0.7389404333        2.4545747114        0.0002509928
	 C           0.9505361196        0.2109164001        0.0000098284
	 C          -1.3272062911       -1.5344532291       -0.0001420253
	 C           3.5211378212       -1.0478406541        0.0000561339
	 C          -3.8478341877       -0.1419780584       -0.0002250507
	 H          -1.1747860688       -2.7706435537       -1.6370577676
	 H          -1.1749448119       -2.7707493357        1.6367022141
	 H          -4.0246497099        1.0544264763       -1.6515865629
	 H          -5.4021800732       -1.4791643291       -0.0003454658
	 H          -4.0248114512        1.0543162624        1.6511985787
	 H           3.7310661203       -2.2476470147       -1.6519337675
	 H           4.9864101934        0.3759048765       -0.0003701582
	 H           3.7312397578       -2.2462314396        1.6529948001
	             0.0000136055       -0.0000617038        0.0000018287
	            -0.0000039380        0.0000463600        0.0000009919
	            -0.0000037217       -0.0000450175        0.0000058169
	            -0.0000484587        0.0000400793       -0.0000031604
	             0.0000179503        0.0000165775       -0.0000015184
	            -0.0000019207        0.0000128504       -0.0000094825
	            -0.0000034540        0.0000135800        0.0000073801
	            -0.0000038957        0.0000010666       -0.0000015482
	            -0.0000152474       -0.0000123554        0.0000000895
	            -0.0000035393        0.0000008720        0.0000017724
	             0.0000009412       -0.0000243125        0.0000068644
	             0.0000516205        0.0000125356        0.0000114990
	             0.0000000579       -0.0000005322       -0.0000205334

	---Fragment 1 Intrafragment Coordinates---
	 - Coordinate -           - BOHR/RAD -       - ANG/DEG -
	 R(1,2)           =         2.253614	       1.192561
	 R(2,3)           =         2.869569	       1.518511
	 R(2,4)           =         2.862248	       1.514636
	 R(3,5)           =         2.879679	       1.523861
	 R(3,6)           =         2.056913	       1.088472
	 R(3,7)           =         2.056908	       1.088469
	 R(4,11)          =         2.052480	       1.086126
	 R(4,12)          =         2.043055	       1.081138
	 R(4,13)          =         2.052435	       1.086102
	 R(5,8)           =         2.046862	       1.083153
	 R(5,9)           =         2.050380	       1.085014
	 R(5,10)          =         2.046861	       1.083152
	 B(1,2,3)         =         2.130600	     122.074391
	 B(1,2,4)         =         2.120179	     121.477329
	 B(2,3,5)         =         1.983050	     113.620415
	 B(2,3,6)         =         1.882592	     107.864559
	 B(2,3,7)         =         1.882601	     107.865105
	 B(2,4,11)        =         1.927220	     110.421556
	 B(2,4,12)        =         1.915215	     109.733720
	 B(2,4,13)        =         1.927013	     110.409722
	 B(3,2,4)         =         2.032406	     116.448280
	 B(3,5,8)         =         1.937217	     110.994346
	 B(3,5,9)         =         1.926447	     110.377301
	 B(3,5,10)        =         1.937213	     110.994141
	 B(5,3,6)         =         1.934192	     110.821067
	 B(5,3,7)         =         1.934197	     110.821317
	 B(6,3,7)         =         1.840640	     105.460897
	 B(8,5,9)         =         1.891951	     108.400785
	 B(8,5,10)        =         1.877406	     107.567458
	 B(9,5,10)        =         1.891950	     108.400773
	 B(11,4,12)       =         1.911173	     109.502174
	 B(11,4,13)       =         1.871739	     107.242721
	 B(12,4,13)       =         1.910963	     109.490143
	 D(1,2,3,5)       =         0.000101	       0.005813
	 D(1,2,3,6)       =         2.151534	     123.273831
	 D(1,2,3,7)       =        -2.151344	    -123.262927
	 D(1,2,4,11)      =        -2.108690	    -120.819029
	 D(1,2,4,12)      =        -0.000363	      -0.020790
	 D(1,2,4,13)      =         2.107571	     120.754917
	 D(2,3,5,8)       =         1.043468	      59.786290
	 D(2,3,5,9)       =         3.141593	     180.000000
	 D(2,3,5,10)      =        -1.043484	     -59.787218
	 D(3,2,4,11)      =         1.032987	      59.185802
	 D(3,2,4,12)      =         3.141314	     179.984041
	 D(3,2,4,13)      =        -1.033937	     -59.240251
	 D(4,2,3,5)       =        -3.141576	    -179.999050
	 D(4,2,3,6)       =        -0.990143	     -56.731032
	 D(4,2,3,7)       =         0.990164	      56.732210
	 D(6,3,5,8)       =        -1.079475	     -61.849375
	 D(6,3,5,9)       =         1.018643	      58.363945
	 D(6,3,5,10)      =         3.116759	     178.577117
	 D(7,3,5,8)       =        -3.116759	    -178.577144
	 D(7,3,5,9)       =        -1.018641	     -58.363823
	 D(7,3,5,10)      =         1.079475	      61.849348

	Current energy   :      -230.9978000469

	Energy change for the previous step:
		Projected    :        -0.0000026866
		Actual       :        -0.0000014982

	Performing BFGS update.
	Previous computed or guess Hessian on step 1.
	Steps to be used in Hessian update: 1
	Taking RFO optimization step.
	Going to follow RFO solution 1.
	Using RFO vector 1.
	Norm of target step-size    0.00100
	Projected energy change by RFO approximation:         0.0000000100

	Back-transformation to cartesian coordinates...
	Successfully converged to displaced geometry.

	--- Internal Coordinate Step in ANG or DEG, aJ/ANG or AJ/DEG ---
	 ---------------------------------------------------------------------------
	   Coordinate                Previous        Force       Change         New 
	   ----------                --------       ------       ------       ------
	    1 R(1,2)          =      1.192561     0.000517     0.000036     1.192597
	    2 R(2,3)          =      1.518511    -0.000153    -0.000032     1.518479
	    3 R(2,4)          =      1.514636     0.000070     0.000020     1.514657
	    4 R(3,5)          =      1.523861    -0.000059    -0.000016     1.523845
	    5 R(3,6)          =      1.088472     0.000003     0.000006     1.088478
	    6 R(3,7)          =      1.088469     0.000021     0.000010     1.088478
	    7 R(4,11)         =      1.086126    -0.000072    -0.000013     1.086113
	    8 R(4,12)         =      1.081138    -0.000377    -0.000057     1.081081
	    9 R(4,13)         =      1.086102     0.000134     0.000010     1.086112
	   10 R(5,8)          =      1.083153    -0.000018    -0.000005     1.083148
	   11 R(5,9)          =      1.085014    -0.000162    -0.000029     1.084986
	   12 R(5,10)         =      1.083152    -0.000019    -0.000005     1.083148
	   13 B(1,2,3)        =    122.074391    -0.000000    -0.001634   122.072757
	   14 B(1,2,4)        =    121.477329     0.000001     0.002604   121.479933
	   15 B(2,3,5)        =    113.620415    -0.000000     0.002177   113.622592
	   16 B(2,3,6)        =    107.864559     0.000000     0.001503   107.866062
	   17 B(2,3,7)        =    107.865105     0.000000    -0.000275   107.864830
	   18 B(2,4,11)       =    110.421556    -0.000000    -0.002365   110.419191
	   19 B(2,4,12)       =    109.733720    -0.000003    -0.019010   109.714710
	   20 B(2,4,13)       =    110.409722     0.000000     0.004584   110.414305
	   21 B(3,2,4)        =    116.448280    -0.000000    -0.000972   116.447308
	   22 B(3,5,8)        =    110.994346    -0.000000    -0.002062   110.992284
	   23 B(3,5,9)        =    110.377301     0.000000     0.000246   110.377546
	   24 B(3,5,10)       =    110.994141    -0.000000    -0.001868   110.992273
	   25 B(5,3,6)        =    110.821067     0.000000     0.003180   110.824247
	   26 B(5,3,7)        =    110.821317     0.000000     0.002317   110.823634
	   27 B(6,3,7)        =    105.460897    -0.000001    -0.009898   105.450999
	   28 B(8,5,9)        =    108.400785     0.000000     0.002181   108.402966
	   29 B(8,5,10)       =    107.567458     0.000000    -0.000253   107.567205
	   30 B(9,5,10)       =    108.400773     0.000000     0.001925   108.402698
	   31 B(11,4,12)      =    109.502174     0.000001    -0.003566   109.498608
	   32 B(11,4,13)      =    107.242721     0.000002     0.015186   107.257906
	   33 B(12,4,13)      =    109.490143     0.000001     0.005988   109.496131
	   34 D(1,2,3,5)      =      0.005813    -0.000000    -0.019817    -0.014004
	   35 D(1,2,3,6)      =    123.273831     0.000000    -0.013172   123.260658
	   36 D(1,2,3,7)      =   -123.262927    -0.000000    -0.024049  -123.286976
	   37 D(1,2,4,11)     =   -120.819029     0.000000     0.018748  -120.800281
	   38 D(1,2,4,12)     =     -0.020790    -0.000000     0.000501    -0.020289
	   39 D(1,2,4,13)     =    120.754917    -0.000000    -0.001416   120.753502
	   40 D(2,3,5,8)      =     59.786290    -0.000000    -0.000322    59.785969
	   41 D(2,3,5,9)      =    180.000000     0.000000     0.000841   180.000841
	   42 D(2,3,5,10)     =    -59.787218     0.000000     0.002587   -59.784631
	   43 D(3,2,4,11)     =     59.185802     0.000000     0.000624    59.186426
	   44 D(3,2,4,12)     =    179.984041    -0.000000    -0.017623   179.966418
	   45 D(3,2,4,13)     =    -59.240251    -0.000000    -0.019540   -59.259791
	   46 D(4,2,3,5)      =   -179.999050    -0.000000    -0.000950  -180.000000
	   47 D(4,2,3,6)      =    -56.731032     0.000000     0.005068   -56.725964
	   48 D(4,2,3,7)      =     56.732210    -0.000000    -0.005808    56.726402
	   49 D(6,3,5,8)      =    -61.849375    -0.000000    -0.006221   -61.855597
	   50 D(6,3,5,9)      =     58.363945    -0.000000    -0.004670    58.359275
	   51 D(6,3,5,10)     =    178.577117    -0.000000    -0.003313   178.573803
	   52 D(7,3,5,8)      =   -178.577144     0.000000     0.002612  -178.574532
	   53 D(7,3,5,9)      =    -58.363823     0.000000     0.004163   -58.359660
	   54 D(7,3,5,10)     =     61.849348     0.000000     0.005520    61.854868
	 ---------------------------------------------------------------------------

  ==> Convergence Check <==

  Measures of convergence in internal coordinates in au.
  Criteria marked as inactive (o), active & met (*), and active & unmet ( ).
  ---------------------------------------------------------------------------------------------
   Step     Total Energy     Delta E     MAX Force     RMS Force      MAX Disp      RMS Disp   
  ---------------------------------------------------------------------------------------------
    Convergence Criteria    1.00e-06 *    3.00e-04 *             o    1.20e-03 *             o
  ---------------------------------------------------------------------------------------------
      2    -230.99780005   -1.50e-06      6.27e-05 *    1.44e-05 o    4.20e-04 *    1.36e-04 o  ~
  ---------------------------------------------------------------------------------------------


  **** Optimization is complete! (in 2 steps) ****

  ==> Optimization Summary <==

  Measures of convergence in internal coordinates in au.
  --------------------------------------------------------------------------------------------------------------- ~
   Step         Total Energy             Delta E       MAX Force       RMS Force        MAX Disp        RMS Disp  ~
  --------------------------------------------------------------------------------------------------------------- ~
      1    -230.997798548734   -230.997798548734      0.00059397      0.00014179      0.00154516      0.00049041  ~
      2    -230.997800046906     -0.000001498171      0.00006271      0.00001441      0.00041974      0.00013618  ~
  --------------------------------------------------------------------------------------------------------------- ~

	Writing optimization data to binary file.
	Final energy is   -230.9978000469056
	Final (previous) structure:
	Cartesian Geometry (in Angstrom)
	    O     0.3910304657   1.2989050933   0.0001328197
	    C     0.5030020889   0.1116121603   0.0000052010
	    C    -0.7023273740  -0.8119977385  -0.0000751566
	    C     1.8633060256  -0.5544934347   0.0000297048
	    C    -2.0361863101  -0.0751315583  -0.0001190917
	    H    -0.6216700601  -1.4661615337  -0.8662937259
	    H    -0.6217540633  -1.4662175111   0.8661055751
	    H    -2.1297530617   0.5579785020  -0.8739820339
	    H    -2.8587107898  -0.7827401105  -0.0001828127
	    H    -2.1298386515   0.5579201793   0.8737767214
	    H     1.9743953054  -1.1894036640  -0.8741657666
	    H     2.6386948285   0.1989203085  -0.0001958793
	    H     1.9744871904  -1.1886545738   0.8747272409
	Saving final (previous) structure.
			--------------------------
			 OPTKING Finished Execution 
			--------------------------

    Final optimized geometry and variables:
    Molecular point group: c1
    Full point group: C1

    Geometry (in Angstrom), charge = 0, multiplicity = 1:

    O            0.391030435827     1.298904994073     0.000132819663
    C            0.503002050447     0.111612151825     0.000005200954
    C           -0.702327320359    -0.811997676475    -0.000075156546
    C            1.863305883304    -0.554493392402     0.000029704801
    C           -2.036186154569    -0.075131552599    -0.000119091690
    H           -0.621670012581    -1.466161421725    -0.866293659734
    H           -0.621754015818    -1.466217399153     0.866105508938
    H           -2.129752899017     0.557978459403    -0.873981967111
    H           -2.858710571463    -0.782740050700    -0.000182812639
    H           -2.129838488858     0.557920136702     0.873776654724
    H            1.974395154631    -1.189403573135    -0.874165699838
    H            2.638694627037     0.198920293265    -0.000195879302
    H            1.974487039608    -1.188654483063     0.874727174151

	Cleaning optimization helper files.


Properties will be evaluated at   0.000000,   0.000000,   0.000000 Bohr

Properties computed using the  density matrix

  Nuclear Dipole Moment: (a.u.)
     X:    -1.6613      Y:    -4.4733      Z:    -0.0002

  Electronic Dipole Moment: (a.u.)
     X:     1.7581      Y:     3.2966      Z:     0.0001

  Dipole Moment: (a.u.)
     X:     0.0968      Y:    -1.1767      Z:    -0.0000     Total:     1.1807

  Dipole Moment: (Debye)
     X:     0.2460      Y:    -2.9910      Z:    -0.0001     Total:     3.0011

  Quadrupole Moment: (Debye Ang)
    XX:   -30.2163     YY:   -35.2874     ZZ:   -30.5808
    XY:    -1.1403     XZ:     0.0002     YZ:    -0.0004

  Traceless Quadrupole Moment: (Debye Ang)
    XX:     1.8118     YY:    -3.2592     ZZ:     1.4474
    XY:    -1.1403     XZ:     0.0002     YZ:    -0.0004

  Mulliken Charges: (a.u.)
   Center  Symbol    Alpha    Beta     Spin     Total
       1     O     4.26017  4.26017  0.00000 -0.52033
       2     C     2.73685  2.73685  0.00000  0.52629
       3     C     3.20769  3.20769  0.00000 -0.41538
       4     C     3.28714  3.28714  0.00000 -0.57428
       5     C     3.23501  3.23501  0.00000 -0.47002
       6     H     0.40951  0.40951  0.00000  0.18098
       7     H     0.40950  0.40950  0.00000  0.18099
       8     H     0.41037  0.41037  0.00000  0.17925
       9     H     0.41995  0.41995  0.00000  0.16010
      10     H     0.41037  0.41037  0.00000  0.17926
      11     H     0.40860  0.40860  0.00000  0.18279
      12     H     0.39623  0.39623  0.00000  0.20754
      13     H     0.40860  0.40860  0.00000  0.18281

   Total alpha = 20.00000, Total beta = 20.00000, Total charge =  0.00000


*** PSI4 exiting successfully. Buy a developer a beer!
