    -----------------------------------------------------------------------
          Psi4: An Open-Source Ab Initio Electronic Structure Package
                              Psi4 (no tag) Driver

                          Git: Rev {detached?}  

    J. M. Turney, A. C. Simmonett, R. M. Parrish, E. G. Hohenstein,
    F. A. Evangelista, J. T. Fermann, B. J. Mintz, L. A. Burns, J. J. Wilke,
    M. L. Abrams, N. J. Russ, M. L. Leininger, C. L. Janssen, E. T. Seidl,
    W. D. Allen, H. F. Schaefer, R. A. King, E. F. Valeev, C. D. Sherrill,
    and T. D. Crawford, WIREs Comput. Mol. Sci. 2, 556-565 (2012)
    (doi: 10.1002/wcms.93)

                         Additional Contributions by
    A. E. DePrince, M. Saitow, U. Bozkaya, A. Yu. Sokolov
    -----------------------------------------------------------------------


    Psi4 started on: Tue Jul  5 16:19:47 2016

    Process ID:  32644
    PSI4DATADIR: /export131/home/mjharvey/miniconda3/share
    Memory level set to 256.000 MB

  ==> Input File <==

--------------------------------------------------------------------------
set {
	reference rhf
	basis 6-31G*
}


set_num_threads( 1 )
memory 2 gb

molecule MOL {
0 1

H	 3.311000	 0.170000	 -0.119000
N	 2.469000	 -0.372000	 -0.090000
C	 1.302000	 0.492000	 0.016000
H	 2.537000	 -0.970000	 0.711000
C	 0.019000	 -0.330000	 -0.037000
H	 1.323000	 1.179000	 -0.824000
H	 1.303000	 1.105000	 0.921000
C	 -1.248000	 0.525000	 0.039000
H	 0.022000	 -0.914000	 -0.952000
H	 0.019000	 -1.045000	 0.785000
C	 -2.529000	 -0.306000	 -0.015000
H	 -1.249000	 1.240000	 -0.780000
H	 -1.238000	 1.111000	 0.956000
H	 -2.587000	 -0.878000	 -0.937000
H	 -3.411000	 0.326000	 0.038000
H	 -2.576000	 -1.009000	 0.812000

	symmetry c1
}
ee = optimize('scf')
oeprop('DIPOLE', 'QUADRUPOLE', 'MULLIKEN_CHARGES')
f=open( 'psi4out.xyz', 'w' )
f.write( "16  " )
f.write( str(ee) + "\n" )
f.write( MOL.save_string_xyz() )
f.close()
--------------------------------------------------------------------------

  Memory set to   2.000 GiB by Python script.
gradient() will perform analytic gradient computation.

*** tstart() called on cx1-3-16-4.cx1.hpc.ic.ac.uk
*** at Tue Jul  5 16:19:48 2016


         ---------------------------------------------------------
                                   SCF
            by Justin Turney, Rob Parrish, and Andy Simmonett
                              RHF Reference
                        1 Threads,   2000 MiB Core
         ---------------------------------------------------------

  ==> Geometry <==

    Molecular point group: c1
    Full point group: C1

    Geometry (in Angstrom), charge = 0, multiplicity = 1:

       Center              X                  Y                   Z               Mass       
    ------------   -----------------  -----------------  -----------------  -----------------
           H          3.276307200748     0.174373818104    -0.110674611469     1.007825032070
           N          2.434307200748    -0.367626181896    -0.081674611469    14.003074004780
           C          1.267307200748     0.496373818104     0.024325388531    12.000000000000
           H          2.502307200748    -0.965626181896     0.719325388531     1.007825032070
           C         -0.015692799252    -0.325626181896    -0.028674611469    12.000000000000
           H          1.288307200748     1.183373818104    -0.815674611469     1.007825032070
           H          1.268307200748     1.109373818104     0.929325388531     1.007825032070
           C         -1.282692799252     0.529373818104     0.047325388531    12.000000000000
           H         -0.012692799252    -0.909626181896    -0.943674611469     1.007825032070
           H         -0.015692799252    -1.040626181896     0.793325388531     1.007825032070
           C         -2.563692799252    -0.301626181896    -0.006674611469    12.000000000000
           H         -1.283692799252     1.244373818104    -0.771674611469     1.007825032070
           H         -1.272692799252     1.115373818104     0.964325388531     1.007825032070
           H         -2.621692799252    -0.873626181896    -0.928674611469     1.007825032070
           H         -3.445692799252     0.330373818104     0.046325388531     1.007825032070
           H         -2.610692799252    -1.004626181896     0.820325388531     1.007825032070

  Running in c1 symmetry.

  Rotational constants: A =      0.60988  B =      0.06555  C =      0.06216 [cm^-1]
  Rotational constants: A =  18283.79492  B =   1965.09603  C =   1863.43826 [MHz]
  Nuclear repulsion =  186.257934815405207

  Charge       = 0
  Multiplicity = 1
  Electrons    = 42
  Nalpha       = 21
  Nbeta        = 21

  ==> Algorithm <==

  SCF Algorithm Type is DF.
  DIIS enabled.
  MOM disabled.
  Fractional occupation disabled.
  Guess Type is CORE.
  Energy threshold   = 1.00e-08
  Density threshold  = 1.00e-08
  Integral threshold = 0.00e+00

  ==> Primary Basis <==

  Basis Set: 6-31G*
    Number of shells: 52
    Number of basis function: 97
    Number of Cartesian functions: 97
    Spherical Harmonics?: false
    Max angular momentum: 2

  ==> Pre-Iterations <==

   -------------------------------------------------------
    Irrep   Nso     Nmo     Nalpha   Nbeta   Ndocc  Nsocc
   -------------------------------------------------------
     A         97      97       0       0       0       0
   -------------------------------------------------------
    Total      97      97      21      21      21       0
   -------------------------------------------------------

 OEINTS: Overlap, kinetic, potential, dipole, and quadrupole integrals
         stored in file 35.

  ==> Integral Setup <==

  ==> DFJK: Density-Fitted J/K Matrices <==

    J tasked:                  Yes
    K tasked:                  Yes
    wK tasked:                  No
    OpenMP threads:              1
    Integrals threads:           1
    Memory (MB):              1430
    Algorithm:                Core
    Integral Cache:           NONE
    Schwarz Cutoff:          1E-12
    Fitting Condition:       1E-12

   => Auxiliary Basis Set <=

  Basis Set: 
    Number of shells: 219
    Number of basis function: 680
    Number of Cartesian functions: 680
    Spherical Harmonics?: false
    Max angular momentum: 3

  Minimum eigenvalue in the overlap matrix is 3.6092188090E-03.
  Using Symmetric Orthogonalization.
  SCF Guess: Core (One-Electron) Hamiltonian.

  ==> Iterations <==

                           Total Energy        Delta E     RMS |[F,P]|

   @DF-RHF iter   1:  -160.59777277027874   -1.60598e+02   7.86610e-02 
   @DF-RHF iter   2:   -84.68326681759854    7.59145e+01   9.35271e-02 DIIS
   @DF-RHF iter   3:  -174.95463985232405   -9.02714e+01   4.53295e-02 DIIS
   @DF-RHF iter   4:  -145.91740736932920    2.90372e+01   7.50661e-02 DIIS
   @DF-RHF iter   5:  -187.88035877867671   -4.19630e+01   4.40945e-02 DIIS
   @DF-RHF iter   6:  -212.01473694408642   -2.41344e+01   7.56933e-03 DIIS
   @DF-RHF iter   7:  -212.27083511571797   -2.56098e-01   3.18342e-03 DIIS
   @DF-RHF iter   8:  -212.31235426974777   -4.15192e-02   7.62226e-04 DIIS
   @DF-RHF iter   9:  -212.31635470458158   -4.00043e-03   2.72467e-04 DIIS
   @DF-RHF iter  10:  -212.31697007823189   -6.15374e-04   7.78065e-05 DIIS
   @DF-RHF iter  11:  -212.31701223531851   -4.21571e-05   3.28305e-05 DIIS
   @DF-RHF iter  12:  -212.31702012975884   -7.89444e-06   8.40488e-06 DIIS
   @DF-RHF iter  13:  -212.31702063828217   -5.08523e-07   1.77716e-06 DIIS
   @DF-RHF iter  14:  -212.31702066531179   -2.70296e-08   5.23556e-07 DIIS
   @DF-RHF iter  15:  -212.31702066768011   -2.36832e-09   1.41156e-07 DIIS
   @DF-RHF iter  16:  -212.31702066788463   -2.04523e-10   2.53647e-08 DIIS
   @DF-RHF iter  17:  -212.31702066789197   -7.33280e-12   5.47255e-09 DIIS

  ==> Post-Iterations <==

    Orbital Energies (a.u.)
    -----------------------

    Doubly Occupied:                                                      

       1A    -15.532543     2A    -11.239849     3A    -11.215059  
       4A    -11.209611     5A    -11.208019     6A     -1.176766  
       7A     -1.059448     8A     -0.958707     9A     -0.843617  
      10A     -0.792188    11A     -0.664262    12A     -0.637118  
      13A     -0.605634    14A     -0.575200    15A     -0.564519  
      16A     -0.525399    17A     -0.500285    18A     -0.470304  
      19A     -0.464860    20A     -0.461601    21A     -0.381138  

    Virtual:                                                              

      22A      0.228459    23A      0.240529    24A      0.273446  
      25A      0.282276    26A      0.294578    27A      0.322116  
      28A      0.335006    29A      0.346578    30A      0.350166  
      31A      0.355115    32A      0.365159    33A      0.398104  
      34A      0.429364    35A      0.445722    36A      0.488984  
      37A      0.712350    38A      0.733645    39A      0.747434  
      40A      0.753518    41A      0.786679    42A      0.846882  
      43A      0.885381    44A      0.929130    45A      0.950245  
      46A      1.006145    47A      1.010033    48A      1.024997  
      49A      1.055898    50A      1.109871    51A      1.137898  
      52A      1.161339    53A      1.177564    54A      1.193845  
      55A      1.203293    56A      1.214719    57A      1.223893  
      58A      1.231575    59A      1.237184    60A      1.264675  
      61A      1.271005    62A      1.327284    63A      1.349734  
      64A      1.558921    65A      1.644756    66A      1.718353  
      67A      1.732923    68A      1.748078    69A      1.843157  
      70A      1.990096    71A      2.076675    72A      2.091903  
      73A      2.208124    74A      2.232199    75A      2.265270  
      76A      2.289723    77A      2.330703    78A      2.342115  
      79A      2.368131    80A      2.436582    81A      2.550617  
      82A      2.612542    83A      2.628682    84A      2.666201  
      85A      2.752671    86A      2.756030    87A      2.793333  
      88A      2.863472    89A      2.925584    90A      2.975839  
      91A      3.125855    92A      3.171440    93A      4.218999  
      94A      4.585431    95A      4.706273    96A      4.815963  
      97A      4.964596  

    Final Occupation by Irrep:
              A 
    DOCC [    21 ]

  Energy converged.

  @DF-RHF Final Energy:  -212.31702066789197

   => Energetics <=

    Nuclear Repulsion Energy =            186.2579348154052070
    One-Electron Energy =                -654.9776626121403069
    Two-Electron Energy =                 256.4027071288429624
    DFT Exchange-Correlation Energy =       0.0000000000000000
    Empirical Dispersion Energy =           0.0000000000000000
    PCM Polarization Energy =               0.0000000000000000
    EFP Energy =                            0.0000000000000000
    Total Energy =                       -212.3170206678921659

    Alert: EFP and PCM quantities not currently incorporated into SCF psivars.

Properties will be evaluated at   0.000000,   0.000000,   0.000000 Bohr
  ==> Properties <==


Properties computed using the SCF density matrix

  Nuclear Dipole Moment: (a.u.)
     X:    -2.7516      Y:     0.3415      Z:     0.6589

  Electronic Dipole Moment: (a.u.)
     X:     2.8307      Y:    -0.0364      Z:    -0.1948

  Dipole Moment: (a.u.)
     X:     0.0791      Y:     0.3051      Z:     0.4641     Total:     0.5610

  Dipole Moment: (Debye)
     X:     0.2011      Y:     0.7755      Z:     1.1796     Total:     1.4259


  Saving occupied orbitals to File 180.

*** tstop() called on cx1-3-16-4.cx1.hpc.ic.ac.uk at Tue Jul  5 16:19:55 2016
Module time:
	user time   =       7.20 seconds =       0.12 minutes
	system time =       0.06 seconds =       0.00 minutes
	total time  =          7 seconds =       0.12 minutes
Total time:
	user time   =       7.20 seconds =       0.12 minutes
	system time =       0.06 seconds =       0.00 minutes
	total time  =          7 seconds =       0.12 minutes

*** tstart() called on cx1-3-16-4.cx1.hpc.ic.ac.uk
*** at Tue Jul  5 16:19:55 2016


         ------------------------------------------------------------
                                   SCF GRAD                          
                          Rob Parrish, Justin Turney,                
                       Andy Simmonett, and Alex Sokolov              
         ------------------------------------------------------------

  ==> Geometry <==

    Molecular point group: c1
    Full point group: C1

    Geometry (in Angstrom), charge = 0, multiplicity = 1:

       Center              X                  Y                   Z               Mass       
    ------------   -----------------  -----------------  -----------------  -----------------
           H          3.276307200748     0.174373818104    -0.110674611469     1.007825032070
           N          2.434307200748    -0.367626181896    -0.081674611469    14.003074004780
           C          1.267307200748     0.496373818104     0.024325388531    12.000000000000
           H          2.502307200748    -0.965626181896     0.719325388531     1.007825032070
           C         -0.015692799252    -0.325626181896    -0.028674611469    12.000000000000
           H          1.288307200748     1.183373818104    -0.815674611469     1.007825032070
           H          1.268307200748     1.109373818104     0.929325388531     1.007825032070
           C         -1.282692799252     0.529373818104     0.047325388531    12.000000000000
           H         -0.012692799252    -0.909626181896    -0.943674611469     1.007825032070
           H         -0.015692799252    -1.040626181896     0.793325388531     1.007825032070
           C         -2.563692799252    -0.301626181896    -0.006674611469    12.000000000000
           H         -1.283692799252     1.244373818104    -0.771674611469     1.007825032070
           H         -1.272692799252     1.115373818104     0.964325388531     1.007825032070
           H         -2.621692799252    -0.873626181896    -0.928674611469     1.007825032070
           H         -3.445692799252     0.330373818104     0.046325388531     1.007825032070
           H         -2.610692799252    -1.004626181896     0.820325388531     1.007825032070

  Nuclear repulsion =  186.257934815405207

  ==> Basis Set <==

  Basis Set: 6-31G*
    Number of shells: 52
    Number of basis function: 97
    Number of Cartesian functions: 97
    Spherical Harmonics?: false
    Max angular momentum: 2

  ==> DFJKGrad: Density-Fitted SCF Gradients <==

    Gradient:                    1
    J tasked:                  Yes
    K tasked:                  Yes
    wK tasked:                  No
    OpenMP threads:              1
    Integrals threads:           1
    Memory (MB):              1430
    Schwarz Cutoff:          0E+00
    Fitting Condition:       1E-12

   => Auxiliary Basis Set <=

  Basis Set: 
    Number of shells: 219
    Number of basis function: 680
    Number of Cartesian functions: 680
    Spherical Harmonics?: false
    Max angular momentum: 3


  -Total Gradient:
     Atom            X                  Y                   Z
    ------   -----------------  -----------------  -----------------
       1        0.000039092163     0.000003598098    -0.000012611472
       2        0.000023140074    -0.000269150856     0.000427858741
       3       -0.000254623019     0.000037741166    -0.000352711020
       4       -0.000040960492     0.000271832432    -0.000385667223
       5        0.000607790062    -0.000734287503    -0.000483240016
       6        0.000020051256    -0.000145472894     0.000290817942
       7        0.000069310561     0.000109156345     0.000059428928
       8       -0.000586812229     0.000637878903    -0.000381748951
       9       -0.000001917448     0.000231106974     0.000463095921
      10       -0.000041611486     0.000122585494    -0.000151517822
      11        0.000775927478    -0.000002879849     0.000189097253
      12        0.000016463811    -0.000414818287     0.000419335327
      13       -0.000068126348     0.000098682526     0.000117863255
      14       -0.000108598482    -0.000162587362    -0.000212198890
      15       -0.000393487877     0.000262668743     0.000000163617
      16       -0.000055638025    -0.000046053927     0.000012034410


*** tstop() called on cx1-3-16-4.cx1.hpc.ic.ac.uk at Tue Jul  5 16:20:04 2016
Module time:
	user time   =       8.11 seconds =       0.14 minutes
	system time =       0.06 seconds =       0.00 minutes
	total time  =          9 seconds =       0.15 minutes
Total time:
	user time   =      15.31 seconds =       0.26 minutes
	system time =       0.12 seconds =       0.00 minutes
	total time  =         16 seconds =       0.27 minutes
CURRENT ENERGY: -212.3170206679

			-----------------------------------------
			 OPTKING 2.0: for geometry optimizations 
			  - R.A. King,  Bethel University        
			-----------------------------------------

	Internal coordinates to be generated automatically.
	Detected frag with atoms:  1 2 3 4 5 6 7 8 9 10 11 12 13 14 15 16
	---Fragment 1 Bond Connectivity---
	 1 : 2
	 2 : 1 3 4
	 3 : 2 5 6 7
	 4 : 2
	 5 : 3 8 9 10
	 6 : 3
	 7 : 3
	 8 : 5 11 12 13
	 9 : 5
	 10 : 5
	 11 : 8 14 15 16
	 12 : 8
	 13 : 8
	 14 : 11
	 15 : 11
	 16 : 11

	---Fragment 1 Geometry and Gradient---
	 H           6.1913233366        0.3295187610       -0.2091447055
	 N           4.6001739327       -0.6947128031       -0.1543426477
	 C           2.3948635356        0.9380105758        0.0459683224
	 H           4.7286753098       -1.8247690305        1.3593279848
	 C          -0.0296550928       -0.6153443055       -0.0541871626
	 H           2.4345477844        2.2362524290       -1.5414016292
	 H           2.3967532618        2.0964126952        1.7561704727
	 C          -2.4239381032        1.0003715381        0.0894320235
	 H          -0.0239859144       -1.7189443671       -1.7832865742
	 H          -0.0296550928       -1.9664984905        1.4991677186
	 C          -4.8446772794       -0.5699908783       -0.0126131877
	 H          -2.4258278293        2.3515257232       -1.4582536794
	 H          -2.4050408419        2.1077510520        1.8223108873
	 H          -4.9542813951       -1.6509142263       -1.7549406822
	 H          -6.5114157286        0.6243160377        0.0875422973
	 H          -4.9334944077       -1.8984683497        1.5501903242
	             0.0000390922        0.0000035981       -0.0000126115
	             0.0000231401       -0.0002691509        0.0004278587
	            -0.0002546230        0.0000377412       -0.0003527110
	            -0.0000409605        0.0002718324       -0.0003856672
	             0.0006077901       -0.0007342875       -0.0004832400
	             0.0000200513       -0.0001454729        0.0002908179
	             0.0000693106        0.0001091563        0.0000594289
	            -0.0005868122        0.0006378789       -0.0003817490
	            -0.0000019174        0.0002311070        0.0004630959
	            -0.0000416115        0.0001225855       -0.0001515178
	             0.0007759275       -0.0000028798        0.0001890973
	             0.0000164638       -0.0004148183        0.0004193353
	            -0.0000681263        0.0000986825        0.0001178633
	            -0.0001085985       -0.0001625874       -0.0002121989
	            -0.0003934879        0.0002626687        0.0000001636
	            -0.0000556380       -0.0000460539        0.0000120344

	Previous optimization step data not found.  Starting new optimization.

	---Fragment 1 Intrafragment Coordinates---
	 - Coordinate -           - BOHR/RAD -       - ANG/DEG -
	 R(1,2)           =         1.893095	       1.001783
	 R(2,3)           =         2.751237	       1.455892
	 R(2,4)           =         1.893341	       1.001913
	 R(3,5)           =         2.881186	       1.524658
	 R(3,6)           =         2.051036	       1.085362
	 R(3,7)           =         2.065597	       1.093067
	 R(5,8)           =         2.892016	       1.530389
	 R(5,9)           =         2.051280	       1.085491
	 R(5,10)          =         2.058769	       1.089454
	 R(8,11)          =         2.887288	       1.527887
	 R(8,12)          =         2.054496	       1.087192
	 R(8,13)          =         2.056579	       1.088295
	 R(11,14)         =         2.053318	       1.086569
	 R(11,15)         =         2.052905	       1.086350
	 R(11,16)         =         2.053070	       1.086438
	 B(1,2,3)         =         1.933444	     110.778188
	 B(1,2,4)         =         1.863999	     106.799289
	 B(2,3,5)         =         1.930545	     110.612107
	 B(2,3,6)         =         1.879452	     107.684674
	 B(2,3,7)         =         1.973991	     113.101363
	 B(3,2,4)         =         1.928796	     110.511857
	 B(3,5,8)         =         1.975494	     113.187461
	 B(3,5,9)         =         1.893398	     108.483724
	 B(3,5,10)        =         1.904562	     109.123388
	 B(5,3,6)         =         1.907773	     109.307337
	 B(5,3,7)         =         1.909117	     109.384323
	 B(5,8,11)        =         1.969801	     112.861294
	 B(5,8,12)        =         1.907918	     109.315663
	 B(5,8,13)        =         1.912468	     109.576367
	 B(6,3,7)         =         1.860622	     106.605800
	 B(8,5,9)         =         1.922740	     110.164861
	 B(8,5,10)        =         1.906241	     109.219569
	 B(8,11,14)       =         1.940202	     111.165408
	 B(8,11,15)       =         1.941812	     111.257630
	 B(8,11,16)       =         1.940458	     111.180079
	 B(9,5,10)        =         1.857626	     106.434111
	 B(11,8,12)       =         1.907414	     109.286783
	 B(11,8,13)       =         1.907465	     109.289694
	 B(12,8,13)       =         1.855252	     106.298095
	 B(14,11,15)      =         1.880018	     107.717072
	 B(14,11,16)      =         1.878603	     107.636030
	 B(15,11,16)      =         1.879876	     107.708937
	 D(1,2,3,5)       =         3.073507	     176.098951
	 D(1,2,3,6)       =         0.989825	      56.712798
	 D(1,2,3,7)       =        -1.061355	     -60.811136
	 D(2,3,5,8)       =        -3.119561	    -178.737699
	 D(2,3,5,9)       =        -0.979991	     -56.149350
	 D(2,3,5,10)      =         1.037106	      59.421786
	 D(3,5,8,11)      =         3.141387	     179.988194
	 D(3,5,8,12)      =         1.014802	      58.143847
	 D(3,5,8,13)      =        -1.011886	     -57.976823
	 D(4,2,3,5)       =        -1.147322	     -65.736681
	 D(4,2,3,6)       =         3.052182	     174.877166
	 D(4,2,3,7)       =         1.001003	      57.353232
	 D(5,8,11,14)     =        -1.043591	     -59.793374
	 D(5,8,11,15)     =        -3.138888	    -179.845036
	 D(5,8,11,16)     =         1.049008	      60.103723
	 D(6,3,5,8)       =        -1.053046	     -60.335114
	 D(6,3,5,9)       =         1.086524	      62.253235
	 D(6,3,5,10)      =         3.103621	     177.824371
	 D(7,3,5,8)       =         0.978120	      56.042125
	 D(7,3,5,9)       =         3.117690	     178.630474
	 D(7,3,5,10)      =        -1.148399	     -65.798390
	 D(9,5,8,11)      =         1.018208	      58.338993
	 D(9,5,8,12)      =        -1.108378	     -63.505355
	 D(9,5,8,13)      =        -3.135066	    -179.626025
	 D(10,5,8,11)     =        -1.016221	     -58.225196
	 D(10,5,8,12)     =         3.140379	     179.930457
	 D(10,5,8,13)     =         1.113691	      63.809787
	 D(12,8,11,14)    =         1.083278	      62.067254
	 D(12,8,11,15)    =        -1.012019	     -57.984409
	 D(12,8,11,16)    =        -3.107308	    -178.035650
	 D(13,8,11,14)    =         3.106870	     178.010511
	 D(13,8,11,15)    =         1.011573	      57.958849
	 D(13,8,11,16)    =        -1.083717	     -62.092392

	Current energy   :      -212.3170206679

	Generating empirical Hessian (Schlegel '84) for each fragment.
	Taking RFO optimization step.
	Going to follow RFO solution 1.
	Using RFO vector 1.
	Norm of target step-size    0.00853
	Projected energy change by RFO approximation:        -0.0000009058

	Back-transformation to cartesian coordinates...
	Successfully converged to displaced geometry.

	--- Internal Coordinate Step in ANG or DEG, aJ/ANG or AJ/DEG ---
	 ---------------------------------------------------------------------------
	   Coordinate                Previous        Force       Change         New 
	   ----------                --------       ------       ------       ------
	    1 R(1,2)          =      1.001783    -0.000290    -0.000039     1.001744
	    2 R(2,3)          =      1.455892    -0.000092    -0.000016     1.455876
	    3 R(2,4)          =      1.001913     0.003900     0.000529     1.002442
	    4 R(3,5)          =      1.524658     0.000956     0.000205     1.524863
	    5 R(3,6)          =      1.085362     0.002610     0.000474     1.085836
	    6 R(3,7)          =      1.093067    -0.000910    -0.000170     1.092897
	    7 R(5,8)          =      1.530389    -0.004642    -0.001015     1.529374
	    8 R(5,9)          =      1.085491     0.004240     0.000771     1.086261
	    9 R(5,10)         =      1.089454     0.001605     0.000296     1.089749
	   10 R(8,11)         =      1.527887     0.001733     0.000376     1.528263
	   11 R(8,12)         =      1.087192     0.004850     0.000887     1.088079
	   12 R(8,13)         =      1.088295    -0.001251    -0.000229     1.088065
	   13 R(11,14)        =      1.086569    -0.002236    -0.000408     1.086161
	   14 R(11,15)        =      1.086350    -0.003891    -0.000709     1.085641
	   15 R(11,16)        =      1.086438    -0.000341    -0.000062     1.086376
	   16 B(1,2,3)        =    110.778188    -0.000003    -0.017359   110.760829
	   17 B(1,2,4)        =    106.799289     0.000000    -0.009027   106.790262
	   18 B(2,3,5)        =    110.612107     0.000003     0.005071   110.617178
	   19 B(2,3,6)        =    107.684674    -0.000001    -0.006062   107.678612
	   20 B(2,3,7)        =    113.101363     0.000002     0.023581   113.124943
	   21 B(3,2,4)        =    110.511857     0.000000    -0.004441   110.507416
	   22 B(3,5,8)        =    113.187461     0.000006     0.019771   113.207232
	   23 B(3,5,9)        =    108.483724    -0.000003    -0.029693   108.454031
	   24 B(3,5,10)       =    109.123388    -0.000004    -0.005135   109.118253
	   25 B(5,3,6)        =    109.307337    -0.000003    -0.026958   109.280379
	   26 B(5,3,7)        =    109.384323    -0.000006    -0.032271   109.352051
	   27 B(5,8,11)       =    112.861294     0.000006     0.023571   112.884865
	   28 B(5,8,12)       =    109.315663     0.000001     0.023058   109.338722
	   29 B(5,8,13)       =    109.576367    -0.000007    -0.053037   109.523330
	   30 B(6,3,7)        =    106.605800     0.000004     0.036448   106.642248
	   31 B(8,5,9)        =    110.164861    -0.000003    -0.028402   110.136459
	   32 B(8,5,10)       =    109.219569     0.000001     0.028496   109.248065
	   33 B(8,11,14)      =    111.165408    -0.000009    -0.044486   111.120923
	   34 B(8,11,15)      =    111.257630     0.000001     0.013332   111.270962
	   35 B(8,11,16)      =    111.180079    -0.000005    -0.028597   111.151482
	   36 B(9,5,10)       =    106.434111     0.000002     0.014556   106.448667
	   37 B(11,8,12)      =    109.286783    -0.000003     0.007997   109.294781
	   38 B(11,8,13)      =    109.289694     0.000002     0.006193   109.295887
	   39 B(12,8,13)      =    106.298095     0.000001    -0.009665   106.288430
	   40 B(14,11,15)     =    107.717072     0.000005     0.033550   107.750622
	   41 B(14,11,16)     =    107.636030     0.000006     0.014765   107.650795
	   42 B(15,11,16)     =    107.708937     0.000002     0.015028   107.723964
	   43 D(1,2,3,5)      =    176.098951     0.000000    -0.013175   176.085776
	   44 D(1,2,3,6)      =     56.712798     0.000001     0.020341    56.733139
	   45 D(1,2,3,7)      =    -60.811136    -0.000001    -0.034416   -60.845552
	   46 D(2,3,5,8)      =   -178.737699     0.000001     0.053497  -178.684202
	   47 D(2,3,5,9)      =    -56.149350     0.000000     0.009020   -56.140329
	   48 D(2,3,5,10)     =     59.421786    -0.000000     0.007379    59.429166
	   49 D(3,5,8,11)     =    179.988194    -0.000000    -0.134328   179.853866
	   50 D(3,5,8,12)     =     58.143847    -0.000000    -0.176947    57.966900
	   51 D(3,5,8,13)     =    -57.976823     0.000000    -0.148467   -58.125290
	   52 D(4,2,3,5)      =    -65.736681    -0.000000    -0.038055   -65.774735
	   53 D(4,2,3,6)      =    174.877166     0.000000    -0.004538   174.872628
	   54 D(4,2,3,7)      =     57.353232    -0.000001    -0.059295    57.293937
	   55 D(5,8,11,14)    =    -59.793374    -0.000000    -0.029398   -59.822771
	   56 D(5,8,11,15)    =   -179.845036    -0.000001    -0.050876  -179.895912
	   57 D(5,8,11,16)    =     60.103723    -0.000001    -0.059609    60.044114
	   58 D(6,3,5,8)      =    -60.335114     0.000000     0.032485   -60.302629
	   59 D(6,3,5,9)      =     62.253235    -0.000000    -0.011991    62.241244
	   60 D(6,3,5,10)     =    177.824371    -0.000000    -0.013632   177.810739
	   61 D(7,3,5,8)      =     56.042125     0.000000     0.042771    56.084896
	   62 D(7,3,5,9)      =    178.630474    -0.000000    -0.001706   178.628768
	   63 D(7,3,5,10)     =    -65.798390    -0.000000    -0.003347   -65.801737
	   64 D(9,5,8,11)     =     58.338993     0.000000    -0.089021    58.249972
	   65 D(9,5,8,12)     =    -63.505355    -0.000000    -0.131640   -63.636995
	   66 D(9,5,8,13)     =   -179.626025     0.000000    -0.103160  -179.729185
	   67 D(10,5,8,11)    =    -58.225196    -0.000000    -0.107004   -58.332199
	   68 D(10,5,8,12)    =    179.930457    -0.000000    -0.149622   179.780835
	   69 D(10,5,8,13)    =     63.809787     0.000000    -0.121142    63.688644
	   70 D(12,8,11,14)   =     62.067254     0.000001     0.021687    62.088940
	   71 D(12,8,11,15)   =    -57.984409     0.000000     0.000208   -57.984201
	   72 D(12,8,11,16)   =   -178.035650     0.000000    -0.008524  -178.044174
	   73 D(13,8,11,14)   =    178.010511     0.000001     0.018047   178.028558
	   74 D(13,8,11,15)   =     57.958849     0.000000    -0.003432    57.955417
	   75 D(13,8,11,16)   =    -62.092392     0.000000    -0.012164   -62.104557
	 ---------------------------------------------------------------------------

  ==> Convergence Check <==

  Measures of convergence in internal coordinates in au.
  Criteria marked as inactive (o), active & met (*), and active & unmet ( ).
  --------------------------------------------------------------------------------------------- ~
   Step     Total Energy     Delta E     MAX Force     RMS Force      MAX Disp      RMS Disp    ~
  --------------------------------------------------------------------------------------------- ~
    Convergence Criteria    1.00e-06 *    3.00e-04 *             o    1.20e-03 *             o  ~
  --------------------------------------------------------------------------------------------- ~
      1    -212.31702067   -2.12e+02      5.89e-04      1.54e-04 o    3.09e-03      9.85e-04 o  ~
  ---------------------------------------------------------------------------------------------

	Writing optimization data to binary file.
	Structure for next step:
	Cartesian Geometry (in Angstrom)
	    H     3.2758532614   0.1743172104  -0.1124494583
	    N     2.4340149238  -0.3677900968  -0.0821454649
	    C     1.2672353856   0.4964344845   0.0242349100
	    H     2.5029381985  -0.9650784487   0.7199677456
	    C    -0.0161661659  -0.3254271666  -0.0270701761
	    H     1.2873923732   1.1826875055  -0.8170082675
	    H     1.2685194245   1.1099013455   0.9287132597
	    C    -1.2823767800   0.5290070054   0.0480226794
	    H    -0.0135129578  -0.9104028395  -0.9423627053
	    H    -0.0155866434  -1.0399075760   0.7957728257
	    C    -2.5640035946  -0.3016134290  -0.0075598418
	    H    -1.2825783371   1.2456129174  -0.7707517824
	    H    -1.2724868828   1.1138879042   0.9654660222
	    H    -2.6208691524  -0.8722554232  -0.9299913467
	    H    -3.4453437184   0.3300638676   0.0457327118
	    H    -2.6111143584  -1.0054561409   0.8186351555
			--------------------------
			 OPTKING Finished Execution 
			--------------------------

    Structure for next step:
    Molecular point group: c1
    Full point group: C1

    Geometry (in Angstrom), charge = 0, multiplicity = 1:

    H            3.275986187745     0.174360534655    -0.112565157826
    N            2.434147914457    -0.367746731107    -0.082261166705
    C            1.267368465331     0.496477784135     0.024119200027
    H            2.503071183872    -0.965035037428     0.719851982481
    C           -0.016032988097    -0.325383804228    -0.027185882158
    H            1.287525451441     1.182730752789    -0.817123913181
    H            1.268652504175     1.109944598323     0.928597480700
    C           -1.282243505474     0.529050302585     0.047906967604
    H           -0.013379780181    -0.910359432450    -0.942478341430
    H           -0.015453465695    -1.039864159043     0.795657056789
    C           -2.563870222290    -0.301570068452    -0.007675549338
    H           -1.282445062581     1.245656159822    -0.770867431676
    H           -1.272353609035     1.113931156699     0.965350240337
    H           -2.620735775726    -0.872212019022    -0.930106983829
    H           -3.445210278724     0.330107179916     0.045617000226
    H           -2.610980982447    -1.005412726538     0.818519384844

gradient() will perform analytic gradient computation.

*** tstart() called on cx1-3-16-4.cx1.hpc.ic.ac.uk
*** at Tue Jul  5 16:20:05 2016


         ---------------------------------------------------------
                                   SCF
            by Justin Turney, Rob Parrish, and Andy Simmonett
                              RHF Reference
                        1 Threads,   2000 MiB Core
         ---------------------------------------------------------

  ==> Geometry <==

    Molecular point group: c1
    Full point group: C1

    Geometry (in Angstrom), charge = 0, multiplicity = 1:

       Center              X                  Y                   Z               Mass       
    ------------   -----------------  -----------------  -----------------  -----------------
           H          3.275986187745     0.174360534655    -0.112565157826     1.007825032070
           N          2.434147914457    -0.367746731107    -0.082261166705    14.003074004780
           C          1.267368465331     0.496477784135     0.024119200027    12.000000000000
           H          2.503071183872    -0.965035037428     0.719851982481     1.007825032070
           C         -0.016032988097    -0.325383804228    -0.027185882158    12.000000000000
           H          1.287525451441     1.182730752789    -0.817123913181     1.007825032070
           H          1.268652504175     1.109944598323     0.928597480700     1.007825032070
           C         -1.282243505474     0.529050302585     0.047906967604    12.000000000000
           H         -0.013379780181    -0.910359432450    -0.942478341430     1.007825032070
           H         -0.015453465695    -1.039864159043     0.795657056789     1.007825032070
           C         -2.563870222290    -0.301570068452    -0.007675549338    12.000000000000
           H         -1.282445062581     1.245656159822    -0.770867431676     1.007825032070
           H         -1.272353609035     1.113931156699     0.965350240337     1.007825032070
           H         -2.620735775726    -0.872212019022    -0.930106983829     1.007825032070
           H         -3.445210278724     0.330107179916     0.045617000226     1.007825032070
           H         -2.610980982447    -1.005412726538     0.818519384844     1.007825032070

  Running in c1 symmetry.

  Rotational constants: A =      0.60991  B =      0.06555  C =      0.06216 [cm^-1]
  Rotational constants: A =  18284.74813  B =   1965.22737  C =   1863.63661 [MHz]
  Nuclear repulsion =  186.261437733323220

  Charge       = 0
  Multiplicity = 1
  Electrons    = 42
  Nalpha       = 21
  Nbeta        = 21

  ==> Algorithm <==

  SCF Algorithm Type is DF.
  DIIS enabled.
  MOM disabled.
  Fractional occupation disabled.
  Guess Type is READ.
  Energy threshold   = 1.00e-08
  Density threshold  = 1.00e-08
  Integral threshold = 0.00e+00

  ==> Primary Basis <==

  Basis Set: 6-31G*
    Number of shells: 52
    Number of basis function: 97
    Number of Cartesian functions: 97
    Spherical Harmonics?: false
    Max angular momentum: 2

  ==> Pre-Iterations <==

   -------------------------------------------------------
    Irrep   Nso     Nmo     Nalpha   Nbeta   Ndocc  Nsocc
   -------------------------------------------------------
     A         97      97       0       0       0       0
   -------------------------------------------------------
    Total      97      97      21      21      21       0
   -------------------------------------------------------

 OEINTS: Overlap, kinetic, potential, dipole, and quadrupole integrals
         stored in file 35.

  ==> Integral Setup <==

  ==> DFJK: Density-Fitted J/K Matrices <==

    J tasked:                  Yes
    K tasked:                  Yes
    wK tasked:                  No
    OpenMP threads:              1
    Integrals threads:           1
    Memory (MB):              1430
    Algorithm:                Core
    Integral Cache:           NONE
    Schwarz Cutoff:          1E-12
    Fitting Condition:       1E-12

   => Auxiliary Basis Set <=

  Basis Set: 
    Number of shells: 219
    Number of basis function: 680
    Number of Cartesian functions: 680
    Spherical Harmonics?: false
    Max angular momentum: 3

  Minimum eigenvalue in the overlap matrix is 3.6065881680E-03.
  Using Symmetric Orthogonalization.
  SCF Guess: Reading in previously saved MOs, projecting if necessary.

  Using orbitals from previous SCF, no projection.
  Recomputing DOCC and SOCC from number of alpha and beta electrons from previous calculation.
              A 
    DOCC [    21 ]

  ==> Iterations <==

                           Total Energy        Delta E     RMS |[F,P]|

   @DF-RHF iter   0:  -212.31655675307465   -2.12317e+02   3.90922e-05 
   @DF-RHF iter   1:  -212.31702304174351   -4.66289e-04   6.20700e-06 
   @DF-RHF iter   2:  -212.31702334097488   -2.99231e-07   1.94519e-06 DIIS
   @DF-RHF iter   3:  -212.31702337418889   -3.32140e-08   7.13542e-07 DIIS
   @DF-RHF iter   4:  -212.31702337898960   -4.80071e-09   1.85731e-07 DIIS
   @DF-RHF iter   5:  -212.31702337936613   -3.76531e-10   5.71640e-08 DIIS
   @DF-RHF iter   6:  -212.31702337941610   -4.99654e-11   1.45863e-08 DIIS
   @DF-RHF iter   7:  -212.31702337941877   -2.67164e-12   3.80730e-09 DIIS

  ==> Post-Iterations <==

    Orbital Energies (a.u.)
    -----------------------

    Doubly Occupied:                                                      

       1A    -15.532636     2A    -11.239913     3A    -11.215075  
       4A    -11.209661     5A    -11.207920     6A     -1.176732  
       7A     -1.059522     8A     -0.958669     9A     -0.843679  
      10A     -0.791989    11A     -0.664227    12A     -0.637092  
      13A     -0.605678    14A     -0.575283    15A     -0.564511  
      16A     -0.525356    17A     -0.500214    18A     -0.470203  
      19A     -0.464835    20A     -0.461644    21A     -0.381189  

    Virtual:                                                              

      22A      0.228429    23A      0.240518    24A      0.273312  
      25A      0.282271    26A      0.294594    27A      0.322109  
      28A      0.335069    29A      0.346510    30A      0.350168  
      31A      0.355139    32A      0.365070    33A      0.398036  
      34A      0.429607    35A      0.445643    36A      0.489000  
      37A      0.712327    38A      0.733648    39A      0.747261  
      40A      0.753529    41A      0.786885    42A      0.846852  
      43A      0.885390    44A      0.929014    45A      0.950599  
      46A      1.006151    47A      1.010032    48A      1.025075  
      49A      1.055760    50A      1.109715    51A      1.137833  
      52A      1.161149    53A      1.177804    54A      1.193900  
      55A      1.203335    56A      1.214657    57A      1.223751  
      58A      1.231139    59A      1.236952    60A      1.264483  
      61A      1.271055    62A      1.327274    63A      1.349588  
      64A      1.559027    65A      1.644952    66A      1.718200  
      67A      1.732819    68A      1.748285    69A      1.843159  
      70A      1.989916    71A      2.077076    72A      2.091746  
      73A      2.208091    74A      2.232501    75A      2.265442  
      76A      2.289763    77A      2.330655    78A      2.342109  
      79A      2.368270    80A      2.436791    81A      2.550616  
      82A      2.612391    83A      2.628277    84A      2.666396  
      85A      2.752342    86A      2.755917    87A      2.793386  
      88A      2.863037    89A      2.925756    90A      2.975916  
      91A      3.126112    92A      3.171538    93A      4.218888  
      94A      4.585518    95A      4.706246    96A      4.816024  
      97A      4.964572  

    Final Occupation by Irrep:
              A 
    DOCC [    21 ]

  Energy converged.

  @DF-RHF Final Energy:  -212.31702337941877

   => Energetics <=

    Nuclear Repulsion Energy =            186.2614377333232198
    One-Electron Energy =                -654.9848686089670764
    Two-Electron Energy =                 256.4064074962246877
    DFT Exchange-Correlation Energy =       0.0000000000000000
    Empirical Dispersion Energy =           0.0000000000000000
    PCM Polarization Energy =               0.0000000000000000
    EFP Energy =                            0.0000000000000000
    Total Energy =                       -212.3170233794191972

    Alert: EFP and PCM quantities not currently incorporated into SCF psivars.

Properties will be evaluated at   0.000000,   0.000000,   0.000000 Bohr
  ==> Properties <==


Properties computed using the SCF density matrix

  Nuclear Dipole Moment: (a.u.)
     X:    -2.7495      Y:     0.3422      Z:     0.6569

  Electronic Dipole Moment: (a.u.)
     X:     2.8289      Y:    -0.0365      Z:    -0.1924

  Dipole Moment: (a.u.)
     X:     0.0795      Y:     0.3057      Z:     0.4645     Total:     0.5617

  Dipole Moment: (Debye)
     X:     0.2019      Y:     0.7769      Z:     1.1805     Total:     1.4276


  Saving occupied orbitals to File 180.

*** tstop() called on cx1-3-16-4.cx1.hpc.ic.ac.uk at Tue Jul  5 16:20:11 2016
Module time:
	user time   =       5.85 seconds =       0.10 minutes
	system time =       0.05 seconds =       0.00 minutes
	total time  =          6 seconds =       0.10 minutes
Total time:
	user time   =      21.28 seconds =       0.35 minutes
	system time =       0.19 seconds =       0.00 minutes
	total time  =         23 seconds =       0.38 minutes

*** tstart() called on cx1-3-16-4.cx1.hpc.ic.ac.uk
*** at Tue Jul  5 16:20:11 2016


         ------------------------------------------------------------
                                   SCF GRAD                          
                          Rob Parrish, Justin Turney,                
                       Andy Simmonett, and Alex Sokolov              
         ------------------------------------------------------------

  ==> Geometry <==

    Molecular point group: c1
    Full point group: C1

    Geometry (in Angstrom), charge = 0, multiplicity = 1:

       Center              X                  Y                   Z               Mass       
    ------------   -----------------  -----------------  -----------------  -----------------
           H          3.275986187745     0.174360534655    -0.112565157826     1.007825032070
           N          2.434147914457    -0.367746731107    -0.082261166705    14.003074004780
           C          1.267368465331     0.496477784135     0.024119200027    12.000000000000
           H          2.503071183872    -0.965035037428     0.719851982481     1.007825032070
           C         -0.016032988097    -0.325383804228    -0.027185882158    12.000000000000
           H          1.287525451441     1.182730752789    -0.817123913181     1.007825032070
           H          1.268652504175     1.109944598323     0.928597480700     1.007825032070
           C         -1.282243505474     0.529050302585     0.047906967604    12.000000000000
           H         -0.013379780181    -0.910359432450    -0.942478341430     1.007825032070
           H         -0.015453465695    -1.039864159043     0.795657056789     1.007825032070
           C         -2.563870222290    -0.301570068452    -0.007675549338    12.000000000000
           H         -1.282445062581     1.245656159822    -0.770867431676     1.007825032070
           H         -1.272353609035     1.113931156699     0.965350240337     1.007825032070
           H         -2.620735775726    -0.872212019022    -0.930106983829     1.007825032070
           H         -3.445210278724     0.330107179916     0.045617000226     1.007825032070
           H         -2.610980982447    -1.005412726538     0.818519384844     1.007825032070

  Nuclear repulsion =  186.261437733323220

  ==> Basis Set <==

  Basis Set: 6-31G*
    Number of shells: 52
    Number of basis function: 97
    Number of Cartesian functions: 97
    Spherical Harmonics?: false
    Max angular momentum: 2

  ==> DFJKGrad: Density-Fitted SCF Gradients <==

    Gradient:                    1
    J tasked:                  Yes
    K tasked:                  Yes
    wK tasked:                  No
    OpenMP threads:              1
    Integrals threads:           1
    Memory (MB):              1430
    Schwarz Cutoff:          0E+00
    Fitting Condition:       1E-12

   => Auxiliary Basis Set <=

  Basis Set: 
    Number of shells: 219
    Number of basis function: 680
    Number of Cartesian functions: 680
    Spherical Harmonics?: false
    Max angular momentum: 3


  -Total Gradient:
     Atom            X                  Y                   Z
    ------   -----------------  -----------------  -----------------
       1       -0.000013482336    -0.000003707654    -0.000012117684
       2        0.000031078696     0.000004828097    -0.000006364953
       3       -0.000040856487     0.000004155436    -0.000010660395
       4       -0.000005780366    -0.000019160705     0.000012512799
       5        0.000118162182    -0.000031836369     0.000092612909
       6        0.000003824941     0.000017849732    -0.000015822127
       7       -0.000012629429    -0.000000875875     0.000008263534
       8       -0.000100993312     0.000042572544    -0.000072827614
       9       -0.000049096277     0.000033488763    -0.000022950158
      10       -0.000014277341     0.000006408332     0.000023573026
      11        0.000078239726     0.000009567054     0.000028704079
      12        0.000027899288     0.000013695678    -0.000011367984
      13        0.000040852216    -0.000056813568    -0.000003751951
      14       -0.000022704662     0.000005516535     0.000010140456
      15       -0.000014911277    -0.000023631870    -0.000008430269
      16       -0.000025325563    -0.000002056126    -0.000011513668


*** tstop() called on cx1-3-16-4.cx1.hpc.ic.ac.uk at Tue Jul  5 16:20:19 2016
Module time:
	user time   =       8.07 seconds =       0.13 minutes
	system time =       0.07 seconds =       0.00 minutes
	total time  =          8 seconds =       0.13 minutes
Total time:
	user time   =      29.36 seconds =       0.49 minutes
	system time =       0.26 seconds =       0.00 minutes
	total time  =         31 seconds =       0.52 minutes
CURRENT ENERGY: -212.3170233794

			-----------------------------------------
			 OPTKING 2.0: for geometry optimizations 
			  - R.A. King,  Bethel University        
			-----------------------------------------

	Previous internal coordinate definitions found.
	---Fragment 1 Geometry and Gradient---
	 H           6.1907167100        0.3294936589       -0.2127173204
	 N           4.5998729253       -0.6949406081       -0.1554510764
	 C           2.3949793089        0.9382070431        0.0455786826
	 H           4.7301190286       -1.8236519294        1.3603231031
	 C          -0.0302979566       -0.6148862781       -0.0513738720
	 H           2.4330704923        2.2350372117       -1.5441404125
	 H           2.3974057907        2.0974913135        1.7547949262
	 C          -2.4230890610        0.9997601824        0.0905310486
	 H          -0.0252841203       -1.7203300098       -1.7810259515
	 H          -0.0292028180       -1.9650584760        1.5035739330
	 C          -4.8450125604       -0.5698848392       -0.0145046862
	 H          -2.4234699487        2.3539489978       -1.4567283306
	 H          -2.4043998653        2.1050248171        1.8242475766
	 H          -4.9524728828       -1.6482418458       -1.7576474737
	 H          -6.5105038970        0.6238121645        0.0862036374
	 H          -4.9340389950       -1.8999547037        1.5467774718
	            -0.0000134823       -0.0000037077       -0.0000121177
	             0.0000310787        0.0000048281       -0.0000063650
	            -0.0000408565        0.0000041554       -0.0000106604
	            -0.0000057804       -0.0000191607        0.0000125128
	             0.0001181622       -0.0000318364        0.0000926129
	             0.0000038249        0.0000178497       -0.0000158221
	            -0.0000126294       -0.0000008759        0.0000082635
	            -0.0001009933        0.0000425725       -0.0000728276
	            -0.0000490963        0.0000334888       -0.0000229502
	            -0.0000142773        0.0000064083        0.0000235730
	             0.0000782397        0.0000095671        0.0000287041
	             0.0000278993        0.0000136957       -0.0000113680
	             0.0000408522       -0.0000568136       -0.0000037520
	            -0.0000227047        0.0000055165        0.0000101405
	            -0.0000149113       -0.0000236319       -0.0000084303
	            -0.0000253256       -0.0000020561       -0.0000115137

	---Fragment 1 Intrafragment Coordinates---
	 - Coordinate -           - BOHR/RAD -       - ANG/DEG -
	 R(1,2)           =         1.893021	       1.001744
	 R(2,3)           =         2.751207	       1.455876
	 R(2,4)           =         1.894340	       1.002442
	 R(3,5)           =         2.881574	       1.524863
	 R(3,6)           =         2.051932	       1.085836
	 R(3,7)           =         2.065276	       1.092897
	 R(5,8)           =         2.890099	       1.529374
	 R(5,9)           =         2.052737	       1.086261
	 R(5,10)          =         2.059327	       1.089749
	 R(8,11)          =         2.887998	       1.528263
	 R(8,12)          =         2.056171	       1.088079
	 R(8,13)          =         2.056145	       1.088065
	 R(11,14)         =         2.052547	       1.086161
	 R(11,15)         =         2.051564	       1.085641
	 R(11,16)         =         2.052952	       1.086376
	 B(1,2,3)         =         1.933141	     110.760829
	 B(1,2,4)         =         1.863842	     106.790262
	 B(2,3,5)         =         1.930634	     110.617178
	 B(2,3,6)         =         1.879346	     107.678612
	 B(2,3,7)         =         1.974403	     113.124943
	 B(3,2,4)         =         1.928718	     110.507416
	 B(3,5,8)         =         1.975839	     113.207232
	 B(3,5,9)         =         1.892880	     108.454031
	 B(3,5,10)        =         1.904473	     109.118253
	 B(5,3,6)         =         1.907302	     109.280379
	 B(5,3,7)         =         1.908553	     109.352051
	 B(5,8,11)        =         1.970213	     112.884865
	 B(5,8,12)        =         1.908321	     109.338722
	 B(5,8,13)        =         1.911543	     109.523330
	 B(6,3,7)         =         1.861258	     106.642248
	 B(8,5,9)         =         1.922244	     110.136459
	 B(8,5,10)        =         1.906738	     109.248065
	 B(8,11,14)       =         1.939426	     111.120923
	 B(8,11,15)       =         1.942045	     111.270962
	 B(8,11,16)       =         1.939959	     111.151482
	 B(9,5,10)        =         1.857880	     106.448667
	 B(11,8,12)       =         1.907554	     109.294781
	 B(11,8,13)       =         1.907573	     109.295887
	 B(12,8,13)       =         1.855083	     106.288430
	 B(14,11,15)      =         1.880603	     107.750622
	 B(14,11,16)      =         1.878861	     107.650795
	 B(15,11,16)      =         1.880138	     107.723964
	 D(1,2,3,5)       =         3.073277	     176.085776
	 D(1,2,3,6)       =         0.990180	      56.733139
	 D(1,2,3,7)       =        -1.061955	     -60.845552
	 D(2,3,5,8)       =        -3.118628	    -178.684202
	 D(2,3,5,9)       =        -0.979834	     -56.140329
	 D(2,3,5,10)      =         1.037235	      59.429166
	 D(3,5,8,11)      =         3.139042	     179.853866
	 D(3,5,8,12)      =         1.011713	      57.966900
	 D(3,5,8,13)      =        -1.014478	     -58.125290
	 D(4,2,3,5)       =        -1.147986	     -65.774735
	 D(4,2,3,6)       =         3.052103	     174.872628
	 D(4,2,3,7)       =         0.999968	      57.293937
	 D(5,8,11,14)     =        -1.044104	     -59.822771
	 D(5,8,11,15)     =        -3.139776	    -179.895912
	 D(5,8,11,16)     =         1.047967	      60.044114
	 D(6,3,5,8)       =        -1.052479	     -60.302629
	 D(6,3,5,9)       =         1.086315	      62.241244
	 D(6,3,5,10)      =         3.103383	     177.810739
	 D(7,3,5,8)       =         0.978866	      56.084896
	 D(7,3,5,9)       =         3.117660	     178.628768
	 D(7,3,5,10)      =        -1.148457	     -65.801737
	 D(9,5,8,11)      =         1.016654	      58.249972
	 D(9,5,8,12)      =        -1.110675	     -63.636995
	 D(9,5,8,13)      =        -3.136866	    -179.729185
	 D(10,5,8,11)     =        -1.018089	     -58.332199
	 D(10,5,8,12)     =         3.137767	     179.780835
	 D(10,5,8,13)     =         1.111577	      63.688644
	 D(12,8,11,14)    =         1.083656	      62.088940
	 D(12,8,11,15)    =        -1.012015	     -57.984201
	 D(12,8,11,16)    =        -3.107457	    -178.044174
	 D(13,8,11,14)    =         3.107184	     178.028558
	 D(13,8,11,15)    =         1.011513	      57.955417
	 D(13,8,11,16)    =        -1.083929	     -62.104557

	Current energy   :      -212.3170233794

	Energy change for the previous step:
		Projected    :        -0.0000009058
		Actual       :        -0.0000027115
	Energy ratio indicates good step: Trust radius increased to 1.000e+00.


	Performing BFGS update.
	Previous computed or guess Hessian on step 1.
	Steps to be used in Hessian update: 1
	Taking RFO optimization step.
	Going to follow RFO solution 1.
	Using RFO vector 1.
	Norm of target step-size    0.01246
	Projected energy change by RFO approximation:         0.0000010198

	Back-transformation to cartesian coordinates...
	Successfully converged to displaced geometry.

	--- Internal Coordinate Step in ANG or DEG, aJ/ANG or AJ/DEG ---
	 ---------------------------------------------------------------------------
	   Coordinate                Previous        Force       Change         New 
	   ----------                --------       ------       ------       ------
	    1 R(1,2)          =      1.001744     0.000107     0.000011     1.001755
	    2 R(2,3)          =      1.455876    -0.000170    -0.000029     1.455847
	    3 R(2,4)          =      1.002442    -0.000173     0.000013     1.002454
	    4 R(3,5)          =      1.524863     0.000255     0.000066     1.524929
	    5 R(3,6)          =      1.085836    -0.000195    -0.000002     1.085833
	    6 R(3,7)          =      1.092897    -0.000052    -0.000021     1.092877
	    7 R(5,8)          =      1.529374    -0.000036    -0.000075     1.529300
	    8 R(5,9)          =      1.086261    -0.000010     0.000049     1.086311
	    9 R(5,10)         =      1.089749    -0.000112    -0.000000     1.089749
	   10 R(8,11)         =      1.528263     0.000064     0.000038     1.528301
	   11 R(8,12)         =      1.088079    -0.000145     0.000033     1.088112
	   12 R(8,13)         =      1.088065     0.000275     0.000033     1.088098
	   13 R(11,14)        =      1.086161     0.000085    -0.000012     1.086149
	   14 R(11,15)        =      1.085641     0.000017    -0.000044     1.085597
	   15 R(11,16)        =      1.086376     0.000052     0.000005     1.086381
	   16 B(1,2,3)        =    110.760829     0.000000    -0.003104   110.757725
	   17 B(1,2,4)        =    106.790262    -0.000001    -0.008738   106.781524
	   18 B(2,3,5)        =    110.617178     0.000001     0.003635   110.620813
	   19 B(2,3,6)        =    107.678612     0.000000    -0.000100   107.678512
	   20 B(2,3,7)        =    113.124943    -0.000001    -0.003630   113.121313
	   21 B(3,2,4)        =    110.507416    -0.000000    -0.003367   110.504049
	   22 B(3,5,8)        =    113.207232     0.000000     0.005867   113.213098
	   23 B(3,5,9)        =    108.454031    -0.000002    -0.004528   108.449503
	   24 B(3,5,10)       =    109.118253    -0.000001    -0.016865   109.101388
	   25 B(5,3,6)        =    109.280379    -0.000001    -0.005150   109.275229
	   26 B(5,3,7)        =    109.352051     0.000001     0.003582   109.355633
	   27 B(5,8,11)       =    112.884865    -0.000000     0.003784   112.888649
	   28 B(5,8,12)       =    109.338722     0.000001    -0.000119   109.338602
	   29 B(5,8,13)       =    109.523330     0.000003     0.030110   109.553440
	   30 B(6,3,7)        =    106.642248     0.000000     0.001304   106.643553
	   31 B(8,5,9)        =    110.136459     0.000003     0.033195   110.169654
	   32 B(8,5,10)       =    109.248065    -0.000000    -0.002463   109.245602
	   33 B(8,11,14)      =    111.120923    -0.000001    -0.007751   111.113171
	   34 B(8,11,15)      =    111.270962    -0.000002    -0.007474   111.263488
	   35 B(8,11,16)      =    111.151482    -0.000002    -0.013831   111.137651
	   36 B(9,5,10)       =    106.448667    -0.000001    -0.017060   106.431607
	   37 B(11,8,12)      =    109.294781    -0.000001    -0.020888   109.273892
	   38 B(11,8,13)      =    109.295887    -0.000001    -0.000871   109.295015
	   39 B(12,8,13)      =    106.288430    -0.000001    -0.013178   106.275252
	   40 B(14,11,15)     =    107.750622     0.000002     0.015769   107.766391
	   41 B(14,11,16)     =    107.650795     0.000002     0.005865   107.656660
	   42 B(15,11,16)     =    107.723964     0.000002     0.009175   107.733139
	   43 D(1,2,3,5)      =    176.085776     0.000000     0.011373   176.097149
	   44 D(1,2,3,6)      =     56.733139     0.000000     0.015590    56.748730
	   45 D(1,2,3,7)      =    -60.845552     0.000000     0.016161   -60.829391
	   46 D(2,3,5,8)      =   -178.684202    -0.000000    -0.085672  -178.769874
	   47 D(2,3,5,9)      =    -56.140329     0.000000    -0.042599   -56.182929
	   48 D(2,3,5,10)     =     59.429166    -0.000000    -0.074326    59.354839
	   49 D(3,5,8,11)     =    179.853866     0.000000     0.223044   180.076909
	   50 D(3,5,8,12)     =     57.966900     0.000000     0.247280    58.214180
	   51 D(3,5,8,13)     =    -58.125290     0.000000     0.246188   -57.879102
	   52 D(4,2,3,5)      =    -65.774735    -0.000000    -0.003524   -65.778260
	   53 D(4,2,3,6)      =    174.872628    -0.000000     0.000693   174.873321
	   54 D(4,2,3,7)      =     57.293937     0.000000     0.001263    57.295200
	   55 D(5,8,11,14)    =    -59.822771     0.000000     0.020141   -59.802631
	   56 D(5,8,11,15)    =   -179.895912     0.000000     0.010419  -179.885493
	   57 D(5,8,11,16)    =     60.044114     0.000000     0.013141    60.057256
	   58 D(6,3,5,8)      =    -60.302629    -0.000000    -0.086787   -60.389415
	   59 D(6,3,5,9)      =     62.241244     0.000000    -0.043714    62.197530
	   60 D(6,3,5,10)     =    177.810739    -0.000000    -0.075440   177.735299
	   61 D(7,3,5,8)      =     56.084896    -0.000000    -0.086111    55.998785
	   62 D(7,3,5,9)      =    178.628768     0.000000    -0.043038   178.585731
	   63 D(7,3,5,10)     =    -65.801737    -0.000000    -0.074764   -65.876501
	   64 D(9,5,8,11)     =     58.249972    -0.000000     0.200598    58.450570
	   65 D(9,5,8,12)     =    -63.636995     0.000000     0.224835   -63.412160
	   66 D(9,5,8,13)     =   -179.729185     0.000000     0.223743  -179.505442
	   67 D(10,5,8,11)    =    -58.332199    -0.000000     0.203628   -58.128571
	   68 D(10,5,8,12)    =    179.780835     0.000000     0.227865   180.008699
	   69 D(10,5,8,13)    =     63.688644    -0.000000     0.226773    63.915417
	   70 D(12,8,11,14)   =     62.088940     0.000000     0.007605    62.096545
	   71 D(12,8,11,15)   =    -57.984201     0.000000    -0.002117   -57.986318
	   72 D(12,8,11,16)   =   -178.044174     0.000000     0.000606  -178.043568
	   73 D(13,8,11,14)   =    178.028558    -0.000000    -0.020355   178.008202
	   74 D(13,8,11,15)   =     57.955417    -0.000000    -0.030077    57.925340
	   75 D(13,8,11,16)   =    -62.104557    -0.000000    -0.027355   -62.131911
	 ---------------------------------------------------------------------------

  ==> Convergence Check <==

  Measures of convergence in internal coordinates in au.
  Criteria marked as inactive (o), active & met (*), and active & unmet ( ).
  ---------------------------------------------------------------------------------------------
   Step     Total Energy     Delta E     MAX Force     RMS Force      MAX Disp      RMS Disp   
  ---------------------------------------------------------------------------------------------
    Convergence Criteria    1.00e-06 *    3.00e-04 *             o    1.20e-03 *             o
  ---------------------------------------------------------------------------------------------
      2    -212.31702338   -2.71e-06      4.46e-05 *    1.69e-05 o    4.32e-03      1.44e-03 o  ~
  ---------------------------------------------------------------------------------------------

	Writing optimization data to binary file.
	Structure for next step:
	Cartesian Geometry (in Angstrom)
	    H     3.2762091516   0.1744036097  -0.1095501101
	    N     2.4342843357  -0.3676950525  -0.0811841875
	    C     1.2674603753   0.4965202314   0.0243865475
	    H     2.5019837313  -0.9657360867   0.7204879530
	    C    -0.0160536648  -0.3251180386  -0.0295742185
	    H     1.2888508882   1.1835610385  -0.8161797684
	    H     1.2676088560   1.1091024572   0.9294404035
	    C    -1.2822440416   0.5291124391   0.0466478477
	    H    -0.0124627220  -0.9085987580  -0.9458756996
	    H    -0.0158701207  -1.0412078602   0.7918685262
	    C    -2.5638873865  -0.3017343618  -0.0061477484
	    H    -1.2840510205   1.2446624936  -0.7730918206
	    H    -1.2713545590   1.1154337248   0.9631991394
	    H    -2.6218152408  -0.8734815750  -0.9278141405
	    H    -3.4451028940   0.3299921077   0.0477242078
	    H    -2.6095098868  -1.0045418485   0.8210180054
			--------------------------
			 OPTKING Finished Execution 
			--------------------------

    Structure for next step:
    Molecular point group: c1
    Full point group: C1

    Geometry (in Angstrom), charge = 0, multiplicity = 1:

    H            3.276176597909     0.174363417872    -0.109463013140
    N            2.434251846325    -0.367735202910    -0.081097092760
    C            1.267427975051     0.496480014972     0.024473634184
    H            2.501951236741    -0.965776191392     0.720574986528
    C           -0.016085967026    -0.325158192243    -0.029487127724
    H            1.288818486312     1.183520769690    -0.816092617566
    H            1.267576455701     1.109062194028     0.929527421073
    C           -1.282276247188     0.529072220212     0.046734932739
    H           -0.012495024478    -0.908638867059    -0.945788538822
    H           -0.015902422985    -1.041247959142     0.791955554316
    C           -2.563919494212    -0.301774517197    -0.006060659396
    H           -1.284083225918     1.244622220097    -0.773004672981
    H           -1.271386765408     1.115393461154     0.963286154393
    H           -2.621847344089    -0.873521686791    -0.927726981107
    H           -3.445134934398     0.329951904011     0.047811292733
    H           -2.609541991017    -1.004581950258     0.821105031286

gradient() will perform analytic gradient computation.

*** tstart() called on cx1-3-16-4.cx1.hpc.ic.ac.uk
*** at Tue Jul  5 16:20:19 2016


         ---------------------------------------------------------
                                   SCF
            by Justin Turney, Rob Parrish, and Andy Simmonett
                              RHF Reference
                        1 Threads,   2000 MiB Core
         ---------------------------------------------------------

  ==> Geometry <==

    Molecular point group: c1
    Full point group: C1

    Geometry (in Angstrom), charge = 0, multiplicity = 1:

       Center              X                  Y                   Z               Mass       
    ------------   -----------------  -----------------  -----------------  -----------------
           H          3.276176597909     0.174363417872    -0.109463013140     1.007825032070
           N          2.434251846325    -0.367735202910    -0.081097092760    14.003074004780
           C          1.267427975051     0.496480014972     0.024473634184    12.000000000000
           H          2.501951236741    -0.965776191392     0.720574986528     1.007825032070
           C         -0.016085967026    -0.325158192243    -0.029487127724    12.000000000000
           H          1.288818486312     1.183520769690    -0.816092617566     1.007825032070
           H          1.267576455701     1.109062194028     0.929527421073     1.007825032070
           C         -1.282276247188     0.529072220212     0.046734932739    12.000000000000
           H         -0.012495024478    -0.908638867059    -0.945788538822     1.007825032070
           H         -0.015902422985    -1.041247959142     0.791955554316     1.007825032070
           C         -2.563919494212    -0.301774517197    -0.006060659396    12.000000000000
           H         -1.284083225918     1.244622220097    -0.773004672981     1.007825032070
           H         -1.271386765408     1.115393461154     0.963286154393     1.007825032070
           H         -2.621847344089    -0.873521686791    -0.927726981107     1.007825032070
           H         -3.445134934398     0.329951904011     0.047811292733     1.007825032070
           H         -2.609541991017    -1.004581950258     0.821105031286     1.007825032070

  Running in c1 symmetry.

  Rotational constants: A =      0.60991  B =      0.06555  C =      0.06216 [cm^-1]
  Rotational constants: A =  18284.68764  B =   1965.17510  C =   1863.56688 [MHz]
  Nuclear repulsion =  186.260084731799793

  Charge       = 0
  Multiplicity = 1
  Electrons    = 42
  Nalpha       = 21
  Nbeta        = 21

  ==> Algorithm <==

  SCF Algorithm Type is DF.
  DIIS enabled.
  MOM disabled.
  Fractional occupation disabled.
  Guess Type is READ.
  Energy threshold   = 1.00e-08
  Density threshold  = 1.00e-08
  Integral threshold = 0.00e+00

  ==> Primary Basis <==

  Basis Set: 6-31G*
    Number of shells: 52
    Number of basis function: 97
    Number of Cartesian functions: 97
    Spherical Harmonics?: false
    Max angular momentum: 2

  ==> Pre-Iterations <==

   -------------------------------------------------------
    Irrep   Nso     Nmo     Nalpha   Nbeta   Ndocc  Nsocc
   -------------------------------------------------------
     A         97      97       0       0       0       0
   -------------------------------------------------------
    Total      97      97      21      21      21       0
   -------------------------------------------------------

 OEINTS: Overlap, kinetic, potential, dipole, and quadrupole integrals
         stored in file 35.

  ==> Integral Setup <==

  ==> DFJK: Density-Fitted J/K Matrices <==

    J tasked:                  Yes
    K tasked:                  Yes
    wK tasked:                  No
    OpenMP threads:              1
    Integrals threads:           1
    Memory (MB):              1430
    Algorithm:                Core
    Integral Cache:           NONE
    Schwarz Cutoff:          1E-12
    Fitting Condition:       1E-12

   => Auxiliary Basis Set <=

  Basis Set: 
    Number of shells: 219
    Number of basis function: 680
    Number of Cartesian functions: 680
    Spherical Harmonics?: false
    Max angular momentum: 3

  Minimum eigenvalue in the overlap matrix is 3.6070393582E-03.
  Using Symmetric Orthogonalization.
  SCF Guess: Reading in previously saved MOs, projecting if necessary.

  Using orbitals from previous SCF, no projection.
  Recomputing DOCC and SOCC from number of alpha and beta electrons from previous calculation.
              A 
    DOCC [    21 ]

  ==> Iterations <==

                           Total Energy        Delta E     RMS |[F,P]|

   @DF-RHF iter   0:  -212.31702046276411   -2.12317e+02   3.29368e-05 
   @DF-RHF iter   1:  -212.31702292506964   -2.46231e-06   6.84592e-06 
   @DF-RHF iter   2:  -212.31702334597202   -4.20902e-07   2.24851e-06 DIIS
   @DF-RHF iter   3:  -212.31702340467223   -5.87002e-08   3.04535e-07 DIIS
   @DF-RHF iter   4:  -212.31702340562305   -9.50820e-10   1.32824e-07 DIIS
   @DF-RHF iter   5:  -212.31702340581910   -1.96053e-10   3.47069e-08 DIIS
   @DF-RHF iter   6:  -212.31702340583593   -1.68257e-11   9.18861e-09 DIIS

  ==> Post-Iterations <==

    Orbital Energies (a.u.)
    -----------------------

    Doubly Occupied:                                                      

       1A    -15.532644     2A    -11.239910     3A    -11.215085  
       4A    -11.209679     5A    -11.207919     6A     -1.176745  
       7A     -1.059523     8A     -0.958671     9A     -0.843676  
      10A     -0.791994    11A     -0.664224    12A     -0.637078  
      13A     -0.605650    14A     -0.575351    15A     -0.564496  
      16A     -0.525333    17A     -0.500246    18A     -0.470238  
      19A     -0.464803    20A     -0.461627    21A     -0.381205  

    Virtual:                                                              

      22A      0.228432    23A      0.240518    24A      0.273334  
      25A      0.282291    26A      0.294515    27A      0.322099  
      28A      0.335015    29A      0.346537    30A      0.350172  
      31A      0.355161    32A      0.365058    33A      0.398050  
      34A      0.429642    35A      0.445618    36A      0.488992  
      37A      0.712334    38A      0.733618    39A      0.747274  
      40A      0.753553    41A      0.786862    42A      0.846827  
      43A      0.885362    44A      0.928998    45A      0.950594  
      46A      1.006135    47A      1.010017    48A      1.024974  
      49A      1.055869    50A      1.109723    51A      1.137859  
      52A      1.161093    53A      1.177849    54A      1.193893  
      55A      1.203329    56A      1.214701    57A      1.223679  
      58A      1.231089    59A      1.236936    60A      1.264477  
      61A      1.271083    62A      1.327349    63A      1.349552  
      64A      1.558988    65A      1.644810    66A      1.718337  
      67A      1.732820    68A      1.748247    69A      1.843150  
      70A      1.989936    71A      2.076939    72A      2.091883  
      73A      2.208015    74A      2.232478    75A      2.265335  
      76A      2.289828    77A      2.330565    78A      2.342248  
      79A      2.368240    80A      2.436791    81A      2.550624  
      82A      2.612184    83A      2.628277    84A      2.666509  
      85A      2.752268    86A      2.755890    87A      2.793397  
      88A      2.863026    89A      2.925769    90A      2.975961  
      91A      3.126127    92A      3.171505    93A      4.218890  
      94A      4.585493    95A      4.706231    96A      4.816012  
      97A      4.964561  

    Final Occupation by Irrep:
              A 
    DOCC [    21 ]

  Energy converged.

  @DF-RHF Final Energy:  -212.31702340583593

   => Energetics <=

    Nuclear Repulsion Energy =            186.2600847317997932
    One-Electron Energy =                -654.9820290976957722
    Two-Electron Energy =                 256.4049209600597123
    DFT Exchange-Correlation Energy =       0.0000000000000000
    Empirical Dispersion Energy =           0.0000000000000000
    PCM Polarization Energy =               0.0000000000000000
    EFP Energy =                            0.0000000000000000
    Total Energy =                       -212.3170234058362666

    Alert: EFP and PCM quantities not currently incorporated into SCF psivars.

Properties will be evaluated at   0.000000,   0.000000,   0.000000 Bohr
  ==> Properties <==


Properties computed using the SCF density matrix

  Nuclear Dipole Moment: (a.u.)
     X:    -2.7500      Y:     0.3415      Z:     0.6585

  Electronic Dipole Moment: (a.u.)
     X:     2.8287      Y:    -0.0362      Z:    -0.1936

  Dipole Moment: (a.u.)
     X:     0.0788      Y:     0.3053      Z:     0.4649     Total:     0.5617

  Dipole Moment: (Debye)
     X:     0.2002      Y:     0.7761      Z:     1.1816     Total:     1.4278


  Saving occupied orbitals to File 180.

*** tstop() called on cx1-3-16-4.cx1.hpc.ic.ac.uk at Tue Jul  5 16:20:25 2016
Module time:
	user time   =       5.49 seconds =       0.09 minutes
	system time =       0.03 seconds =       0.00 minutes
	total time  =          6 seconds =       0.10 minutes
Total time:
	user time   =      34.94 seconds =       0.58 minutes
	system time =       0.29 seconds =       0.00 minutes
	total time  =         37 seconds =       0.62 minutes

*** tstart() called on cx1-3-16-4.cx1.hpc.ic.ac.uk
*** at Tue Jul  5 16:20:25 2016


         ------------------------------------------------------------
                                   SCF GRAD                          
                          Rob Parrish, Justin Turney,                
                       Andy Simmonett, and Alex Sokolov              
         ------------------------------------------------------------

  ==> Geometry <==

    Molecular point group: c1
    Full point group: C1

    Geometry (in Angstrom), charge = 0, multiplicity = 1:

       Center              X                  Y                   Z               Mass       
    ------------   -----------------  -----------------  -----------------  -----------------
           H          3.276176597909     0.174363417872    -0.109463013140     1.007825032070
           N          2.434251846325    -0.367735202910    -0.081097092760    14.003074004780
           C          1.267427975051     0.496480014972     0.024473634184    12.000000000000
           H          2.501951236741    -0.965776191392     0.720574986528     1.007825032070
           C         -0.016085967026    -0.325158192243    -0.029487127724    12.000000000000
           H          1.288818486312     1.183520769690    -0.816092617566     1.007825032070
           H          1.267576455701     1.109062194028     0.929527421073     1.007825032070
           C         -1.282276247188     0.529072220212     0.046734932739    12.000000000000
           H         -0.012495024478    -0.908638867059    -0.945788538822     1.007825032070
           H         -0.015902422985    -1.041247959142     0.791955554316     1.007825032070
           C         -2.563919494212    -0.301774517197    -0.006060659396    12.000000000000
           H         -1.284083225918     1.244622220097    -0.773004672981     1.007825032070
           H         -1.271386765408     1.115393461154     0.963286154393     1.007825032070
           H         -2.621847344089    -0.873521686791    -0.927726981107     1.007825032070
           H         -3.445134934398     0.329951904011     0.047811292733     1.007825032070
           H         -2.609541991017    -1.004581950258     0.821105031286     1.007825032070

  Nuclear repulsion =  186.260084731799793

  ==> Basis Set <==

  Basis Set: 6-31G*
    Number of shells: 52
    Number of basis function: 97
    Number of Cartesian functions: 97
    Spherical Harmonics?: false
    Max angular momentum: 2

  ==> DFJKGrad: Density-Fitted SCF Gradients <==

    Gradient:                    1
    J tasked:                  Yes
    K tasked:                  Yes
    wK tasked:                  No
    OpenMP threads:              1
    Integrals threads:           1
    Memory (MB):              1430
    Schwarz Cutoff:          0E+00
    Fitting Condition:       1E-12

   => Auxiliary Basis Set <=

  Basis Set: 
    Number of shells: 219
    Number of basis function: 680
    Number of Cartesian functions: 680
    Spherical Harmonics?: false
    Max angular momentum: 3


  -Total Gradient:
     Atom            X                  Y                   Z
    ------   -----------------  -----------------  -----------------
       1       -0.000005678374    -0.000002585492     0.000003152307
       2        0.000008552745     0.000022378168    -0.000019420109
       3        0.000000587905    -0.000015554537     0.000034138567
       4        0.000003097492    -0.000016164680     0.000022397148
       5       -0.000001130057     0.000020957663    -0.000004078074
       6       -0.000002221264     0.000001505865    -0.000018857170
       7       -0.000000517614    -0.000000113428    -0.000002185612
       8       -0.000010546797    -0.000025737790     0.000057686929
       9        0.000010005665    -0.000013695461    -0.000039012878
      10       -0.000007467960     0.000000044394    -0.000000101581
      11       -0.000017545669     0.000018551876    -0.000005675955
      12       -0.000004448773     0.000008043445    -0.000030172416
      13        0.000001518731     0.000008184879    -0.000010588502
      14        0.000003856109     0.000010349564     0.000011058922
      15        0.000017798084    -0.000019167541     0.000002323398
      16        0.000004139783     0.000003003075    -0.000000664973


*** tstop() called on cx1-3-16-4.cx1.hpc.ic.ac.uk at Tue Jul  5 16:20:33 2016
Module time:
	user time   =       8.06 seconds =       0.13 minutes
	system time =       0.06 seconds =       0.00 minutes
	total time  =          8 seconds =       0.13 minutes
Total time:
	user time   =      43.00 seconds =       0.72 minutes
	system time =       0.35 seconds =       0.01 minutes
	total time  =         45 seconds =       0.75 minutes
CURRENT ENERGY: -212.3170234058

			-----------------------------------------
			 OPTKING 2.0: for geometry optimizations 
			  - R.A. King,  Bethel University        
			-----------------------------------------

	Previous internal coordinate definitions found.
	---Fragment 1 Geometry and Gradient---
	 H           6.1910765330        0.3294991074       -0.2068551165
	 N           4.6000693280       -0.6949188229       -0.1532512955
	 C           2.3950917660        0.9382112587        0.0462484661
	 H           4.7280026353       -1.8250525074        1.3616893827
	 C          -0.0303980723       -0.6144599332       -0.0557225958
	 H           2.4355139741        2.2365301273       -1.5421915463
	 H           2.3953723538        2.0958238111        1.7565522588
	 C          -2.4231509339        0.9998016007        0.0883162237
	 H          -0.0236121743       -1.7170786124       -1.7872813180
	 H          -0.0300512243       -1.9676734792        1.4965791071
	 C          -4.8451056708       -0.5702711914       -0.0114529864
	 H          -2.4265656288        2.3519951349       -1.4607671314
	 H          -2.4025727956        2.1077881720        1.8203470194
	 H          -4.9545734426       -1.6507167592       -1.7531499204
	 H          -6.5103615168        0.6235187356        0.0903502493
	 H          -4.9313196953       -1.8983847640        1.5516636355
	            -0.0000056784       -0.0000025855        0.0000031523
	             0.0000085527        0.0000223782       -0.0000194201
	             0.0000005879       -0.0000155545        0.0000341386
	             0.0000030975       -0.0000161647        0.0000223971
	            -0.0000011301        0.0000209577       -0.0000040781
	            -0.0000022213        0.0000015059       -0.0000188572
	            -0.0000005176       -0.0000001134       -0.0000021856
	            -0.0000105468       -0.0000257378        0.0000576869
	             0.0000100057       -0.0000136955       -0.0000390129
	            -0.0000074680        0.0000000444       -0.0000001016
	            -0.0000175457        0.0000185519       -0.0000056760
	            -0.0000044488        0.0000080434       -0.0000301724
	             0.0000015187        0.0000081849       -0.0000105885
	             0.0000038561        0.0000103496        0.0000110589
	             0.0000177981       -0.0000191675        0.0000023234
	             0.0000041398        0.0000030031       -0.0000006650

	---Fragment 1 Intrafragment Coordinates---
	 - Coordinate -           - BOHR/RAD -       - ANG/DEG -
	 R(1,2)           =         1.893042	       1.001755
	 R(2,3)           =         2.751152	       1.455847
	 R(2,4)           =         1.894364	       1.002454
	 R(3,5)           =         2.881699	       1.524929
	 R(3,6)           =         2.051928	       1.085833
	 R(3,7)           =         2.065238	       1.092877
	 R(5,8)           =         2.889957	       1.529300
	 R(5,9)           =         2.052830	       1.086311
	 R(5,10)          =         2.059327	       1.089749
	 R(8,11)          =         2.888070	       1.528301
	 R(8,12)          =         2.056234	       1.088112
	 R(8,13)          =         2.056207	       1.088098
	 R(11,14)         =         2.052524	       1.086149
	 R(11,15)         =         2.051481	       1.085597
	 R(11,16)         =         2.052962	       1.086381
	 B(1,2,3)         =         1.933087	     110.757725
	 B(1,2,4)         =         1.863689	     106.781524
	 B(2,3,5)         =         1.930697	     110.620813
	 B(2,3,6)         =         1.879345	     107.678512
	 B(2,3,7)         =         1.974339	     113.121313
	 B(3,2,4)         =         1.928659	     110.504049
	 B(3,5,8)         =         1.975941	     113.213098
	 B(3,5,9)         =         1.892801	     108.449503
	 B(3,5,10)        =         1.904178	     109.101388
	 B(5,3,6)         =         1.907213	     109.275229
	 B(5,3,7)         =         1.908616	     109.355633
	 B(5,8,11)        =         1.970279	     112.888649
	 B(5,8,12)        =         1.908319	     109.338602
	 B(5,8,13)        =         1.912068	     109.553440
	 B(6,3,7)         =         1.861281	     106.643553
	 B(8,5,9)         =         1.922823	     110.169654
	 B(8,5,10)        =         1.906695	     109.245602
	 B(8,11,14)       =         1.939291	     111.113171
	 B(8,11,15)       =         1.941914	     111.263488
	 B(8,11,16)       =         1.939718	     111.137651
	 B(9,5,10)        =         1.857582	     106.431607
	 B(11,8,12)       =         1.907189	     109.273892
	 B(11,8,13)       =         1.907558	     109.295015
	 B(12,8,13)       =         1.854853	     106.275252
	 B(14,11,15)      =         1.880878	     107.766391
	 B(14,11,16)      =         1.878963	     107.656660
	 B(15,11,16)      =         1.880298	     107.733139
	 D(1,2,3,5)       =         3.073475	     176.097149
	 D(1,2,3,6)       =         0.990452	      56.748730
	 D(1,2,3,7)       =        -1.061673	     -60.829391
	 D(2,3,5,8)       =        -3.120123	    -178.769874
	 D(2,3,5,9)       =        -0.980577	     -56.182929
	 D(2,3,5,10)      =         1.035937	      59.354839
	 D(3,5,8,11)      =        -3.140250	    -179.923091
	 D(3,5,8,12)      =         1.016029	      58.214180
	 D(3,5,8,13)      =        -1.010181	     -57.879102
	 D(4,2,3,5)       =        -1.148047	     -65.778260
	 D(4,2,3,6)       =         3.052115	     174.873321
	 D(4,2,3,7)       =         0.999990	      57.295200
	 D(5,8,11,14)     =        -1.043753	     -59.802631
	 D(5,8,11,15)     =        -3.139594	    -179.885493
	 D(5,8,11,16)     =         1.048197	      60.057256
	 D(6,3,5,8)       =        -1.053994	     -60.389415
	 D(6,3,5,9)       =         1.085552	      62.197530
	 D(6,3,5,10)      =         3.102066	     177.735299
	 D(7,3,5,8)       =         0.977363	      55.998785
	 D(7,3,5,9)       =         3.116909	     178.585731
	 D(7,3,5,10)      =        -1.149762	     -65.876501
	 D(9,5,8,11)      =         1.020155	      58.450570
	 D(9,5,8,12)      =        -1.106751	     -63.412160
	 D(9,5,8,13)      =        -3.132961	    -179.505442
	 D(10,5,8,11)     =        -1.014535	     -58.128571
	 D(10,5,8,12)     =        -3.141441	    -179.991301
	 D(10,5,8,13)     =         1.115534	      63.915417
	 D(12,8,11,14)    =         1.083789	      62.096545
	 D(12,8,11,15)    =        -1.012052	     -57.986318
	 D(12,8,11,16)    =        -3.107446	    -178.043568
	 D(13,8,11,14)    =         3.106829	     178.008202
	 D(13,8,11,15)    =         1.010988	      57.925340
	 D(13,8,11,16)    =        -1.084406	     -62.131911

	Current energy   :      -212.3170234058

	Energy change for the previous step:
		Projected    :         0.0000010198
		Actual       :        -0.0000000264

	Performing BFGS update.
	Previous computed or guess Hessian on step 1.
	Steps to be used in Hessian update: 2 1
	Taking RFO optimization step.
	Going to follow RFO solution 1.
	Using RFO vector 1.
	Norm of target step-size    0.00972
	Projected energy change by RFO approximation:         0.0000002575

	Back-transformation to cartesian coordinates...
	Successfully converged to displaced geometry.

	--- Internal Coordinate Step in ANG or DEG, aJ/ANG or AJ/DEG ---
	 ---------------------------------------------------------------------------
	   Coordinate                Previous        Force       Change         New 
	   ----------                --------       ------       ------       ------
	    1 R(1,2)          =      1.001755     0.000052     0.000007     1.001762
	    2 R(2,3)          =      1.455847    -0.000018    -0.000008     1.455839
	    3 R(2,4)          =      1.002454    -0.000229    -0.000024     1.002430
	    4 R(3,5)          =      1.524929     0.000015     0.000013     1.524942
	    5 R(3,6)          =      1.085833    -0.000128    -0.000022     1.085811
	    6 R(3,7)          =      1.092877     0.000015     0.000000     1.092877
	    7 R(5,8)          =      1.529300    -0.000060    -0.000004     1.529296
	    8 R(5,9)          =      1.086311    -0.000332    -0.000035     1.086275
	    9 R(5,10)         =      1.089749     0.000001    -0.000006     1.089743
	   10 R(8,11)         =      1.528301     0.000116     0.000014     1.528315
	   11 R(8,12)         =      1.088112    -0.000231    -0.000032     1.088080
	   12 R(8,13)         =      1.088098     0.000037     0.000016     1.088114
	   13 R(11,14)        =      1.086149     0.000124     0.000017     1.086166
	   14 R(11,15)        =      1.085597     0.000210     0.000024     1.085621
	   15 R(11,16)        =      1.086381     0.000022     0.000005     1.086385
	   16 B(1,2,3)        =    110.757725     0.000000     0.000378   110.758103
	   17 B(1,2,4)        =    106.781524     0.000000    -0.001152   106.780372
	   18 B(2,3,5)        =    110.620813    -0.000001    -0.001506   110.619307
	   19 B(2,3,6)        =    107.678512     0.000000     0.000072   107.678585
	   20 B(2,3,7)        =    113.121313     0.000001    -0.000246   113.121067
	   21 B(3,2,4)        =    110.504049    -0.000000    -0.000606   110.503442
	   22 B(3,5,8)        =    113.213098    -0.000000     0.001080   113.214178
	   23 B(3,5,9)        =    108.449503     0.000000    -0.002644   108.446859
	   24 B(3,5,10)       =    109.101388     0.000000    -0.000573   109.100815
	   25 B(5,3,6)        =    109.275229     0.000001     0.001380   109.276609
	   26 B(5,3,7)        =    109.355633     0.000000     0.001813   109.357446
	   27 B(5,8,11)       =    112.888649     0.000000     0.000530   112.889179
	   28 B(5,8,12)       =    109.338602     0.000000     0.000247   109.338850
	   29 B(5,8,13)       =    109.553440    -0.000000     0.006947   109.560387
	   30 B(6,3,7)        =    106.643553    -0.000000    -0.001468   106.642085
	   31 B(8,5,9)        =    110.169654    -0.000001     0.003215   110.172869
	   32 B(8,5,10)       =    109.245602     0.000001     0.004187   109.249789
	   33 B(8,11,14)      =    111.113171     0.000000     0.000117   111.113288
	   34 B(8,11,15)      =    111.263488    -0.000001    -0.004105   111.259383
	   35 B(8,11,16)      =    111.137651     0.000001    -0.001030   111.136622
	   36 B(9,5,10)       =    106.431607    -0.000000    -0.005781   106.425826
	   37 B(11,8,12)      =    109.273892     0.000000    -0.004476   109.269416
	   38 B(11,8,13)      =    109.295015     0.000000    -0.000364   109.294651
	   39 B(12,8,13)      =    106.275252    -0.000000    -0.003141   106.272111
	   40 B(14,11,15)     =    107.766391    -0.000000     0.002427   107.768818
	   41 B(14,11,16)     =    107.656660    -0.000000     0.000716   107.657376
	   42 B(15,11,16)     =    107.733139     0.000000     0.002181   107.735320
	   43 D(1,2,3,5)      =    176.097149     0.000000    -0.001100   176.096049
	   44 D(1,2,3,6)      =     56.748730    -0.000000    -0.001951    56.746778
	   45 D(1,2,3,7)      =    -60.829391    -0.000000    -0.000044   -60.829435
	   46 D(2,3,5,8)      =   -178.769874     0.000000     0.049404  -178.720471
	   47 D(2,3,5,9)      =    -56.182929     0.000000     0.052326   -56.130603
	   48 D(2,3,5,10)     =     59.354839    -0.000000     0.043729    59.398568
	   49 D(3,5,8,11)     =   -179.923091    -0.000000    -0.181595  -180.104686
	   50 D(3,5,8,12)     =     58.214180    -0.000000    -0.176407    58.037773
	   51 D(3,5,8,13)     =    -57.879102    -0.000000    -0.176695   -58.055797
	   52 D(4,2,3,5)      =    -65.778260     0.000000    -0.002673   -65.780933
	   53 D(4,2,3,6)      =    174.873321    -0.000000    -0.003524   174.869797
	   54 D(4,2,3,7)      =     57.295200    -0.000000    -0.001617    57.293583
	   55 D(5,8,11,14)    =    -59.802631    -0.000000     0.029832   -59.772799
	   56 D(5,8,11,15)    =   -179.885493     0.000000     0.029437  -179.856056
	   57 D(5,8,11,16)    =     60.057256     0.000000     0.030127    60.087383
	   58 D(6,3,5,8)      =    -60.389415     0.000000     0.049439   -60.339977
	   59 D(6,3,5,9)      =     62.197530    -0.000000     0.052361    62.249891
	   60 D(6,3,5,10)     =    177.735299    -0.000000     0.043763   177.779062
	   61 D(7,3,5,8)      =     55.998785     0.000000     0.049481    56.048266
	   62 D(7,3,5,9)      =    178.585731     0.000000     0.052403   178.638134
	   63 D(7,3,5,10)     =    -65.876501    -0.000000     0.043805   -65.832696
	   64 D(9,5,8,11)     =     58.450570    -0.000000    -0.181278    58.269292
	   65 D(9,5,8,12)     =    -63.412160    -0.000000    -0.176091   -63.588250
	   66 D(9,5,8,13)     =   -179.505442    -0.000000    -0.176378  -179.681820
	   67 D(10,5,8,11)    =    -58.128571    -0.000000    -0.178580   -58.307151
	   68 D(10,5,8,12)    =   -179.991301    -0.000000    -0.173392  -180.164693
	   69 D(10,5,8,13)    =     63.915417    -0.000000    -0.173680    63.741737
	   70 D(12,8,11,14)   =     62.096545    -0.000000     0.027306    62.123851
	   71 D(12,8,11,15)   =    -57.986318     0.000000     0.026911   -57.959407
	   72 D(12,8,11,16)   =   -178.043568     0.000000     0.027601  -178.015967
	   73 D(13,8,11,14)   =    178.008202     0.000000     0.020837   178.029040
	   74 D(13,8,11,15)   =     57.925340     0.000000     0.020443    57.945783
	   75 D(13,8,11,16)   =    -62.131911     0.000000     0.021133   -62.110778
	 ---------------------------------------------------------------------------

  ==> Convergence Check <==

  Measures of convergence in internal coordinates in au.
  Criteria marked as inactive (o), active & met (*), and active & unmet ( ).
  ---------------------------------------------------------------------------------------------
   Step     Total Energy     Delta E     MAX Force     RMS Force      MAX Disp      RMS Disp   
  ---------------------------------------------------------------------------------------------
    Convergence Criteria    1.00e-06 *    3.00e-04 *             o    1.20e-03 *             o
  ---------------------------------------------------------------------------------------------
      3    -212.31702341   -2.64e-08 *    4.03e-05 *    9.38e-06 o    3.17e-03      1.12e-03 o  ~
  ---------------------------------------------------------------------------------------------


  **** Optimization is complete! (in 3 steps) ****

  ==> Optimization Summary <==

  Measures of convergence in internal coordinates in au.
  --------------------------------------------------------------------------------------------------------------- ~
   Step         Total Energy             Delta E       MAX Force       RMS Force        MAX Disp        RMS Disp  ~
  --------------------------------------------------------------------------------------------------------------- ~
      1    -212.317020667892   -212.317020667892      0.00058872      0.00015380      0.00308831      0.00098507  ~
      2    -212.317023379419     -0.000002711527      0.00004460      0.00001687      0.00431585      0.00143873  ~
      3    -212.317023405836     -0.000000026417      0.00004030      0.00000938      0.00316943      0.00112244  ~
  --------------------------------------------------------------------------------------------------------------- ~

	Writing optimization data to binary file.
	Final energy is   -212.3170234058359
	Final (previous) structure:
	Cartesian Geometry (in Angstrom)
	    H     3.2761768481   0.1743634312  -0.1094630215
	    N     2.4342520322  -0.3677352310  -0.0810970990
	    C     1.2674280718   0.4964800529   0.0244736361
	    H     2.5019514278  -0.9657762651   0.7205750416
	    C    -0.0160859683  -0.3251582171  -0.0294871300
	    H     1.2888185847   1.1835208601  -0.8160926799
	    H     1.2675765525   1.1090622787   0.9295274921
	    C    -1.2822763451   0.5290722606   0.0467349363
	    H    -0.0124950254  -0.9086389364  -0.9457886110
	    H    -0.0159024242  -1.0412480387   0.7919556148
	    C    -2.5639196900  -0.3017745402  -0.0060606599
	    H    -1.2840833240   1.2446223151  -0.7730047320
	    H    -1.2713868625   1.1153935463   0.9632862280
	    H    -2.6218475443  -0.8735217535  -0.9277270520
	    H    -3.4451351975   0.3299519292   0.0478112964
	    H    -2.6095421903  -1.0045820270   0.8211050940
	Saving final (previous) structure.
			--------------------------
			 OPTKING Finished Execution 
			--------------------------

    Final optimized geometry and variables:
    Molecular point group: c1
    Full point group: C1

    Geometry (in Angstrom), charge = 0, multiplicity = 1:

    H            3.276176597909     0.174363417872    -0.109463013140
    N            2.434251846325    -0.367735202910    -0.081097092760
    C            1.267427975051     0.496480014972     0.024473634184
    H            2.501951236741    -0.965776191392     0.720574986528
    C           -0.016085967026    -0.325158192243    -0.029487127724
    H            1.288818486312     1.183520769690    -0.816092617566
    H            1.267576455701     1.109062194028     0.929527421073
    C           -1.282276247188     0.529072220212     0.046734932739
    H           -0.012495024478    -0.908638867059    -0.945788538822
    H           -0.015902422985    -1.041247959142     0.791955554316
    C           -2.563919494212    -0.301774517197    -0.006060659396
    H           -1.284083225918     1.244622220097    -0.773004672981
    H           -1.271386765408     1.115393461154     0.963286154393
    H           -2.621847344089    -0.873521686791    -0.927726981107
    H           -3.445134934398     0.329951904011     0.047811292733
    H           -2.609541991017    -1.004581950258     0.821105031286

	Cleaning optimization helper files.


Properties will be evaluated at   0.000000,   0.000000,   0.000000 Bohr

Properties computed using the  density matrix

  Nuclear Dipole Moment: (a.u.)
     X:    -2.7500      Y:     0.3415      Z:     0.6585

  Electronic Dipole Moment: (a.u.)
     X:     2.8287      Y:    -0.0362      Z:    -0.1936

  Dipole Moment: (a.u.)
     X:     0.0788      Y:     0.3053      Z:     0.4649     Total:     0.5617

  Dipole Moment: (Debye)
     X:     0.2002      Y:     0.7761      Z:     1.1816     Total:     1.4278

  Quadrupole Moment: (Debye Ang)
    XX:   -32.5720     YY:   -34.6653     ZZ:   -34.1359
    XY:     1.8902     XZ:     3.2487     YZ:    -1.8539

  Traceless Quadrupole Moment: (Debye Ang)
    XX:     1.2191     YY:    -0.8742     ZZ:    -0.3449
    XY:     1.8902     XZ:     3.2487     YZ:    -1.8539

  Mulliken Charges: (a.u.)
   Center  Symbol    Alpha    Beta     Spin     Total
       1     H     0.33248  0.33248  0.00000  0.33505
       2     N     3.92176  3.92176  0.00000 -0.84353
       3     C     3.06038  3.06038  0.00000 -0.12077
       4     H     0.33533  0.33533  0.00000  0.32933
       5     C     3.15035  3.15035  0.00000 -0.30071
       6     H     0.42086  0.42086  0.00000  0.15828
       7     H     0.43480  0.43480  0.00000  0.13039
       8     C     3.15560  3.15560  0.00000 -0.31119
       9     H     0.41335  0.41335  0.00000  0.17330
      10     H     0.42796  0.42796  0.00000  0.14409
      11     C     3.23868  3.23868  0.00000 -0.47735
      12     H     0.42254  0.42254  0.00000  0.15493
      13     H     0.42380  0.42380  0.00000  0.15241
      14     H     0.42053  0.42053  0.00000  0.15895
      15     H     0.41962  0.41962  0.00000  0.16075
      16     H     0.42197  0.42197  0.00000  0.15607

   Total alpha = 21.00000, Total beta = 21.00000, Total charge =  0.00000


*** PSI4 exiting successfully. Buy a developer a beer!
