    -----------------------------------------------------------------------
          Psi4: An Open-Source Ab Initio Electronic Structure Package
                              Psi4 (no tag) Driver

                          Git: Rev {detached?}  

    J. M. Turney, A. C. Simmonett, R. M. Parrish, E. G. Hohenstein,
    F. A. Evangelista, J. T. Fermann, B. J. Mintz, L. A. Burns, J. J. Wilke,
    M. L. Abrams, N. J. Russ, M. L. Leininger, C. L. Janssen, E. T. Seidl,
    W. D. Allen, H. F. Schaefer, R. A. King, E. F. Valeev, C. D. Sherrill,
    and T. D. Crawford, WIREs Comput. Mol. Sci. 2, 556-565 (2012)
    (doi: 10.1002/wcms.93)

                         Additional Contributions by
    A. E. DePrince, M. Saitow, U. Bozkaya, A. Yu. Sokolov
    -----------------------------------------------------------------------


    Psi4 started on: Tue Jul  5 16:36:22 2016

    Process ID:  19454
    PSI4DATADIR: /export131/home/mjharvey/miniconda3/share
    Memory level set to 256.000 MB

  ==> Input File <==

--------------------------------------------------------------------------
set {
	reference rhf
	basis 6-31G*
}


set_num_threads( 1 )
memory 2 gb

molecule MOL {
0 1

H	 -0.142306	 -1.764468	 -2.940538
O	 -0.055551	 -1.082533	 -2.281580
C	 -0.424494	 -1.592694	 -1.107166
C	 -0.318135	 -0.576402	 0.000164
O	 -0.786870	 -2.718088	 -0.992410
C	 -1.454360	 0.441875	 -0.000474
H	 -0.278694	 -1.122640	 0.938818
H	 0.648115	 -0.089019	 -0.098941
C	 -2.826123	 -0.230780	 0.000056
H	 -1.357605	 1.085198	 -0.868380
H	 -1.357504	 1.086451	 0.866496
H	 -2.959731	 -0.858053	 -0.876869
H	 -3.619374	 0.509403	 -0.000080
H	 -2.959371	 -0.857318	 0.877556

	symmetry c1
}
set optking {
	frozen_dihedral = ("
		7 4 6 10,
		1 2 3 5
	")
}

ee = energy('scf')
oeprop('DIPOLE', 'QUADRUPOLE', 'MULLIKEN_CHARGES')
f=open( 'psi4out.xyz', 'w' )
f.write( "14  " )
f.write( str(ee) + "\n" )
f.write( MOL.save_string_xyz() )
f.close()
--------------------------------------------------------------------------

  Memory set to   2.000 GiB by Python script.

*** tstart() called on cx1-3-16-4.cx1.hpc.ic.ac.uk
*** at Tue Jul  5 16:36:22 2016


         ---------------------------------------------------------
                                   SCF
            by Justin Turney, Rob Parrish, and Andy Simmonett
                              RHF Reference
                        1 Threads,   2000 MiB Core
         ---------------------------------------------------------

  ==> Geometry <==

    Molecular point group: c1
    Full point group: C1

    Geometry (in Angstrom), charge = 0, multiplicity = 1:

       Center              X                  Y                   Z               Mass       
    ------------   -----------------  -----------------  -----------------  -----------------
           H          0.832935387137    -0.784224766564    -2.170830490102     1.007825032070
           O          0.919690387137    -0.102289766564    -1.511872490102    15.994914619560
           C          0.550747387137    -0.612450766564    -0.337458490102    12.000000000000
           C          0.657106387137     0.403841233436     0.769871509898    12.000000000000
           O          0.188371387137    -1.737844766564    -0.222702490102    15.994914619560
           C         -0.479118612863     1.422118233436     0.769233509898    12.000000000000
           H          0.696547387137    -0.142396766564     1.708525509898     1.007825032070
           H          1.623356387137     0.891224233436     0.670766509898     1.007825032070
           C         -1.850881612863     0.749463233436     0.769763509898    12.000000000000
           H         -0.382363612863     2.065441233436    -0.098672490102     1.007825032070
           H         -0.382262612863     2.066694233436     1.636203509898     1.007825032070
           H         -1.984489612863     0.122190233436    -0.107161490102     1.007825032070
           H         -2.644132612863     1.489646233436     0.769627509898     1.007825032070
           H         -1.984129612863     0.122925233436     1.647263509898     1.007825032070

  Running in c1 symmetry.

  Rotational constants: A =      0.19053  B =      0.08321  C =      0.07468 [cm^-1]
  Rotational constants: A =   5711.86948  B =   2494.61540  C =   2238.91849 [MHz]
  Nuclear repulsion =  246.717260975696689

  Charge       = 0
  Multiplicity = 1
  Electrons    = 48
  Nalpha       = 24
  Nbeta        = 24

  ==> Algorithm <==

  SCF Algorithm Type is DF.
  DIIS enabled.
  MOM disabled.
  Fractional occupation disabled.
  Guess Type is CORE.
  Energy threshold   = 1.00e-06
  Density threshold  = 1.00e-06
  Integral threshold = 0.00e+00

  ==> Primary Basis <==

  Basis Set: 6-31G*
    Number of shells: 52
    Number of basis function: 106
    Number of Cartesian functions: 106
    Spherical Harmonics?: false
    Max angular momentum: 2

  ==> Pre-Iterations <==

   -------------------------------------------------------
    Irrep   Nso     Nmo     Nalpha   Nbeta   Ndocc  Nsocc
   -------------------------------------------------------
     A        106     106       0       0       0       0
   -------------------------------------------------------
    Total     106     106      24      24      24       0
   -------------------------------------------------------

 OEINTS: Overlap, kinetic, potential, dipole, and quadrupole integrals
         stored in file 35.

  ==> Integral Setup <==

  ==> DFJK: Density-Fitted J/K Matrices <==

    J tasked:                  Yes
    K tasked:                  Yes
    wK tasked:                  No
    OpenMP threads:              1
    Integrals threads:           1
    Memory (MB):              1430
    Algorithm:                Core
    Integral Cache:           NONE
    Schwarz Cutoff:          1E-12
    Fitting Condition:       1E-12

   => Auxiliary Basis Set <=

  Basis Set: 
    Number of shells: 216
    Number of basis function: 686
    Number of Cartesian functions: 686
    Spherical Harmonics?: false
    Max angular momentum: 3

  Minimum eigenvalue in the overlap matrix is 3.5083753709E-03.
  Using Symmetric Orthogonalization.
  SCF Guess: Core (One-Electron) Hamiltonian.

  ==> Iterations <==

                           Total Energy        Delta E     RMS |[F,P]|

   @DF-RHF iter   1:  -244.33910472561550   -2.44339e+02   7.44032e-02 
   @DF-RHF iter   2:  -164.04094381232730    8.02982e+01   8.50033e-02 DIIS
   @DF-RHF iter   3:  -278.47156947670464   -1.14431e+02   4.02469e-02 DIIS
   @DF-RHF iter   4:  -245.11593670269625    3.33556e+01   7.61152e-02 DIIS
   @DF-RHF iter   5:  -282.02200766108672   -3.69061e+01   4.65557e-02 DIIS
   @DF-RHF iter   6:  -302.28379872131927   -2.02618e+01   2.06430e-02 DIIS
   @DF-RHF iter   7:  -305.14380684371565   -2.86001e+00   1.21779e-02 DIIS
   @DF-RHF iter   8:  -305.84947693191407   -7.05670e-01   1.69709e-03 DIIS
   @DF-RHF iter   9:  -305.87442727459938   -2.49503e-02   5.36044e-04 DIIS
   @DF-RHF iter  10:  -305.87714952841043   -2.72225e-03   2.03964e-04 DIIS
   @DF-RHF iter  11:  -305.87760562934250   -4.56101e-04   5.90532e-05 DIIS
   @DF-RHF iter  12:  -305.87765924358200   -5.36142e-05   1.89865e-05 DIIS
   @DF-RHF iter  13:  -305.87766494107007   -5.69749e-06   6.70105e-06 DIIS
   @DF-RHF iter  14:  -305.87766572580381   -7.84734e-07   3.81752e-06 DIIS
   @DF-RHF iter  15:  -305.87766584178712   -1.15983e-07   1.06165e-06 DIIS
   @DF-RHF iter  16:  -305.87766585961367   -1.78266e-08   2.58485e-07 DIIS

  ==> Post-Iterations <==

    Orbital Energies (a.u.)
    -----------------------

    Doubly Occupied:                                                      

       1A    -20.613917     2A    -20.550866     3A    -11.380564  
       4A    -11.238961     5A    -11.234984     6A    -11.216195  
       7A     -1.475125     8A     -1.365520     9A     -1.087703  
      10A     -0.974852    11A     -0.859874    12A     -0.803915  
      13A     -0.701240    14A     -0.680890    15A     -0.648830  
      16A     -0.627905    17A     -0.594033    18A     -0.573207  
      19A     -0.551394    20A     -0.511264    21A     -0.495802  
      22A     -0.488137    23A     -0.473273    24A     -0.438753  

    Virtual:                                                              

      25A      0.186862    26A      0.226187    27A      0.257452  
      28A      0.282086    29A      0.287804    30A      0.309796  
      31A      0.319968    32A      0.333612    33A      0.342880  
      34A      0.388098    35A      0.407439    36A      0.456244  
      37A      0.510793    38A      0.546696    39A      0.708676  
      40A      0.720940    41A      0.731418    42A      0.785280  
      43A      0.820250    44A      0.845816    45A      0.874860  
      46A      0.899964    47A      0.943334    48A      0.957287  
      49A      1.009078    50A      1.043311    51A      1.084187  
      52A      1.099761    53A      1.120916    54A      1.142510  
      55A      1.180537    56A      1.185004    57A      1.197565  
      58A      1.216204    59A      1.223420    60A      1.235783  
      61A      1.246112    62A      1.278463    63A      1.339701  
      64A      1.364121    65A      1.403841    66A      1.487654  
      67A      1.639757    68A      1.645753    69A      1.668640  
      70A      1.763658    71A      1.824560    72A      1.886003  
      73A      1.942681    74A      1.959568    75A      2.020243  
      76A      2.069225    77A      2.103268    78A      2.137181  
      79A      2.140617    80A      2.217367    81A      2.263850  
      82A      2.295703    83A      2.316347    84A      2.387642  
      85A      2.419629    86A      2.456340    87A      2.592290  
      88A      2.626682    89A      2.678659    90A      2.697416  
      91A      2.750106    92A      2.760853    93A      2.849741  
      94A      2.959987    95A      3.031705    96A      3.047837  
      97A      3.135404    98A      3.234974    99A      3.374610  
     100A      3.478477   101A      4.267756   102A      4.518597  
     103A      4.604345   104A      4.687337   105A      4.860776  
     106A      4.982865  

    Final Occupation by Irrep:
              A 
    DOCC [    24 ]

  Energy converged.

  @DF-RHF Final Energy:  -305.87766585961367

   => Energetics <=

    Nuclear Repulsion Energy =            246.7172609756966892
    One-Electron Energy =                -906.0153712678720694
    Two-Electron Energy =                 353.4204444325615100
    DFT Exchange-Correlation Energy =       0.0000000000000000
    Empirical Dispersion Energy =           0.0000000000000000
    PCM Polarization Energy =               0.0000000000000000
    EFP Energy =                            0.0000000000000000
    Total Energy =                       -305.8776658596138418

    Alert: EFP and PCM quantities not currently incorporated into SCF psivars.

Properties will be evaluated at   0.000000,   0.000000,   0.000000 Bohr
  ==> Properties <==


Properties computed using the SCF density matrix

  Nuclear Dipole Moment: (a.u.)
     X:    -3.9551      Y:     5.4580      Z:     3.7938

  Electronic Dipole Moment: (a.u.)
     X:     4.0917      Y:    -4.7478      Z:    -3.8880

  Dipole Moment: (a.u.)
     X:     0.1367      Y:     0.7102      Z:    -0.0942     Total:     0.7294

  Dipole Moment: (Debye)
     X:     0.3474      Y:     1.8052      Z:    -0.2395     Total:     1.8539


  Saving occupied orbitals to File 180.

*** tstop() called on cx1-3-16-4.cx1.hpc.ic.ac.uk at Tue Jul  5 16:36:32 2016
Module time:
	user time   =       9.22 seconds =       0.15 minutes
	system time =       0.06 seconds =       0.00 minutes
	total time  =         10 seconds =       0.17 minutes
Total time:
	user time   =       9.22 seconds =       0.15 minutes
	system time =       0.06 seconds =       0.00 minutes
	total time  =         10 seconds =       0.17 minutes


Properties will be evaluated at   0.000000,   0.000000,   0.000000 Bohr

Properties computed using the  density matrix

  Nuclear Dipole Moment: (a.u.)
     X:    -3.9551      Y:     5.4580      Z:     3.7938

  Electronic Dipole Moment: (a.u.)
     X:     4.0917      Y:    -4.7478      Z:    -3.8880

  Dipole Moment: (a.u.)
     X:     0.1367      Y:     0.7102      Z:    -0.0942     Total:     0.7294

  Dipole Moment: (Debye)
     X:     0.3474      Y:     1.8052      Z:    -0.2395     Total:     1.8539

  Quadrupole Moment: (Debye Ang)
    XX:   -36.2443     YY:   -41.7745     ZZ:   -32.3495
    XY:    -1.4107     XZ:    -0.0311     YZ:     3.2279

  Traceless Quadrupole Moment: (Debye Ang)
    XX:     0.5451     YY:    -4.9851     ZZ:     4.4399
    XY:    -1.4107     XZ:    -0.0311     YZ:     3.2279

  Mulliken Charges: (a.u.)
   Center  Symbol    Alpha    Beta     Spin     Total
       1     H     0.26805  0.26805  0.00000  0.46390
       2     O     4.34709  4.34709  0.00000 -0.69418
       3     C     2.63312  2.63312  0.00000  0.73376
       4     C     3.19855  3.19855  0.00000 -0.39710
       5     O     4.27909  4.27909  0.00000 -0.55818
       6     C     3.16178  3.16178  0.00000 -0.32355
       7     H     0.39919  0.39919  0.00000  0.20162
       8     H     0.40131  0.40131  0.00000  0.19738
       9     C     3.24609  3.24609  0.00000 -0.49218
      10     H     0.40935  0.40935  0.00000  0.18131
      11     H     0.41196  0.41196  0.00000  0.17608
      12     H     0.41326  0.41326  0.00000  0.17347
      13     H     0.41654  0.41654  0.00000  0.16692
      14     H     0.41463  0.41463  0.00000  0.17073

   Total alpha = 24.00000, Total beta = 24.00000, Total charge = -0.00000


*** PSI4 exiting successfully. Buy a developer a beer!
