    -----------------------------------------------------------------------
          Psi4: An Open-Source Ab Initio Electronic Structure Package
                              Psi4 (no tag) Driver

                          Git: Rev {detached?}  

    J. M. Turney, A. C. Simmonett, R. M. Parrish, E. G. Hohenstein,
    F. A. Evangelista, J. T. Fermann, B. J. Mintz, L. A. Burns, J. J. Wilke,
    M. L. Abrams, N. J. Russ, M. L. Leininger, C. L. Janssen, E. T. Seidl,
    W. D. Allen, H. F. Schaefer, R. A. King, E. F. Valeev, C. D. Sherrill,
    and T. D. Crawford, WIREs Comput. Mol. Sci. 2, 556-565 (2012)
    (doi: 10.1002/wcms.93)

                         Additional Contributions by
    A. E. DePrince, M. Saitow, U. Bozkaya, A. Yu. Sokolov
    -----------------------------------------------------------------------


    Psi4 started on: Tue Jul  5 16:35:19 2016

    Process ID:  17606
    PSI4DATADIR: /export131/home/mjharvey/miniconda3/share
    Memory level set to 256.000 MB

  ==> Input File <==

--------------------------------------------------------------------------
set {
	reference rhf
	basis 6-31G*
}


set_num_threads( 1 )
memory 2 gb

molecule MOL {
0 1

O	 -0.682937	 1.318834	 -0.186099
C	 -0.860635	 0.152188	 -0.042321
C	 -2.173363	 -0.477127	 0.338347
O	 0.083258	 -0.765189	 -0.202595
H	 -2.477673	 -1.180929	 -0.427595
H	 -2.923125	 0.290956	 0.455536
H	 -2.058825	 -1.029004	 1.264191
C	 0.408394	 -1.179386	 -1.527557
C	 -0.744833	 -1.921286	 -2.177403
H	 1.300280	 -1.786805	 -1.500666
H	 0.623262	 -0.260412	 -2.053692
H	 -0.496180	 -2.156268	 -3.207784
H	 -0.949236	 -2.848555	 -1.657057
H	 -1.641378	 -1.310867	 -2.173969

	symmetry c1
}
set optking {
	frozen_dihedral = ("
		10 8 4 2
	")
}

ee = energy('scf')
oeprop('DIPOLE', 'QUADRUPOLE', 'MULLIKEN_CHARGES')
f=open( 'psi4out.xyz', 'w' )
f.write( "14  " )
f.write( str(ee) + "\n" )
f.write( MOL.save_string_xyz() )
f.close()
--------------------------------------------------------------------------

  Memory set to   2.000 GiB by Python script.

*** tstart() called on cx1-1-2-4.cx1.hpc.ic.ac.uk
*** at Tue Jul  5 16:35:19 2016


         ---------------------------------------------------------
                                   SCF
            by Justin Turney, Rob Parrish, and Andy Simmonett
                              RHF Reference
                        1 Threads,   2000 MiB Core
         ---------------------------------------------------------

  ==> Geometry <==

    Molecular point group: c1
    Full point group: C1

    Geometry (in Angstrom), charge = 0, multiplicity = 1:

       Center              X                  Y                   Z               Mass       
    ------------   -----------------  -----------------  -----------------  -----------------
           O         -0.015977462212     1.802797563658     0.455543173552    15.994914619560
           C         -0.193675462212     0.636151563658     0.599321173552    12.000000000000
           C         -1.506403462212     0.006836563658     0.979989173552    12.000000000000
           O          0.750217537788    -0.281225436342     0.439047173552    15.994914619560
           H         -1.810713462212    -0.696965436342     0.214047173552     1.007825032070
           H         -2.256165462212     0.774919563658     1.097178173552     1.007825032070
           H         -1.391865462212    -0.545040436342     1.905833173552     1.007825032070
           C          1.075353537788    -0.695422436342    -0.885914826448    12.000000000000
           C         -0.077873462212    -1.437322436342    -1.535760826448    12.000000000000
           H          1.967239537788    -1.302841436342    -0.859023826448     1.007825032070
           H          1.290221537788     0.223551563658    -1.412049826448     1.007825032070
           H          0.170779537788    -1.672304436342    -2.566141826448     1.007825032070
           H         -0.282276462212    -2.364591436342    -1.015414826448     1.007825032070
           H         -0.974418462212    -0.826903436342    -1.532326826448     1.007825032070

  Running in c1 symmetry.

  Rotational constants: A =      0.19363  B =      0.09234  C =      0.07557 [cm^-1]
  Rotational constants: A =   5805.02861  B =   2768.26536  C =   2265.65845 [MHz]
  Nuclear repulsion =  251.109355261743389

  Charge       = 0
  Multiplicity = 1
  Electrons    = 48
  Nalpha       = 24
  Nbeta        = 24

  ==> Algorithm <==

  SCF Algorithm Type is DF.
  DIIS enabled.
  MOM disabled.
  Fractional occupation disabled.
  Guess Type is CORE.
  Energy threshold   = 1.00e-06
  Density threshold  = 1.00e-06
  Integral threshold = 0.00e+00

  ==> Primary Basis <==

  Basis Set: 6-31G*
    Number of shells: 52
    Number of basis function: 106
    Number of Cartesian functions: 106
    Spherical Harmonics?: false
    Max angular momentum: 2

  ==> Pre-Iterations <==

   -------------------------------------------------------
    Irrep   Nso     Nmo     Nalpha   Nbeta   Ndocc  Nsocc
   -------------------------------------------------------
     A        106     106       0       0       0       0
   -------------------------------------------------------
    Total     106     106      24      24      24       0
   -------------------------------------------------------

 OEINTS: Overlap, kinetic, potential, dipole, and quadrupole integrals
         stored in file 35.

  ==> Integral Setup <==

  ==> DFJK: Density-Fitted J/K Matrices <==

    J tasked:                  Yes
    K tasked:                  Yes
    wK tasked:                  No
    OpenMP threads:              1
    Integrals threads:           1
    Memory (MB):              1430
    Algorithm:                Core
    Integral Cache:           NONE
    Schwarz Cutoff:          1E-12
    Fitting Condition:       1E-12

   => Auxiliary Basis Set <=

  Basis Set: 
    Number of shells: 216
    Number of basis function: 686
    Number of Cartesian functions: 686
    Spherical Harmonics?: false
    Max angular momentum: 3

  Minimum eigenvalue in the overlap matrix is 3.6311613521E-03.
  Using Symmetric Orthogonalization.
  SCF Guess: Core (One-Electron) Hamiltonian.

  ==> Iterations <==

                           Total Energy        Delta E     RMS |[F,P]|

   @DF-RHF iter   1:  -231.40260413882416   -2.31403e+02   8.54930e-02 
   @DF-RHF iter   2:  -200.13444243372103    3.12682e+01   6.72468e-02 DIIS
   @DF-RHF iter   3:  -273.64853426670754   -7.35141e+01   5.01039e-02 DIIS
   @DF-RHF iter   4:  -297.94185674163384   -2.42933e+01   3.58684e-02 DIIS
   @DF-RHF iter   5:  -303.06229581757316   -5.12044e+00   1.97027e-02 DIIS
   @DF-RHF iter   6:  -305.72215383426521   -2.65986e+00   4.18361e-03 DIIS
   @DF-RHF iter   7:  -305.82621106167960   -1.04057e-01   1.76316e-03 DIIS
   @DF-RHF iter   8:  -305.84514073509001   -1.89297e-02   6.55455e-04 DIIS
   @DF-RHF iter   9:  -305.84850146469466   -3.36073e-03   2.17410e-04 DIIS
   @DF-RHF iter  10:  -305.84884730956344   -3.45845e-04   9.50405e-05 DIIS
   @DF-RHF iter  11:  -305.84893548470166   -8.81751e-05   2.48209e-05 DIIS
   @DF-RHF iter  12:  -305.84894403437329   -8.54967e-06   7.52377e-06 DIIS
   @DF-RHF iter  13:  -305.84894471501309   -6.80640e-07   2.71564e-06 DIIS
   @DF-RHF iter  14:  -305.84894481985896   -1.04846e-07   7.83736e-07 DIIS

  ==> Post-Iterations <==

    Orbital Energies (a.u.)
    -----------------------

    Doubly Occupied:                                                      

       1A    -20.583819     2A    -20.554457     3A    -11.376283  
       4A    -11.299363     5A    -11.233583     6A    -11.231613  
       7A     -1.462309     8A     -1.366200     9A     -1.052837  
      10A     -1.013659    11A     -0.890019    12A     -0.765661  
      13A     -0.697367    14A     -0.690281    15A     -0.669075  
      16A     -0.618312    17A     -0.590839    18A     -0.580576  
      19A     -0.561009    20A     -0.553874    21A     -0.510875  
      22A     -0.484210    23A     -0.452077    24A     -0.438878  

    Virtual:                                                              

      25A      0.175523    26A      0.227277    27A      0.264605  
      28A      0.281287    29A      0.291386    30A      0.302383  
      31A      0.316354    32A      0.324802    33A      0.351690  
      34A      0.371024    35A      0.399703    36A      0.417213  
      37A      0.513138    38A      0.565349    39A      0.700732  
      40A      0.718959    41A      0.737829    42A      0.764310  
      43A      0.797226    44A      0.816892    45A      0.842348  
      46A      0.852478    47A      0.892210    48A      0.923648  
      49A      0.983665    50A      0.992619    51A      1.057193  
      52A      1.096316    53A      1.127178    54A      1.148201  
      55A      1.159071    56A      1.176045    57A      1.190520  
      58A      1.194482    59A      1.240242    60A      1.245327  
      61A      1.271613    62A      1.326818    63A      1.361104  
      64A      1.378071    65A      1.394606    66A      1.477216  
      67A      1.556712    68A      1.638330    69A      1.669149  
      70A      1.750163    71A      1.804451    72A      1.879657  
      73A      1.966092    74A      2.021175    75A      2.043416  
      76A      2.085269    77A      2.124648    78A      2.148693  
      79A      2.178225    80A      2.246494    81A      2.274162  
      82A      2.287818    83A      2.331141    84A      2.413677  
      85A      2.441317    86A      2.528522    87A      2.552630  
      88A      2.596511    89A      2.647118    90A      2.663924  
      91A      2.715301    92A      2.771484    93A      2.860044  
      94A      2.898732    95A      2.995354    96A      3.187566  
      97A      3.223520    98A      3.310443    99A      3.371518  
     100A      3.495908   101A      4.393970   102A      4.533695  
     103A      4.601559   104A      4.666127   105A      4.859054  
     106A      4.907182  

    Final Occupation by Irrep:
              A 
    DOCC [    24 ]

  Energy converged.

  @DF-RHF Final Energy:  -305.84894481985896

   => Energetics <=

    Nuclear Repulsion Energy =            251.1093552617433886
    One-Electron Energy =                -914.5623604013857175
    Two-Electron Energy =                 357.6040603197836276
    DFT Exchange-Correlation Energy =       0.0000000000000000
    Empirical Dispersion Energy =           0.0000000000000000
    PCM Polarization Energy =               0.0000000000000000
    EFP Energy =                            0.0000000000000000
    Total Energy =                       -305.8489448198586729

    Alert: EFP and PCM quantities not currently incorporated into SCF psivars.

Properties will be evaluated at   0.000000,   0.000000,   0.000000 Bohr
  ==> Properties <==


Properties computed using the SCF density matrix

  Nuclear Dipole Moment: (a.u.)
     X:    -3.0781      Y:    -6.0020      Z:    -3.9030

  Electronic Dipole Moment: (a.u.)
     X:     2.7143      Y:     4.7724      Z:     3.3524

  Dipole Moment: (a.u.)
     X:    -0.3638      Y:    -1.2296      Z:    -0.5506     Total:     1.3955

  Dipole Moment: (Debye)
     X:    -0.9246      Y:    -3.1254      Z:    -1.3995     Total:     3.5470


  Saving occupied orbitals to File 180.

*** tstop() called on cx1-1-2-4.cx1.hpc.ic.ac.uk at Tue Jul  5 16:35:26 2016
Module time:
	user time   =       5.86 seconds =       0.10 minutes
	system time =       0.04 seconds =       0.00 minutes
	total time  =          7 seconds =       0.12 minutes
Total time:
	user time   =       5.86 seconds =       0.10 minutes
	system time =       0.04 seconds =       0.00 minutes
	total time  =          7 seconds =       0.12 minutes


Properties will be evaluated at   0.000000,   0.000000,   0.000000 Bohr

Properties computed using the  density matrix

  Nuclear Dipole Moment: (a.u.)
     X:    -3.0781      Y:    -6.0020      Z:    -3.9030

  Electronic Dipole Moment: (a.u.)
     X:     2.7143      Y:     4.7724      Z:     3.3524

  Dipole Moment: (a.u.)
     X:    -0.3638      Y:    -1.2296      Z:    -0.5506     Total:     1.3955

  Dipole Moment: (Debye)
     X:    -0.9246      Y:    -3.1254      Z:    -1.3995     Total:     3.5470

  Quadrupole Moment: (Debye Ang)
    XX:   -35.0140     YY:   -42.2639     ZZ:   -34.3446
    XY:    -1.0168     XZ:    -2.8878     YZ:     0.3352

  Traceless Quadrupole Moment: (Debye Ang)
    XX:     2.1935     YY:    -5.0564     ZZ:     2.8629
    XY:    -1.0168     XZ:    -2.8878     YZ:     0.3352

  Mulliken Charges: (a.u.)
   Center  Symbol    Alpha    Beta     Spin     Total
       1     O     4.25967  4.25967  0.00000 -0.51934
       2     C     2.62883  2.62883  0.00000  0.74233
       3     C     3.28454  3.28454  0.00000 -0.56909
       4     O     4.31284  4.31284  0.00000 -0.62568
       5     H     0.40484  0.40484  0.00000  0.19032
       6     H     0.39989  0.39989  0.00000  0.20022
       7     H     0.39924  0.39924  0.00000  0.20153
       8     C     3.00364  3.00364  0.00000 -0.00728
       9     C     3.26166  3.26166  0.00000 -0.52332
      10     H     0.40277  0.40277  0.00000  0.19445
      11     H     0.40681  0.40681  0.00000  0.18638
      12     H     0.41128  0.41128  0.00000  0.17745
      13     H     0.40963  0.40963  0.00000  0.18074
      14     H     0.41436  0.41436  0.00000  0.17129

   Total alpha = 24.00000, Total beta = 24.00000, Total charge =  0.00000


*** PSI4 exiting successfully. Buy a developer a beer!
