    -----------------------------------------------------------------------
          Psi4: An Open-Source Ab Initio Electronic Structure Package
                              Psi4 (no tag) Driver

                          Git: Rev {detached?}  

    J. M. Turney, A. C. Simmonett, R. M. Parrish, E. G. Hohenstein,
    F. A. Evangelista, J. T. Fermann, B. J. Mintz, L. A. Burns, J. J. Wilke,
    M. L. Abrams, N. J. Russ, M. L. Leininger, C. L. Janssen, E. T. Seidl,
    W. D. Allen, H. F. Schaefer, R. A. King, E. F. Valeev, C. D. Sherrill,
    and T. D. Crawford, WIREs Comput. Mol. Sci. 2, 556-565 (2012)
    (doi: 10.1002/wcms.93)

                         Additional Contributions by
    A. E. DePrince, M. Saitow, U. Bozkaya, A. Yu. Sokolov
    -----------------------------------------------------------------------


    Psi4 started on: Tue Jul  5 16:26:14 2016

    Process ID:  15504
    PSI4DATADIR: /export131/home/mjharvey/miniconda3/share
    Memory level set to 256.000 MB

  ==> Input File <==

--------------------------------------------------------------------------
set {
	reference rhf
	basis 6-31G*
}


set_num_threads( 1 )
memory 2 gb

molecule MOL {
0 1

H	 -1.495763	 -0.503179	 -1.137670
O	 -1.422729	 -0.573567	 -0.196946
C	 -0.731407	 0.539437	 0.309156
C	 0.680193	 0.672443	 -0.251532
H	 -1.319765	 1.404033	 0.030086
H	 -0.700012	 0.506517	 1.397677
C	 0.752091	 0.528005	 -1.771951
H	 1.079875	 1.638374	 0.043217
H	 1.304879	 -0.086399	 0.214801
H	 0.196828	 1.315991	 -2.271908
H	 1.777501	 0.588093	 -2.121077
H	 0.349335	 -0.428032	 -2.097594

	symmetry c1
}
set optking {
	frozen_dihedral = ("
		8 4 3 2
	")
}

ee = energy('scf')
oeprop('DIPOLE', 'QUADRUPOLE', 'MULLIKEN_CHARGES')
f=open( 'psi4out.xyz', 'w' )
f.write( "12  " )
f.write( str(ee) + "\n" )
f.write( MOL.save_string_xyz() )
f.close()
--------------------------------------------------------------------------

  Memory set to   2.000 GiB by Python script.

*** tstart() called on cx1-1-3-4.cx1.hpc.ic.ac.uk
*** at Tue Jul  5 16:26:15 2016


         ---------------------------------------------------------
                                   SCF
            by Justin Turney, Rob Parrish, and Andy Simmonett
                              RHF Reference
                        1 Threads,   2000 MiB Core
         ---------------------------------------------------------

  ==> Geometry <==

    Molecular point group: c1
    Full point group: C1

    Geometry (in Angstrom), charge = 0, multiplicity = 1:

       Center              X                  Y                   Z               Mass       
    ------------   -----------------  -----------------  -----------------  -----------------
           H         -1.276911244308    -0.772497002441    -0.642960445024     1.007825032070
           O         -1.203877244308    -0.842885002441     0.297763554976    15.994914619560
           C         -0.512555244308     0.270118997559     0.803865554976    12.000000000000
           C          0.899044755692     0.403124997559     0.243177554976    12.000000000000
           H         -1.100913244308     1.134714997559     0.524795554976     1.007825032070
           H         -0.481160244308     0.237198997559     1.892386554976     1.007825032070
           C          0.970942755692     0.258686997559    -1.277241445024    12.000000000000
           H          1.298726755692     1.369055997559     0.537926554976     1.007825032070
           H          1.523730755692    -0.355717002441     0.709510554976     1.007825032070
           H          0.415679755692     1.046672997559    -1.777198445024     1.007825032070
           H          1.996352755692     0.318774997559    -1.626367445024     1.007825032070
           H          0.568186755692    -0.697350002441    -1.602884445024     1.007825032070

  Running in c1 symmetry.

  Rotational constants: A =      0.45763  B =      0.18199  C =      0.14551 [cm^-1]
  Rotational constants: A =  13719.38733  B =   5455.89904  C =   4362.18269 [MHz]
  Nuclear repulsion =  133.808639593621308

  Charge       = 0
  Multiplicity = 1
  Electrons    = 34
  Nalpha       = 17
  Nbeta        = 17

  ==> Algorithm <==

  SCF Algorithm Type is DF.
  DIIS enabled.
  MOM disabled.
  Fractional occupation disabled.
  Guess Type is CORE.
  Energy threshold   = 1.00e-06
  Density threshold  = 1.00e-06
  Integral threshold = 0.00e+00

  ==> Primary Basis <==

  Basis Set: 6-31G*
    Number of shells: 40
    Number of basis function: 76
    Number of Cartesian functions: 76
    Spherical Harmonics?: false
    Max angular momentum: 2

  ==> Pre-Iterations <==

   -------------------------------------------------------
    Irrep   Nso     Nmo     Nalpha   Nbeta   Ndocc  Nsocc
   -------------------------------------------------------
     A         76      76       0       0       0       0
   -------------------------------------------------------
    Total      76      76      17      17      17       0
   -------------------------------------------------------

 OEINTS: Overlap, kinetic, potential, dipole, and quadrupole integrals
         stored in file 35.

  ==> Integral Setup <==

  ==> DFJK: Density-Fitted J/K Matrices <==

    J tasked:                  Yes
    K tasked:                  Yes
    wK tasked:                  No
    OpenMP threads:              1
    Integrals threads:           1
    Memory (MB):              1430
    Algorithm:                Core
    Integral Cache:           NONE
    Schwarz Cutoff:          1E-12
    Fitting Condition:       1E-12

   => Auxiliary Basis Set <=

  Basis Set: 
    Number of shells: 168
    Number of basis function: 524
    Number of Cartesian functions: 524
    Spherical Harmonics?: false
    Max angular momentum: 3

  Minimum eigenvalue in the overlap matrix is 5.0230567427E-03.
  Using Symmetric Orthogonalization.
  SCF Guess: Core (One-Electron) Hamiltonian.

  ==> Iterations <==

                           Total Energy        Delta E     RMS |[F,P]|

   @DF-RHF iter   1:  -155.89883255906022   -1.55899e+02   8.74289e-02 
   @DF-RHF iter   2:  -124.53738720833059    3.13614e+01   8.67737e-02 DIIS
   @DF-RHF iter   3:  -170.99763104753555   -4.64602e+01   4.98770e-02 DIIS
   @DF-RHF iter   4:  -167.99179944826210    3.00583e+00   6.54703e-02 DIIS
   @DF-RHF iter   5:  -192.86488207664269   -2.48731e+01   9.05378e-03 DIIS
   @DF-RHF iter   6:  -193.05140597191365   -1.86524e-01   4.94113e-03 DIIS
   @DF-RHF iter   7:  -193.09936041289689   -4.79544e-02   1.37077e-03 DIIS
   @DF-RHF iter   8:  -193.10549383653125   -6.13342e-03   5.23527e-04 DIIS
   @DF-RHF iter   9:  -193.10662631051463   -1.13247e-03   1.10318e-04 DIIS
   @DF-RHF iter  10:  -193.10668168273833   -5.53722e-05   3.68299e-05 DIIS
   @DF-RHF iter  11:  -193.10668767746103   -5.99472e-06   8.09362e-06 DIIS
   @DF-RHF iter  12:  -193.10668791653535   -2.39074e-07   2.53448e-06 DIIS
   @DF-RHF iter  13:  -193.10668795321595   -3.66806e-08   4.81280e-07 DIIS

  ==> Post-Iterations <==

    Orbital Energies (a.u.)
    -----------------------

    Doubly Occupied:                                                      

       1A    -20.550727     2A    -11.268357     3A    -11.220880  
       4A    -11.219954     5A     -1.359531     6A     -1.051875  
       7A     -0.930574     8A     -0.809537     9A     -0.691346  
      10A     -0.638879    11A     -0.614900    12A     -0.588292  
      13A     -0.535454    14A     -0.508408    15A     -0.498562  
      16A     -0.467509    17A     -0.427546  

    Virtual:                                                              

      18A      0.218222    19A      0.258626    20A      0.288974  
      21A      0.295716    22A      0.315949    23A      0.321219  
      24A      0.349420    25A      0.358755    26A      0.381163  
      27A      0.426761    28A      0.454458    29A      0.719013  
      30A      0.729253    31A      0.765673    32A      0.794040  
      33A      0.821180    34A      0.909496    35A      0.930296  
      36A      0.966860    37A      1.021299    38A      1.089254  
      39A      1.133449    40A      1.147827    41A      1.162091  
      42A      1.187381    43A      1.194679    44A      1.214747  
      45A      1.233069    46A      1.244760    47A      1.309784  
      48A      1.358518    49A      1.460815    50A      1.569622  
      51A      1.695129    52A      1.704885    53A      1.835515  
      54A      1.866672    55A      1.957557    56A      2.026735  
      57A      2.093598    58A      2.186363    59A      2.282305  
      60A      2.316567    61A      2.370866    62A      2.462576  
      63A      2.505801    64A      2.599925    65A      2.678438  
      66A      2.689657    67A      2.725106    68A      2.759381  
      69A      2.878863    70A      2.993183    71A      3.040132  
      72A      3.210978    73A      4.183848    74A      4.588594  
      75A      4.732904    76A      4.904342  

    Final Occupation by Irrep:
              A 
    DOCC [    17 ]

  Energy converged.

  @DF-RHF Final Energy:  -193.10668795321595

   => Energetics <=

    Nuclear Repulsion Energy =            133.8086395936213080
    One-Electron Energy =                -527.0659531142202923
    Two-Electron Energy =                 200.1506255673832015
    DFT Exchange-Correlation Energy =       0.0000000000000000
    Empirical Dispersion Energy =           0.0000000000000000
    PCM Polarization Energy =               0.0000000000000000
    EFP Energy =                            0.0000000000000000
    Total Energy =                       -193.1066879532157827

    Alert: EFP and PCM quantities not currently incorporated into SCF psivars.

Properties will be evaluated at   0.000000,   0.000000,   0.000000 Bohr
  ==> Properties <==


Properties computed using the SCF density matrix

  Nuclear Dipole Moment: (a.u.)
     X:     2.7538      Y:     2.1342      Z:    -1.8593

  Electronic Dipole Moment: (a.u.)
     X:    -2.4192      Y:    -1.6017      Z:     1.4697

  Dipole Moment: (a.u.)
     X:     0.3347      Y:     0.5325      Z:    -0.3895     Total:     0.7398

  Dipole Moment: (Debye)
     X:     0.8507      Y:     1.3534      Z:    -0.9900     Total:     1.8803


  Saving occupied orbitals to File 180.

*** tstop() called on cx1-1-3-4.cx1.hpc.ic.ac.uk at Tue Jul  5 16:26:18 2016
Module time:
	user time   =       2.97 seconds =       0.05 minutes
	system time =       0.03 seconds =       0.00 minutes
	total time  =          3 seconds =       0.05 minutes
Total time:
	user time   =       2.97 seconds =       0.05 minutes
	system time =       0.03 seconds =       0.00 minutes
	total time  =          3 seconds =       0.05 minutes


Properties will be evaluated at   0.000000,   0.000000,   0.000000 Bohr

Properties computed using the  density matrix

  Nuclear Dipole Moment: (a.u.)
     X:     2.7538      Y:     2.1342      Z:    -1.8593

  Electronic Dipole Moment: (a.u.)
     X:    -2.4192      Y:    -1.6017      Z:     1.4697

  Dipole Moment: (a.u.)
     X:     0.3347      Y:     0.5325      Z:    -0.3895     Total:     0.7398

  Dipole Moment: (Debye)
     X:     0.8507      Y:     1.3534      Z:    -0.9900     Total:     1.8803

  Quadrupole Moment: (Debye Ang)
    XX:   -28.0247     YY:   -28.1622     ZZ:   -25.0492
    XY:    -1.5716     XZ:     2.1983     YZ:     1.7893

  Traceless Quadrupole Moment: (Debye Ang)
    XX:    -0.9460     YY:    -1.0835     ZZ:     2.0295
    XY:    -1.5716     XZ:     2.1983     YZ:     1.7893

  Mulliken Charges: (a.u.)
   Center  Symbol    Alpha    Beta     Spin     Total
       1     H     0.27729  0.27729  0.00000  0.44542
       2     O     4.37328  4.37328  0.00000 -0.74657
       3     C     2.99423  2.99423  0.00000  0.01154
       4     C     3.16230  3.16230  0.00000 -0.32460
       5     H     0.43214  0.43214  0.00000  0.13573
       6     H     0.41399  0.41399  0.00000  0.17202
       7     C     3.25550  3.25550  0.00000 -0.51100
       8     H     0.42126  0.42126  0.00000  0.15748
       9     H     0.41593  0.41593  0.00000  0.16815
      10     H     0.42133  0.42133  0.00000  0.15735
      11     H     0.41214  0.41214  0.00000  0.17572
      12     H     0.42061  0.42061  0.00000  0.15877

   Total alpha = 17.00000, Total beta = 17.00000, Total charge =  0.00000


*** PSI4 exiting successfully. Buy a developer a beer!
