    -----------------------------------------------------------------------
          Psi4: An Open-Source Ab Initio Electronic Structure Package
                              Psi4 (no tag) Driver

                          Git: Rev {detached?}  

    J. M. Turney, A. C. Simmonett, R. M. Parrish, E. G. Hohenstein,
    F. A. Evangelista, J. T. Fermann, B. J. Mintz, L. A. Burns, J. J. Wilke,
    M. L. Abrams, N. J. Russ, M. L. Leininger, C. L. Janssen, E. T. Seidl,
    W. D. Allen, H. F. Schaefer, R. A. King, E. F. Valeev, C. D. Sherrill,
    and T. D. Crawford, WIREs Comput. Mol. Sci. 2, 556-565 (2012)
    (doi: 10.1002/wcms.93)

                         Additional Contributions by
    A. E. DePrince, M. Saitow, U. Bozkaya, A. Yu. Sokolov
    -----------------------------------------------------------------------


    Psi4 started on: Tue Jul  5 17:06:59 2016

    Process ID:  14018
    PSI4DATADIR: /export131/home/mjharvey/miniconda3/share
    Memory level set to 256.000 MB

  ==> Input File <==

--------------------------------------------------------------------------
set {
	reference rhf
	basis 6-31G*
}


set_num_threads( 1 )
memory 2 gb

molecule MOL {
0 1

H	 -0.464995	 -1.624347	 -0.228889
C	 -1.357708	 -1.415974	 0.328160
C	 -1.271134	 -0.975404	 1.562018
H	 -2.307747	 -1.575864	 -0.145941
O	 -0.088820	 -0.934487	 2.230837
H	 -2.120821	 -0.604590	 2.107659
C	 1.075857	 -0.772473	 1.496583
C	 1.375804	 -1.987551	 0.648108
H	 1.936994	 -0.579740	 2.126657
H	 0.932799	 0.067601	 0.833035
F	 0.270940	 -2.376022	 0.028292
F	 2.284988	 -1.727844	 -0.276970
F	 1.813767	 -2.998844	 1.369125

	symmetry c1
}
set optking {
	frozen_dihedral = ("
		11 8 7 9,
		3 5 7 9,
		6 3 2 1
	")
}

ee = energy('scf')
oeprop('DIPOLE', 'QUADRUPOLE', 'MULLIKEN_CHARGES')
f=open( 'psi4out.xyz', 'w' )
f.write( "13  " )
f.write( str(ee) + "\n" )
f.write( MOL.save_string_xyz() )
f.close()
--------------------------------------------------------------------------

  Memory set to   2.000 GiB by Python script.

*** tstart() called on cx1-3-14-4.cx1.hpc.ic.ac.uk
*** at Tue Jul  5 17:06:59 2016


         ---------------------------------------------------------
                                   SCF
            by Justin Turney, Rob Parrish, and Andy Simmonett
                              RHF Reference
                        1 Threads,   2000 MiB Core
         ---------------------------------------------------------

  ==> Geometry <==

    Molecular point group: c1
    Full point group: C1

    Geometry (in Angstrom), charge = 0, multiplicity = 1:

       Center              X                  Y                   Z               Mass       
    ------------   -----------------  -----------------  -----------------  -----------------
           H         -1.079382386507     0.089975139303    -1.102626008262     1.007825032070
           C         -1.972095386507     0.298348139303    -0.545577008262    12.000000000000
           C         -1.885521386507     0.738918139303     0.688280991738    12.000000000000
           H         -2.922134386507     0.138458139303    -1.019678008262     1.007825032070
           O         -0.703207386507     0.779835139303     1.357099991738    15.994914619560
           H         -2.735208386507     1.109732139303     1.233921991738     1.007825032070
           C          0.461469613493     0.941849139303     0.622845991738    12.000000000000
           C          0.761416613493    -0.273228860697    -0.225629008262    12.000000000000
           H          1.322606613493     1.134582139303     1.252919991738     1.007825032070
           H          0.318411613493     1.781923139303    -0.040702008262     1.007825032070
           F         -0.343447386507    -0.661699860697    -0.845445008262    18.998403224000
           F          1.670600613493    -0.013521860697    -1.150707008262    18.998403224000
           F          1.199379613493    -1.284521860697     0.495387991738    18.998403224000

  Running in c1 symmetry.

  Rotational constants: A =      0.12553  B =      0.05866  C =      0.05115 [cm^-1]
  Rotational constants: A =   3763.27843  B =   1758.71209  C =   1533.29613 [MHz]
  Nuclear repulsion =  438.469176146035068

  Charge       = 0
  Multiplicity = 1
  Electrons    = 64
  Nalpha       = 32
  Nbeta        = 32

  ==> Algorithm <==

  SCF Algorithm Type is DF.
  DIIS enabled.
  MOM disabled.
  Fractional occupation disabled.
  Guess Type is CORE.
  Energy threshold   = 1.00e-06
  Density threshold  = 1.00e-06
  Integral threshold = 0.00e+00

  ==> Primary Basis <==

  Basis Set: 6-31G*
    Number of shells: 58
    Number of basis function: 130
    Number of Cartesian functions: 130
    Spherical Harmonics?: false
    Max angular momentum: 2

  ==> Pre-Iterations <==

   -------------------------------------------------------
    Irrep   Nso     Nmo     Nalpha   Nbeta   Ndocc  Nsocc
   -------------------------------------------------------
     A        130     130       0       0       0       0
   -------------------------------------------------------
    Total     130     130      32      32      32       0
   -------------------------------------------------------

 OEINTS: Overlap, kinetic, potential, dipole, and quadrupole integrals
         stored in file 35.

  ==> Integral Setup <==

  ==> DFJK: Density-Fitted J/K Matrices <==

    J tasked:                  Yes
    K tasked:                  Yes
    wK tasked:                  No
    OpenMP threads:              1
    Integrals threads:           1
    Memory (MB):              1430
    Algorithm:                Core
    Integral Cache:           NONE
    Schwarz Cutoff:          1E-12
    Fitting Condition:       1E-12

   => Auxiliary Basis Set <=

  Basis Set: 
    Number of shells: 237
    Number of basis function: 773
    Number of Cartesian functions: 773
    Spherical Harmonics?: false
    Max angular momentum: 3

  Minimum eigenvalue in the overlap matrix is 1.7814944894E-03.
  Using Symmetric Orthogonalization.
  SCF Guess: Core (One-Electron) Hamiltonian.

  ==> Iterations <==

                           Total Energy        Delta E     RMS |[F,P]|

   @DF-RHF iter   1:  -443.15523281148950   -4.43155e+02   7.88065e-02 
   @DF-RHF iter   2:  -247.13825604540210    1.96017e+02   1.13108e-01 DIIS
   @DF-RHF iter   3:  -493.89194435206997   -2.46754e+02   4.15604e-02 DIIS
   @DF-RHF iter   4:  -424.52765432782797    6.93643e+01   7.15579e-02 DIIS
   @DF-RHF iter   5:  -517.25571820789241   -9.27281e+01   2.58138e-02 DIIS
   @DF-RHF iter   6:  -526.84664994248737   -9.59093e+00   8.46297e-03 DIIS
   @DF-RHF iter   7:  -527.30383712802018   -4.57187e-01   2.17242e-03 DIIS
   @DF-RHF iter   8:  -527.33649194068244   -3.26548e-02   4.02830e-04 DIIS
   @DF-RHF iter   9:  -527.33803379522374   -1.54185e-03   1.62811e-04 DIIS
   @DF-RHF iter  10:  -527.33828083350568   -2.47038e-04   4.98184e-05 DIIS
   @DF-RHF iter  11:  -527.33830908408936   -2.82506e-05   8.62935e-06 DIIS
   @DF-RHF iter  12:  -527.33831022881373   -1.14472e-06   3.62006e-06 DIIS
   @DF-RHF iter  13:  -527.33831043753253   -2.08719e-07   1.46783e-06 DIIS
   @DF-RHF iter  14:  -527.33831046855721   -3.10247e-08   4.79394e-07 DIIS

  ==> Post-Iterations <==

    Orbital Energies (a.u.)
    -----------------------

    Doubly Occupied:                                                      

       1A    -26.380512     2A    -26.364186     3A    -26.358919  
       4A    -20.594641     5A    -11.524555     6A    -11.320864  
       7A    -11.266261     8A    -11.157831     9A     -1.791271  
      10A     -1.696662    11A     -1.657382    12A     -1.427905  
      13A     -1.096391    14A     -1.026810    15A     -0.988973  
      16A     -0.875337    17A     -0.862146    18A     -0.837929  
      19A     -0.806086    20A     -0.749582    21A     -0.738126  
      22A     -0.717732    23A     -0.691753    24A     -0.686871  
      25A     -0.668155    26A     -0.645155    27A     -0.624165  
      28A     -0.598081    29A     -0.522026    30A     -0.492458  
      31A     -0.429714    32A     -0.322921  

    Virtual:                                                              

      33A      0.212379    34A      0.251786    35A      0.264318  
      36A      0.294484    37A      0.296790    38A      0.344543  
      39A      0.374427    40A      0.404153    41A      0.409926  
      42A      0.452243    43A      0.478102    44A      0.504957  
      45A      0.555022    46A      0.669822    47A      0.709396  
      48A      0.728155    49A      0.751568    50A      0.777345  
      51A      0.793762    52A      0.810397    53A      0.832687  
      54A      0.887167    55A      0.909735    56A      0.935090  
      57A      0.948218    58A      1.090202    59A      1.128948  
      60A      1.147521    61A      1.156614    62A      1.199584  
      63A      1.231562    64A      1.251563    65A      1.295918  
      66A      1.330866    67A      1.354501    68A      1.391667  
      69A      1.415818    70A      1.418115    71A      1.446656  
      72A      1.500043    73A      1.533638    74A      1.598018  
      75A      1.631030    76A      1.643402    77A      1.647444  
      78A      1.670931    79A      1.734204    80A      1.747134  
      81A      1.806975    82A      1.856377    83A      1.875029  
      84A      1.901744    85A      1.931767    86A      2.004367  
      87A      2.029228    88A      2.065794    89A      2.101062  
      90A      2.117856    91A      2.129530    92A      2.189683  
      93A      2.231528    94A      2.269674    95A      2.279305  
      96A      2.299115    97A      2.349445    98A      2.353172  
      99A      2.392218   100A      2.426448   101A      2.454854  
     102A      2.495347   103A      2.499885   104A      2.565791  
     105A      2.619250   106A      2.692799   107A      2.727111  
     108A      2.766918   109A      2.822250   110A      2.831220  
     111A      2.885946   112A      2.924583   113A      3.049229  
     114A      3.118317   115A      3.138417   116A      3.155457  
     117A      3.283083   118A      3.355022   119A      3.409512  
     120A      3.420357   121A      3.430095   122A      3.502173  
     123A      4.394357   124A      4.579646   125A      4.645106  
     126A      4.782310   127A      4.899154   128A      5.005816  
     129A      5.250011   130A      5.995915  

    Final Occupation by Irrep:
              A 
    DOCC [    32 ]

  Energy converged.

  @DF-RHF Final Energy:  -527.33831046855721

   => Energetics <=

    Nuclear Repulsion Energy =            438.4691761460350676
    One-Electron Energy =               -1599.7721583984871359
    Two-Electron Energy =                 633.9646717838944596
    DFT Exchange-Correlation Energy =       0.0000000000000000
    Empirical Dispersion Energy =           0.0000000000000000
    PCM Polarization Energy =               0.0000000000000000
    EFP Energy =                            0.0000000000000000
    Total Energy =                       -527.3383104685575518

    Alert: EFP and PCM quantities not currently incorporated into SCF psivars.

Properties will be evaluated at   0.000000,   0.000000,   0.000000 Bohr
  ==> Properties <==


Properties computed using the SCF density matrix

  Nuclear Dipole Moment: (a.u.)
     X:    -7.1639      Y:     5.8411      Z:     1.7259

  Electronic Dipole Moment: (a.u.)
     X:     7.6245      Y:    -5.4251      Z:    -1.9132

  Dipole Moment: (a.u.)
     X:     0.4606      Y:     0.4160      Z:    -0.1873     Total:     0.6484

  Dipole Moment: (Debye)
     X:     1.1708      Y:     1.0575      Z:    -0.4761     Total:     1.6480


  Saving occupied orbitals to File 180.

*** tstop() called on cx1-3-14-4.cx1.hpc.ic.ac.uk at Tue Jul  5 17:07:09 2016
Module time:
	user time   =       9.32 seconds =       0.16 minutes
	system time =       0.05 seconds =       0.00 minutes
	total time  =         10 seconds =       0.17 minutes
Total time:
	user time   =       9.32 seconds =       0.16 minutes
	system time =       0.05 seconds =       0.00 minutes
	total time  =         10 seconds =       0.17 minutes


Properties will be evaluated at   0.000000,   0.000000,   0.000000 Bohr

Properties computed using the  density matrix

  Nuclear Dipole Moment: (a.u.)
     X:    -7.1639      Y:     5.8411      Z:     1.7259

  Electronic Dipole Moment: (a.u.)
     X:     7.6245      Y:    -5.4251      Z:    -1.9132

  Dipole Moment: (a.u.)
     X:     0.4606      Y:     0.4160      Z:    -0.1873     Total:     0.6484

  Dipole Moment: (Debye)
     X:     1.1708      Y:     1.0575      Z:    -0.4761     Total:     1.6480

  Quadrupole Moment: (Debye Ang)
    XX:   -44.7490     YY:   -44.6111     ZZ:   -46.7198
    XY:     1.7804     XZ:     1.3403     YZ:     1.2035

  Traceless Quadrupole Moment: (Debye Ang)
    XX:     0.6110     YY:     0.7488     ZZ:    -1.3598
    XY:     1.7804     XZ:     1.3403     YZ:     1.2035

  Mulliken Charges: (a.u.)
   Center  Symbol    Alpha    Beta     Spin     Total
       1     H     0.33896  0.33896  0.00000  0.32209
       2     C     3.28342  3.28342  0.00000 -0.56683
       3     C     2.93382  2.93382  0.00000  0.13236
       4     H     0.41876  0.41876  0.00000  0.16249
       5     O     4.30669  4.30669  0.00000 -0.61338
       6     H     0.40177  0.40177  0.00000  0.19645
       7     C     3.06524  3.06524  0.00000 -0.13048
       8     C     2.45665  2.45665  0.00000  1.08671
       9     H     0.38772  0.38772  0.00000  0.22455
      10     H     0.40117  0.40117  0.00000  0.19766
      11     F     4.65690  4.65690  0.00000 -0.31380
      12     F     4.67830  4.67830  0.00000 -0.35660
      13     F     4.67060  4.67060  0.00000 -0.34120

   Total alpha = 32.00000, Total beta = 32.00000, Total charge = -0.00000


*** PSI4 exiting successfully. Buy a developer a beer!
