    -----------------------------------------------------------------------
          Psi4: An Open-Source Ab Initio Electronic Structure Package
                              Psi4 (no tag) Driver

                          Git: Rev {detached?}  

    J. M. Turney, A. C. Simmonett, R. M. Parrish, E. G. Hohenstein,
    F. A. Evangelista, J. T. Fermann, B. J. Mintz, L. A. Burns, J. J. Wilke,
    M. L. Abrams, N. J. Russ, M. L. Leininger, C. L. Janssen, E. T. Seidl,
    W. D. Allen, H. F. Schaefer, R. A. King, E. F. Valeev, C. D. Sherrill,
    and T. D. Crawford, WIREs Comput. Mol. Sci. 2, 556-565 (2012)
    (doi: 10.1002/wcms.93)

                         Additional Contributions by
    A. E. DePrince, M. Saitow, U. Bozkaya, A. Yu. Sokolov
    -----------------------------------------------------------------------


    Psi4 started on: Tue Jul  5 16:24:24 2016

    Process ID:  16951
    PSI4DATADIR: /export131/home/mjharvey/miniconda3/share
    Memory level set to 256.000 MB

  ==> Input File <==

--------------------------------------------------------------------------
set {
	reference rhf
	basis 6-31G*
}


set_num_threads( 1 )
memory 2 gb

molecule MOL {
0 1

H	 -3.420924	 1.227403	 -1.044350
O	 -3.452268	 0.283880	 -0.965651
C	 -3.181346	 -0.079894	 0.364045
C	 -1.766185	 0.277105	 0.805062
H	 -3.328052	 -1.151985	 0.410829
H	 -3.905959	 0.375727	 1.036824
C	 -0.677855	 -0.417280	 -0.014624
H	 -1.638027	 1.358270	 0.744895
H	 -1.659849	 0.017702	 1.857024
C	 0.738074	 -0.034808	 0.421311
H	 -0.815238	 -0.178191	 -1.064706
H	 -0.802991	 -1.495378	 0.071628
C	 1.822004	 -0.738330	 -0.399809
H	 0.853272	 1.043564	 0.342176
H	 0.871336	 -0.279604	 1.474364
C	 3.257799	 -0.455742	 0.057129
H	 1.717742	 -0.459135	 -1.447127
H	 1.650767	 -1.811852	 -0.354587
C	 3.708882	 0.994829	 -0.123904
H	 3.930376	 -1.101685	 -0.502056
H	 3.364998	 -0.739486	 1.102213
H	 3.600917	 1.310601	 -1.158201
H	 4.753526	 1.110518	 0.148442
H	 3.135101	 1.678928	 0.492495

	symmetry c1
}
ee = energy('scf')
oeprop('DIPOLE', 'QUADRUPOLE', 'MULLIKEN_CHARGES')
oeprop('GRID_ESP')
f=open( 'psi4out.xyz', 'w' )
f.write( "24  " )
f.write( str(ee) + "\n" )
f.write( MOL.save_string_xyz() )
f.close()
--------------------------------------------------------------------------

  Memory set to   2.000 GiB by Python script.

*** tstart() called on cx1-1-3-2.cx1.hpc.ic.ac.uk
*** at Tue Jul  5 16:24:24 2016


         ---------------------------------------------------------
                                   SCF
            by Justin Turney, Rob Parrish, and Andy Simmonett
                              RHF Reference
                        1 Threads,   2000 MiB Core
         ---------------------------------------------------------

  ==> Geometry <==

    Molecular point group: c1
    Full point group: C1

    Geometry (in Angstrom), charge = 0, multiplicity = 1:

       Center              X                  Y                   Z               Mass       
    ------------   -----------------  -----------------  -----------------  -----------------
           H         -3.420663421533     1.227371324844    -1.044275830666     1.007825032070
           O         -3.452007421533     0.283848324844    -0.965576830666    15.994914619560
           C         -3.181085421533    -0.079925675156     0.364119169334    12.000000000000
           C         -1.765924421533     0.277073324844     0.805136169334    12.000000000000
           H         -3.327791421533    -1.152016675156     0.410903169334     1.007825032070
           H         -3.905698421533     0.375695324844     1.036898169334     1.007825032070
           C         -0.677594421533    -0.417311675156    -0.014549830666    12.000000000000
           H         -1.637766421533     1.358238324844     0.744969169334     1.007825032070
           H         -1.659588421533     0.017670324844     1.857098169334     1.007825032070
           C          0.738334578467    -0.034839675156     0.421385169334    12.000000000000
           H         -0.814977421533    -0.178222675156    -1.064631830666     1.007825032070
           H         -0.802730421533    -1.495409675156     0.071702169334     1.007825032070
           C          1.822264578467    -0.738361675156    -0.399734830666    12.000000000000
           H          0.853532578467     1.043532324844     0.342250169334     1.007825032070
           H          0.871596578467    -0.279635675156     1.474438169334     1.007825032070
           C          3.258059578467    -0.455773675156     0.057203169334    12.000000000000
           H          1.718002578467    -0.459166675156    -1.447052830666     1.007825032070
           H          1.651027578467    -1.811883675156    -0.354512830666     1.007825032070
           C          3.709142578467     0.994797324844    -0.123829830666    12.000000000000
           H          3.930636578467    -1.101716675156    -0.501981830666     1.007825032070
           H          3.365258578467    -0.739517675156     1.102287169334     1.007825032070
           H          3.601177578467     1.310569324844    -1.158126830666     1.007825032070
           H          4.753786578467     1.110486324844     0.148516169334     1.007825032070
           H          3.135361578467     1.678896324844     0.492569169334     1.007825032070

  Running in c1 symmetry.

  Rotational constants: A =      0.19071  B =      0.01954  C =      0.01952 [cm^-1]
  Rotational constants: A =   5717.42964  B =    585.85864  C =    585.11253 [MHz]
  Nuclear repulsion =  384.475730852940558

  Charge       = 0
  Multiplicity = 1
  Electrons    = 66
  Nalpha       = 33
  Nbeta        = 33

  ==> Algorithm <==

  SCF Algorithm Type is DF.
  DIIS enabled.
  MOM disabled.
  Fractional occupation disabled.
  Guess Type is CORE.
  Energy threshold   = 1.00e-06
  Density threshold  = 1.00e-06
  Integral threshold = 0.00e+00

  ==> Primary Basis <==

  Basis Set: 6-31G*
    Number of shells: 80
    Number of basis function: 152
    Number of Cartesian functions: 152
    Spherical Harmonics?: false
    Max angular momentum: 2

  ==> Pre-Iterations <==

   -------------------------------------------------------
    Irrep   Nso     Nmo     Nalpha   Nbeta   Ndocc  Nsocc
   -------------------------------------------------------
     A        152     152       0       0       0       0
   -------------------------------------------------------
    Total     152     152      33      33      33       0
   -------------------------------------------------------

 OEINTS: Overlap, kinetic, potential, dipole, and quadrupole integrals
         stored in file 35.

  ==> Integral Setup <==

  ==> DFJK: Density-Fitted J/K Matrices <==

    J tasked:                  Yes
    K tasked:                  Yes
    wK tasked:                  No
    OpenMP threads:              1
    Integrals threads:           1
    Memory (MB):              1430
    Algorithm:                Core
    Integral Cache:           NONE
    Schwarz Cutoff:          1E-12
    Fitting Condition:       1E-12

   => Auxiliary Basis Set <=

  Basis Set: 
    Number of shells: 336
    Number of basis function: 1048
    Number of Cartesian functions: 1048
    Spherical Harmonics?: false
    Max angular momentum: 3

  Minimum eigenvalue in the overlap matrix is 3.0254502535E-03.
  Using Symmetric Orthogonalization.
  SCF Guess: Core (One-Electron) Hamiltonian.

  ==> Iterations <==

                           Total Energy        Delta E     RMS |[F,P]|

   @DF-RHF iter   1:  -267.38028196282295   -2.67380e+02   6.07149e-02 
   @DF-RHF iter   2:   -65.65868081965760    2.01722e+02   7.77135e-02 DIIS
   @DF-RHF iter   3:  -227.24933184662797   -1.61591e+02   5.37103e-02 DIIS
   @DF-RHF iter   4:  -226.26017351695208    9.89158e-01   5.94029e-02 DIIS
   @DF-RHF iter   5:  -341.97308853680062   -1.15713e+02   1.86216e-02 DIIS
   @DF-RHF iter   6:  -344.98736355431612   -3.01428e+00   1.45947e-02 DIIS
   @DF-RHF iter   7:  -349.05636333321200   -4.06900e+00   4.13054e-03 DIIS
   @DF-RHF iter   8:  -349.23099339171512   -1.74630e-01   1.19520e-03 DIIS
   @DF-RHF iter   9:  -349.24572586890537   -1.47325e-02   3.06025e-04 DIIS
   @DF-RHF iter  10:  -349.24735563266410   -1.62976e-03   1.22032e-04 DIIS
   @DF-RHF iter  11:  -349.24759159412639   -2.35961e-04   4.38497e-05 DIIS
   @DF-RHF iter  12:  -349.24762745914217   -3.58650e-05   1.35760e-05 DIIS
   @DF-RHF iter  13:  -349.24763086644026   -3.40730e-06   4.70341e-06 DIIS
   @DF-RHF iter  14:  -349.24763128218609   -4.15746e-07   1.27750e-06 DIIS
   @DF-RHF iter  15:  -349.24763131397725   -3.17912e-08   3.70888e-07 DIIS

  ==> Post-Iterations <==

    Orbital Energies (a.u.)
    -----------------------

    Doubly Occupied:                                                      

       1A    -20.553569     2A    -11.267727     3A    -11.217479  
       4A    -11.214083     5A    -11.212459     6A    -11.211596  
       7A    -11.211128     8A    -11.207396     9A     -1.360163  
      10A     -1.088565    11A     -1.048319    12A     -0.985653  
      13A     -0.915011    14A     -0.850456    15A     -0.800783  
      16A     -0.776260    17A     -0.679080    18A     -0.653710  
      19A     -0.625353    20A     -0.619756    21A     -0.596806  
      22A     -0.584664    23A     -0.557643    24A     -0.540910  
      25A     -0.514726    26A     -0.509014    27A     -0.499408  
      28A     -0.472775    29A     -0.467513    30A     -0.459628  
      31A     -0.455378    32A     -0.450880    33A     -0.419027  

    Virtual:                                                              

      34A      0.220869    35A      0.231232    36A      0.257324  
      37A      0.266995    38A      0.273787    39A      0.286003  
      40A      0.301944    41A      0.313620    42A      0.318087  
      43A      0.323816    44A      0.334161    45A      0.340117  
      46A      0.348993    47A      0.358731    48A      0.372098  
      49A      0.378242    50A      0.391700    51A      0.400079  
      52A      0.422389    53A      0.434955    54A      0.465293  
      55A      0.479246    56A      0.500780    57A      0.694819  
      58A      0.711285    59A      0.716809    60A      0.738072  
      61A      0.754178    62A      0.776137    63A      0.791426  
      64A      0.822296    65A      0.845720    66A      0.862947  
      67A      0.894895    68A      0.935386    69A      0.942423  
      70A      0.962660    71A      0.985714    72A      1.001382  
      73A      1.056860    74A      1.072519    75A      1.079729  
      76A      1.110430    77A      1.127738    78A      1.130734  
      79A      1.156044    80A      1.160899    81A      1.169959  
      82A      1.178030    83A      1.184295    84A      1.196232  
      85A      1.200325    86A      1.218610    87A      1.223692  
      88A      1.230150    89A      1.237214    90A      1.252919  
      91A      1.264993    92A      1.272430    93A      1.292325  
      94A      1.323435    95A      1.339350    96A      1.436288  
      97A      1.439909    98A      1.483341    99A      1.571872  
     100A      1.654607   101A      1.678404   102A      1.730438  
     103A      1.771445   104A      1.816850   105A      1.839543  
     106A      1.856349   107A      1.908033   108A      1.923297  
     109A      1.986514   110A      2.060164   111A      2.075994  
     112A      2.101766   113A      2.172117   114A      2.203222  
     115A      2.221453   116A      2.245244   117A      2.271247  
     118A      2.284281   119A      2.300235   120A      2.329228  
     121A      2.348296   122A      2.382245   123A      2.388224  
     124A      2.461590   125A      2.478185   126A      2.510696  
     127A      2.601958   128A      2.618146   129A      2.631992  
     130A      2.677342   131A      2.692853   132A      2.732751  
     133A      2.738908   134A      2.782875   135A      2.791821  
     136A      2.833019   137A      2.887363   138A      2.964137  
     139A      2.982423   140A      2.983105   141A      3.046211  
     142A      3.150366   143A      3.180184   144A      3.225601  
     145A      4.180687   146A      4.553427   147A      4.621309  
     148A      4.716956   149A      4.795498   150A      4.855645  
     151A      4.912772   152A      5.013656  

    Final Occupation by Irrep:
              A 
    DOCC [    33 ]

  Energy converged.

  @DF-RHF Final Energy:  -349.24763131397725

   => Energetics <=

    Nuclear Repulsion Energy =            384.4757308529405577
    One-Electron Energy =               -1235.3927167521696902
    Two-Electron Energy =                 501.6693545852523357
    DFT Exchange-Correlation Energy =       0.0000000000000000
    Empirical Dispersion Energy =           0.0000000000000000
    PCM Polarization Energy =               0.0000000000000000
    EFP Energy =                            0.0000000000000000
    Total Energy =                       -349.2476313139767399

    Alert: EFP and PCM quantities not currently incorporated into SCF psivars.

Properties will be evaluated at   0.000000,   0.000000,   0.000000 Bohr
  ==> Properties <==


Properties computed using the SCF density matrix

  Nuclear Dipole Moment: (a.u.)
     X:     7.7749      Y:     0.8497      Z:     1.9744

  Electronic Dipole Moment: (a.u.)
     X:    -7.5972      Y:    -0.4245      Z:    -1.4849

  Dipole Moment: (a.u.)
     X:     0.1777      Y:     0.4252      Z:     0.4895     Total:     0.6722

  Dipole Moment: (Debye)
     X:     0.4516      Y:     1.0806      Z:     1.2442     Total:     1.7087


  Saving occupied orbitals to File 180.

*** tstop() called on cx1-1-3-2.cx1.hpc.ic.ac.uk at Tue Jul  5 16:24:45 2016
Module time:
	user time   =      20.72 seconds =       0.35 minutes
	system time =       0.21 seconds =       0.00 minutes
	total time  =         21 seconds =       0.35 minutes
Total time:
	user time   =      20.72 seconds =       0.35 minutes
	system time =       0.21 seconds =       0.00 minutes
	total time  =         21 seconds =       0.35 minutes


Properties will be evaluated at   0.000000,   0.000000,   0.000000 Bohr

Properties computed using the  density matrix

  Nuclear Dipole Moment: (a.u.)
     X:     7.7749      Y:     0.8497      Z:     1.9744

  Electronic Dipole Moment: (a.u.)
     X:    -7.5972      Y:    -0.4245      Z:    -1.4849

  Dipole Moment: (a.u.)
     X:     0.1777      Y:     0.4252      Z:     0.4895     Total:     0.6722

  Dipole Moment: (Debye)
     X:     0.4516      Y:     1.0806      Z:     1.2442     Total:     1.7087

  Quadrupole Moment: (Debye Ang)
    XX:   -57.4478     YY:   -50.7095     ZZ:   -54.7718
    XY:    -4.4287     XZ:    -4.7545     YZ:    -1.9856

  Traceless Quadrupole Moment: (Debye Ang)
    XX:    -3.1381     YY:     3.6002     ZZ:    -0.4621
    XY:    -4.4287     XZ:    -4.7545     YZ:    -1.9856

  Mulliken Charges: (a.u.)
   Center  Symbol    Alpha    Beta     Spin     Total
       1     H     0.28339  0.28339  0.00000  0.43323
       2     O     4.36830  4.36830  0.00000 -0.73659
       3     C     2.99616  2.99616  0.00000  0.00767
       4     C     3.16901  3.16901  0.00000 -0.33801
       5     H     0.41632  0.41632  0.00000  0.16736
       6     H     0.42817  0.42817  0.00000  0.14366
       7     C     3.15177  3.15177  0.00000 -0.30355
       8     H     0.42833  0.42833  0.00000  0.14334
       9     H     0.42236  0.42236  0.00000  0.15528
      10     C     3.15360  3.15360  0.00000 -0.30720
      11     H     0.41206  0.41206  0.00000  0.17588
      12     H     0.42360  0.42360  0.00000  0.15279
      13     C     3.15224  3.15224  0.00000 -0.30449
      14     H     0.42295  0.42295  0.00000  0.15410
      15     H     0.42545  0.42545  0.00000  0.14909
      16     C     3.15231  3.15231  0.00000 -0.30461
      17     H     0.42363  0.42363  0.00000  0.15274
      18     H     0.42207  0.42207  0.00000  0.15586
      19     C     3.24104  3.24104  0.00000 -0.48208
      20     H     0.42106  0.42106  0.00000  0.15788
      21     H     0.42378  0.42378  0.00000  0.15245
      22     H     0.42229  0.42229  0.00000  0.15542
      23     H     0.41954  0.41954  0.00000  0.16093
      24     H     0.42058  0.42058  0.00000  0.15884

   Total alpha = 33.00000, Total beta = 33.00000, Total charge = -0.00000



Properties will be evaluated at   0.000000,   0.000000,   0.000000 Bohr

Properties computed using the  density matrix


 Electrostatic potential computed on the grid and written to grid_esp.dat

*** PSI4 exiting successfully. Buy a developer a beer!
