    -----------------------------------------------------------------------
          Psi4: An Open-Source Ab Initio Electronic Structure Package
                              Psi4 (no tag) Driver

                          Git: Rev {detached?}  

    J. M. Turney, A. C. Simmonett, R. M. Parrish, E. G. Hohenstein,
    F. A. Evangelista, J. T. Fermann, B. J. Mintz, L. A. Burns, J. J. Wilke,
    M. L. Abrams, N. J. Russ, M. L. Leininger, C. L. Janssen, E. T. Seidl,
    W. D. Allen, H. F. Schaefer, R. A. King, E. F. Valeev, C. D. Sherrill,
    and T. D. Crawford, WIREs Comput. Mol. Sci. 2, 556-565 (2012)
    (doi: 10.1002/wcms.93)

                         Additional Contributions by
    A. E. DePrince, M. Saitow, U. Bozkaya, A. Yu. Sokolov
    -----------------------------------------------------------------------


    Psi4 started on: Tue Jul  5 16:44:14 2016

    Process ID:  13527
    PSI4DATADIR: /export131/home/mjharvey/miniconda3/share
    Memory level set to 256.000 MB

  ==> Input File <==

--------------------------------------------------------------------------
set {
	reference rhf
	basis 6-31G*
}


set_num_threads( 1 )
memory 2 gb

molecule MOL {
0 1

H	 -2.240291	 0.559484	 0.604969
C	 -2.008299	 -0.205926	 -0.129530
O	 -0.774054	 0.001095	 -0.743181
H	 -2.752932	 -0.160639	 -0.912984
H	 -2.076115	 -1.178578	 0.348530
C	 0.418781	 -0.243284	 -0.019332
C	 1.510936	 -0.156271	 -1.083117
C	 0.645286	 0.829353	 1.050870
C	 0.409087	 -1.641656	 0.606431
H	 1.503126	 0.823715	 -1.546795
H	 1.338315	 -0.895969	 -1.856695
H	 2.491675	 -0.328076	 -0.651497
H	 0.579042	 1.818736	 0.610686
H	 1.630134	 0.717615	 1.492675
H	 -0.079665	 0.764528	 1.855108
H	 0.177351	 -2.388157	 -0.145956
H	 1.382496	 -1.871963	 1.027106
H	 -0.318020	 -1.726770	 1.406870

	symmetry c1
}
set optking {
	frozen_dihedral = ("
		2 3 6 7
	")
}

ee = energy('scf')
oeprop('DIPOLE', 'QUADRUPOLE', 'MULLIKEN_CHARGES')
f=open( 'psi4out.xyz', 'w' )
f.write( "18  " )
f.write( str(ee) + "\n" )
f.write( MOL.save_string_xyz() )
f.close()
--------------------------------------------------------------------------

  Memory set to   2.000 GiB by Python script.

*** tstart() called on cx1-1-4-3.cx1.hpc.ic.ac.uk
*** at Tue Jul  5 16:44:14 2016


         ---------------------------------------------------------
                                   SCF
            by Justin Turney, Rob Parrish, and Andy Simmonett
                              RHF Reference
                        1 Threads,   2000 MiB Core
         ---------------------------------------------------------

  ==> Geometry <==

    Molecular point group: c1
    Full point group: C1

    Geometry (in Angstrom), charge = 0, multiplicity = 1:

       Center              X                  Y                   Z               Mass       
    ------------   -----------------  -----------------  -----------------  -----------------
           H         -2.251376121240     0.796656218976     0.656437169223     1.007825032070
           C         -2.019384121240     0.031246218976    -0.078061830777    12.000000000000
           O         -0.785139121240     0.238267218976    -0.691712830777    15.994914619560
           H         -2.764017121240     0.076533218976    -0.861515830777     1.007825032070
           H         -2.087200121240    -0.941405781024     0.399998169223     1.007825032070
           C          0.407695878760    -0.006111781024     0.032136169223    12.000000000000
           C          1.499850878760     0.080901218976    -1.031648830777    12.000000000000
           C          0.634200878760     1.066525218976     1.102338169223    12.000000000000
           C          0.398001878760    -1.404483781024     0.657899169223    12.000000000000
           H          1.492040878760     1.060887218976    -1.495326830777     1.007825032070
           H          1.327229878760    -0.658796781024    -1.805226830777     1.007825032070
           H          2.480589878760    -0.090903781024    -0.600028830777     1.007825032070
           H          0.567956878760     2.055908218976     0.662154169223     1.007825032070
           H          1.619048878760     0.954787218976     1.544143169223     1.007825032070
           H         -0.090750121240     1.001700218976     1.906576169223     1.007825032070
           H          0.166265878760    -2.150984781024    -0.094487830777     1.007825032070
           H          1.371410878760    -1.634790781024     1.078574169223     1.007825032070
           H         -0.329105121240    -1.489597781024     1.458338169223     1.007825032070

  Running in c1 symmetry.

  Rotational constants: A =      0.14715  B =      0.09156  C =      0.09144 [cm^-1]
  Rotational constants: A =   4411.52189  B =   2744.82248  C =   2741.19652 [MHz]
  Nuclear repulsion =  272.316916780622932

  Charge       = 0
  Multiplicity = 1
  Electrons    = 50
  Nalpha       = 25
  Nbeta        = 25

  ==> Algorithm <==

  SCF Algorithm Type is DF.
  DIIS enabled.
  MOM disabled.
  Fractional occupation disabled.
  Guess Type is CORE.
  Energy threshold   = 1.00e-06
  Density threshold  = 1.00e-06
  Integral threshold = 0.00e+00

  ==> Primary Basis <==

  Basis Set: 6-31G*
    Number of shells: 60
    Number of basis function: 114
    Number of Cartesian functions: 114
    Spherical Harmonics?: false
    Max angular momentum: 2

  ==> Pre-Iterations <==

   -------------------------------------------------------
    Irrep   Nso     Nmo     Nalpha   Nbeta   Ndocc  Nsocc
   -------------------------------------------------------
     A        114     114       0       0       0       0
   -------------------------------------------------------
    Total     114     114      25      25      25       0
   -------------------------------------------------------

 OEINTS: Overlap, kinetic, potential, dipole, and quadrupole integrals
         stored in file 35.

  ==> Integral Setup <==

  ==> DFJK: Density-Fitted J/K Matrices <==

    J tasked:                  Yes
    K tasked:                  Yes
    wK tasked:                  No
    OpenMP threads:              1
    Integrals threads:           1
    Memory (MB):              1430
    Algorithm:                Core
    Integral Cache:           NONE
    Schwarz Cutoff:          1E-12
    Fitting Condition:       1E-12

   => Auxiliary Basis Set <=

  Basis Set: 
    Number of shells: 252
    Number of basis function: 786
    Number of Cartesian functions: 786
    Spherical Harmonics?: false
    Max angular momentum: 3

  Minimum eigenvalue in the overlap matrix is 3.2346947709E-03.
  Using Symmetric Orthogonalization.
  SCF Guess: Core (One-Electron) Hamiltonian.

  ==> Iterations <==

                           Total Energy        Delta E     RMS |[F,P]|

   @DF-RHF iter   1:  -178.58277119182145   -1.78583e+02   9.78413e-02 
   @DF-RHF iter   2:  -220.63416641415625   -4.20514e+01   4.76077e-02 DIIS
   @DF-RHF iter   3:  -241.36424681889707   -2.07301e+01   5.40071e-02 DIIS
   @DF-RHF iter   4:  -263.09567273827315   -2.17314e+01   3.42439e-02 DIIS
   @DF-RHF iter   5:  -268.67330576154586   -5.57763e+00   1.90767e-02 DIIS
   @DF-RHF iter   6:  -270.66861131682867   -1.99531e+00   8.49948e-03 DIIS
   @DF-RHF iter   7:  -271.13525906623499   -4.66648e-01   2.29900e-03 DIIS
   @DF-RHF iter   8:  -271.17099302205406   -3.57340e-02   6.49732e-04 DIIS
   @DF-RHF iter   9:  -271.17425812427928   -3.26510e-03   1.33584e-04 DIIS
   @DF-RHF iter  10:  -271.17445079343202   -1.92669e-04   5.11535e-05 DIIS
   @DF-RHF iter  11:  -271.17448116637706   -3.03729e-05   2.24366e-05 DIIS
   @DF-RHF iter  12:  -271.17448608575046   -4.91937e-06   4.56024e-06 DIIS
   @DF-RHF iter  13:  -271.17448637881057   -2.93060e-07   9.53732e-07 DIIS

  ==> Post-Iterations <==

    Orbital Energies (a.u.)
    -----------------------

    Doubly Occupied:                                                      

       1A    -20.546763     2A    -11.281349     3A    -11.260172  
       4A    -11.209834     5A    -11.207741     6A    -11.203141  
       7A     -1.370088     8A     -1.073031     9A     -0.947078  
      10A     -0.939028    11A     -0.912169    12A     -0.752197  
      13A     -0.656087    14A     -0.644188    15A     -0.637338  
      16A     -0.592792    17A     -0.575189    18A     -0.552290  
      19A     -0.533822    20A     -0.523715    21A     -0.514697  
      22A     -0.487305    23A     -0.486567    24A     -0.439041  
      25A     -0.404060  

    Virtual:                                                              

      26A      0.219516    27A      0.265289    28A      0.277846  
      29A      0.288835    30A      0.306494    31A      0.310300  
      32A      0.322623    33A      0.335806    34A      0.352533  
      35A      0.357882    36A      0.363184    37A      0.367274  
      38A      0.390148    39A      0.404949    40A      0.426452  
      41A      0.441485    42A      0.475821    43A      0.699712  
      44A      0.711720    45A      0.734781    46A      0.766815  
      47A      0.773498    48A      0.809674    49A      0.823265  
      50A      0.879154    51A      0.905323    52A      0.942475  
      53A      0.955342    54A      0.974573    55A      1.012387  
      56A      1.060354    57A      1.103892    58A      1.122535  
      59A      1.148703    60A      1.157307    61A      1.171496  
      62A      1.183665    63A      1.194630    64A      1.200066  
      65A      1.213557    66A      1.225358    67A      1.227290  
      68A      1.261112    69A      1.274783    70A      1.286943  
      71A      1.298060    72A      1.435386    73A      1.458957  
      74A      1.611835    75A      1.625425    76A      1.666515  
      77A      1.678954    78A      1.730776    79A      1.871259  
      80A      1.934260    81A      2.020921    82A      2.024256  
      83A      2.054938    84A      2.104066    85A      2.178787  
      86A      2.191063    87A      2.257004    88A      2.313850  
      89A      2.395790    90A      2.407494    91A      2.455599  
      92A      2.474834    93A      2.501516    94A      2.521751  
      95A      2.580679    96A      2.596060    97A      2.612957  
      98A      2.625287    99A      2.638028   100A      2.691161  
     101A      2.785628   102A      2.798157   103A      2.891987  
     104A      2.961494   105A      3.087410   106A      3.121353  
     107A      3.279066   108A      3.341881   109A      4.397032  
     110A      4.639269   111A      4.692240   112A      4.739620  
     113A      4.760145   114A      5.093600  

    Final Occupation by Irrep:
              A 
    DOCC [    25 ]

  Energy converged.

  @DF-RHF Final Energy:  -271.17448637881057

   => Energetics <=

    Nuclear Repulsion Energy =            272.3169167806229325
    One-Electron Energy =                -907.4836848630526447
    Two-Electron Energy =                 363.9922817036194829
    DFT Exchange-Correlation Energy =       0.0000000000000000
    Empirical Dispersion Energy =           0.0000000000000000
    PCM Polarization Energy =               0.0000000000000000
    EFP Energy =                            0.0000000000000000
    Total Energy =                       -271.1744863788102293

    Alert: EFP and PCM quantities not currently incorporated into SCF psivars.

Properties will be evaluated at   0.000000,   0.000000,   0.000000 Bohr
  ==> Properties <==


Properties computed using the SCF density matrix

  Nuclear Dipole Moment: (a.u.)
     X:     1.4044      Y:    -0.9551      Z:     2.6681

  Electronic Dipole Moment: (a.u.)
     X:    -1.4200      Y:     0.7656      Z:    -2.1784

  Dipole Moment: (a.u.)
     X:    -0.0156      Y:    -0.1895      Z:     0.4897     Total:     0.5253

  Dipole Moment: (Debye)
     X:    -0.0396      Y:    -0.4817      Z:     1.2447     Total:     1.3353


  Saving occupied orbitals to File 180.

*** tstop() called on cx1-1-4-3.cx1.hpc.ic.ac.uk at Tue Jul  5 16:44:23 2016
Module time:
	user time   =       8.72 seconds =       0.15 minutes
	system time =       0.05 seconds =       0.00 minutes
	total time  =          9 seconds =       0.15 minutes
Total time:
	user time   =       8.72 seconds =       0.15 minutes
	system time =       0.05 seconds =       0.00 minutes
	total time  =          9 seconds =       0.15 minutes


Properties will be evaluated at   0.000000,   0.000000,   0.000000 Bohr

Properties computed using the  density matrix

  Nuclear Dipole Moment: (a.u.)
     X:     1.4044      Y:    -0.9551      Z:     2.6681

  Electronic Dipole Moment: (a.u.)
     X:    -1.4200      Y:     0.7656      Z:    -2.1784

  Dipole Moment: (a.u.)
     X:    -0.0156      Y:    -0.1895      Z:     0.4897     Total:     0.5253

  Dipole Moment: (Debye)
     X:    -0.0396      Y:    -0.4817      Z:     1.2447     Total:     1.3353

  Quadrupole Moment: (Debye Ang)
    XX:   -37.1589     YY:   -40.2003     ZZ:   -41.3354
    XY:     0.3908     XZ:    -0.8278     YZ:     0.4237

  Traceless Quadrupole Moment: (Debye Ang)
    XX:     2.4060     YY:    -0.6355     ZZ:    -1.7705
    XY:     0.3908     XZ:    -0.8278     YZ:     0.4237

  Mulliken Charges: (a.u.)
   Center  Symbol    Alpha    Beta     Spin     Total
       1     H     0.42960  0.42960  0.00000  0.14080
       2     C     3.07945  3.07945  0.00000 -0.15889
       3     O     4.31883  4.31883  0.00000 -0.63767
       4     H     0.41338  0.41338  0.00000  0.17324
       5     H     0.42868  0.42868  0.00000  0.14265
       6     C     2.84161  2.84161  0.00000  0.31678
       7     C     3.23281  3.23281  0.00000 -0.46562
       8     C     3.24392  3.24392  0.00000 -0.48784
       9     C     3.25231  3.25231  0.00000 -0.50463
      10     H     0.41379  0.41379  0.00000  0.17242
      11     H     0.41464  0.41464  0.00000  0.17072
      12     H     0.42527  0.42527  0.00000  0.14947
      13     H     0.41314  0.41314  0.00000  0.17372
      14     H     0.42105  0.42105  0.00000  0.15789
      15     H     0.42091  0.42091  0.00000  0.15819
      16     H     0.41337  0.41337  0.00000  0.17326
      17     H     0.41805  0.41805  0.00000  0.16390
      18     H     0.41918  0.41918  0.00000  0.16163

   Total alpha = 25.00000, Total beta = 25.00000, Total charge =  0.00000


*** PSI4 exiting successfully. Buy a developer a beer!
