    -----------------------------------------------------------------------
          Psi4: An Open-Source Ab Initio Electronic Structure Package
                              Psi4 (no tag) Driver

                          Git: Rev {detached?}  

    J. M. Turney, A. C. Simmonett, R. M. Parrish, E. G. Hohenstein,
    F. A. Evangelista, J. T. Fermann, B. J. Mintz, L. A. Burns, J. J. Wilke,
    M. L. Abrams, N. J. Russ, M. L. Leininger, C. L. Janssen, E. T. Seidl,
    W. D. Allen, H. F. Schaefer, R. A. King, E. F. Valeev, C. D. Sherrill,
    and T. D. Crawford, WIREs Comput. Mol. Sci. 2, 556-565 (2012)
    (doi: 10.1002/wcms.93)

                         Additional Contributions by
    A. E. DePrince, M. Saitow, U. Bozkaya, A. Yu. Sokolov
    -----------------------------------------------------------------------


    Psi4 started on: Tue Jul  5 16:31:21 2016

    Process ID:  17268
    PSI4DATADIR: /export131/home/mjharvey/miniconda3/share
    Memory level set to 256.000 MB

  ==> Input File <==

--------------------------------------------------------------------------
set {
	reference rhf
	basis 6-31G*
}


set_num_threads( 1 )
memory 2 gb

molecule MOL {
0 1

H	 1.165808	 1.664142	 0.703447
O	 0.348652	 1.176607	 0.739455
C	 0.489431	 0.077273	 0.000046
C	 -0.764129	 -0.759190	 0.000191
O	 1.498107	 -0.175380	 -0.573804
C	 -2.038368	 0.075731	 -0.000248
H	 -0.717284	 -1.412404	 -0.866059
H	 -0.717458	 -1.411724	 0.866967
H	 -2.086483	 0.712501	 -0.875098
H	 -2.908485	 -0.571682	 -0.000042
H	 -2.086576	 0.713280	 0.874068

	symmetry c1
}
set optking {
	frozen_dihedral = ("
		1 2 3 5
	")
}

ee = energy('scf')
oeprop('DIPOLE', 'QUADRUPOLE', 'MULLIKEN_CHARGES')
f=open( 'psi4out.xyz', 'w' )
f.write( "11  " )
f.write( str(ee) + "\n" )
f.write( MOL.save_string_xyz() )
f.close()
--------------------------------------------------------------------------

  Memory set to   2.000 GiB by Python script.

*** tstart() called on cx1-3-15-3.cx1.hpc.ic.ac.uk
*** at Tue Jul  5 16:31:21 2016


         ---------------------------------------------------------
                                   SCF
            by Justin Turney, Rob Parrish, and Andy Simmonett
                              RHF Reference
                        1 Threads,   2000 MiB Core
         ---------------------------------------------------------

  ==> Geometry <==

    Molecular point group: c1
    Full point group: C1

    Geometry (in Angstrom), charge = 0, multiplicity = 1:

       Center              X                  Y                   Z               Mass       
    ------------   -----------------  -----------------  -----------------  -----------------
           H          1.241797734310     1.550252283714     0.658088087316     1.007825032070
           O          0.424641734310     1.062717283714     0.694096087316    15.994914619560
           C          0.565420734310    -0.036616716286    -0.045312912684    12.000000000000
           C         -0.688139265690    -0.873079716286    -0.045167912684    12.000000000000
           O          1.574096734310    -0.289269716286    -0.619162912684    15.994914619560
           C         -1.962378265690    -0.038158716286    -0.045606912684    12.000000000000
           H         -0.641294265690    -1.526293716286    -0.911417912684     1.007825032070
           H         -0.641468265690    -1.525613716286     0.821608087316     1.007825032070
           H         -2.010493265690     0.598611283714    -0.920456912684     1.007825032070
           H         -2.832495265690    -0.685571716286    -0.045400912684     1.007825032070
           H         -2.010586265690     0.599390283714     0.828709087316     1.007825032070

  Running in c1 symmetry.

  Rotational constants: A =      0.32193  B =      0.13441  C =      0.10244 [cm^-1]
  Rotational constants: A =   9651.30614  B =   4029.50023  C =   3071.05913 [MHz]
  Nuclear repulsion =  180.717093734798340

  Charge       = 0
  Multiplicity = 1
  Electrons    = 40
  Nalpha       = 20
  Nbeta        = 20

  ==> Algorithm <==

  SCF Algorithm Type is DF.
  DIIS enabled.
  MOM disabled.
  Fractional occupation disabled.
  Guess Type is CORE.
  Energy threshold   = 1.00e-06
  Density threshold  = 1.00e-06
  Integral threshold = 0.00e+00

  ==> Primary Basis <==

  Basis Set: 6-31G*
    Number of shells: 42
    Number of basis function: 87
    Number of Cartesian functions: 87
    Spherical Harmonics?: false
    Max angular momentum: 2

  ==> Pre-Iterations <==

   -------------------------------------------------------
    Irrep   Nso     Nmo     Nalpha   Nbeta   Ndocc  Nsocc
   -------------------------------------------------------
     A         87      87       0       0       0       0
   -------------------------------------------------------
    Total      87      87      20      20      20       0
   -------------------------------------------------------

 OEINTS: Overlap, kinetic, potential, dipole, and quadrupole integrals
         stored in file 35.

  ==> Integral Setup <==

  ==> DFJK: Density-Fitted J/K Matrices <==

    J tasked:                  Yes
    K tasked:                  Yes
    wK tasked:                  No
    OpenMP threads:              1
    Integrals threads:           1
    Memory (MB):              1430
    Algorithm:                Core
    Integral Cache:           NONE
    Schwarz Cutoff:          1E-12
    Fitting Condition:       1E-12

   => Auxiliary Basis Set <=

  Basis Set: 
    Number of shells: 174
    Number of basis function: 555
    Number of Cartesian functions: 555
    Spherical Harmonics?: false
    Max angular momentum: 3

  Minimum eigenvalue in the overlap matrix is 3.6090541453E-03.
  Using Symmetric Orthogonalization.
  SCF Guess: Core (One-Electron) Hamiltonian.

  ==> Iterations <==

                           Total Energy        Delta E     RMS |[F,P]|

   @DF-RHF iter   1:  -217.59343436616692   -2.17593e+02   8.21617e-02 
   @DF-RHF iter   2:  -157.44044207854003    6.01530e+01   9.07707e-02 DIIS
   @DF-RHF iter   3:  -249.01669910011603   -9.15763e+01   4.25872e-02 DIIS
   @DF-RHF iter   4:  -240.16143456328771    8.85526e+00   6.08558e-02 DIIS
   @DF-RHF iter   5:  -266.50127978555474   -2.63398e+01   9.80481e-03 DIIS
   @DF-RHF iter   6:  -266.70021701008829   -1.98937e-01   7.04718e-03 DIIS
   @DF-RHF iter   7:  -266.83620190760837   -1.35985e-01   1.08615e-03 DIIS
   @DF-RHF iter   8:  -266.84206861803671   -5.86671e-03   5.04662e-04 DIIS
   @DF-RHF iter   9:  -266.84337716213088   -1.30854e-03   1.66725e-04 DIIS
   @DF-RHF iter  10:  -266.84350324707532   -1.26085e-04   6.49189e-05 DIIS
   @DF-RHF iter  11:  -266.84352760986235   -2.43628e-05   1.83201e-05 DIIS
   @DF-RHF iter  12:  -266.84352913134239   -1.52148e-06   5.77836e-06 DIIS
   @DF-RHF iter  13:  -266.84352931510068   -1.83758e-07   1.71747e-06 DIIS
   @DF-RHF iter  14:  -266.84352933689956   -2.17989e-08   4.33741e-07 DIIS

  ==> Post-Iterations <==

    Orbital Energies (a.u.)
    -----------------------

    Doubly Occupied:                                                      

       1A    -20.614789     2A    -20.550936     3A    -11.381883  
       4A    -11.243415     5A    -11.224892     6A     -1.476083  
       7A     -1.366273     8A     -1.068668     9A     -0.908820  
      10A     -0.821903    11A     -0.702728    12A     -0.680779  
      13A     -0.651768    14A     -0.602622    15A     -0.587530  
      16A     -0.550608    17A     -0.528885    18A     -0.508810  
      19A     -0.475808    20A     -0.440499  

    Virtual:                                                              

      21A      0.190816    22A      0.223177    23A      0.262478  
      24A      0.289917    25A      0.303849    26A      0.316929  
      27A      0.344783    28A      0.398685    29A      0.425421  
      30A      0.488085    31A      0.551550    32A      0.724737  
      33A      0.733817    34A      0.753769    35A      0.782331  
      36A      0.834053    37A      0.890179    38A      0.930812  
      39A      0.972402    40A      0.981236    41A      1.044226  
      42A      1.077701    43A      1.124929    44A      1.138527  
      45A      1.164446    46A      1.178947    47A      1.201571  
      48A      1.215719    49A      1.235805    50A      1.276801  
      51A      1.307897    52A      1.350000    53A      1.358434  
      54A      1.594422    55A      1.627795    56A      1.641257  
      57A      1.750896    58A      1.790469    59A      1.837796  
      60A      1.990485    61A      2.030560    62A      2.065528  
      63A      2.097819    64A      2.116785    65A      2.166262  
      66A      2.215178    67A      2.255286    68A      2.288651  
      69A      2.358884    70A      2.436843    71A      2.588256  
      72A      2.639814    73A      2.651515    74A      2.712338  
      75A      2.760649    76A      2.868579    77A      2.918031  
      78A      3.026584    79A      3.107116    80A      3.246190  
      81A      3.380712    82A      3.485393    83A      4.253684  
      84A      4.499486    85A      4.622070    86A      4.737033  
      87A      4.954735  

    Final Occupation by Irrep:
              A 
    DOCC [    20 ]

  Energy converged.

  @DF-RHF Final Energy:  -266.84352933689956

   => Energetics <=

    Nuclear Repulsion Energy =            180.7170937347983397
    One-Electron Energy =                -722.3458820182220279
    Two-Electron Energy =                 274.7852589465244364
    DFT Exchange-Correlation Energy =       0.0000000000000000
    Empirical Dispersion Energy =           0.0000000000000000
    PCM Polarization Energy =               0.0000000000000000
    EFP Energy =                            0.0000000000000000
    Total Energy =                       -266.8435293368992234

    Alert: EFP and PCM quantities not currently incorporated into SCF psivars.

Properties will be evaluated at   0.000000,   0.000000,   0.000000 Bohr
  ==> Properties <==


Properties computed using the SCF density matrix

  Nuclear Dipole Moment: (a.u.)
     X:    -6.4538      Y:    -0.9237      Z:     0.4045

  Electronic Dipole Moment: (a.u.)
     X:     5.8438      Y:     1.1305      Z:    -0.0239

  Dipole Moment: (a.u.)
     X:    -0.6101      Y:     0.2068      Z:     0.3806     Total:     0.7482

  Dipole Moment: (Debye)
     X:    -1.5506      Y:     0.5257      Z:     0.9674     Total:     1.9017


  Saving occupied orbitals to File 180.

*** tstop() called on cx1-3-15-3.cx1.hpc.ic.ac.uk at Tue Jul  5 16:31:25 2016
Module time:
	user time   =       3.27 seconds =       0.05 minutes
	system time =       0.02 seconds =       0.00 minutes
	total time  =          4 seconds =       0.07 minutes
Total time:
	user time   =       3.27 seconds =       0.05 minutes
	system time =       0.02 seconds =       0.00 minutes
	total time  =          4 seconds =       0.07 minutes


Properties will be evaluated at   0.000000,   0.000000,   0.000000 Bohr

Properties computed using the  density matrix

  Nuclear Dipole Moment: (a.u.)
     X:    -6.4538      Y:    -0.9237      Z:     0.4045

  Electronic Dipole Moment: (a.u.)
     X:     5.8438      Y:     1.1305      Z:    -0.0239

  Dipole Moment: (a.u.)
     X:    -0.6101      Y:     0.2068      Z:     0.3806     Total:     0.7482

  Dipole Moment: (Debye)
     X:    -1.5506      Y:     0.5257      Z:     0.9674     Total:     1.9017

  Quadrupole Moment: (Debye Ang)
    XX:   -32.3663     YY:   -27.7243     ZZ:   -30.9663
    XY:     4.3884     XZ:     3.4796     YZ:    -0.7101

  Traceless Quadrupole Moment: (Debye Ang)
    XX:    -2.0140     YY:     2.6280     ZZ:    -0.6140
    XY:     4.3884     XZ:     3.4796     YZ:    -0.7101

  Mulliken Charges: (a.u.)
   Center  Symbol    Alpha    Beta     Spin     Total
       1     H     0.26736  0.26736  0.00000  0.46529
       2     O     4.34757  4.34757  0.00000 -0.69514
       3     C     2.62540  2.62540  0.00000  0.74920
       4     C     3.20767  3.20767  0.00000 -0.41533
       5     O     4.28027  4.28027  0.00000 -0.56054
       6     C     3.24565  3.24565  0.00000 -0.49130
       7     H     0.39610  0.39610  0.00000  0.20780
       8     H     0.39826  0.39826  0.00000  0.20348
       9     H     0.41375  0.41375  0.00000  0.17250
      10     H     0.41421  0.41421  0.00000  0.17158
      11     H     0.40377  0.40377  0.00000  0.19246

   Total alpha = 20.00000, Total beta = 20.00000, Total charge = -0.00000


*** PSI4 exiting successfully. Buy a developer a beer!
