    -----------------------------------------------------------------------
          Psi4: An Open-Source Ab Initio Electronic Structure Package
                              Psi4 (no tag) Driver

                          Git: Rev {detached?}  

    J. M. Turney, A. C. Simmonett, R. M. Parrish, E. G. Hohenstein,
    F. A. Evangelista, J. T. Fermann, B. J. Mintz, L. A. Burns, J. J. Wilke,
    M. L. Abrams, N. J. Russ, M. L. Leininger, C. L. Janssen, E. T. Seidl,
    W. D. Allen, H. F. Schaefer, R. A. King, E. F. Valeev, C. D. Sherrill,
    and T. D. Crawford, WIREs Comput. Mol. Sci. 2, 556-565 (2012)
    (doi: 10.1002/wcms.93)

                         Additional Contributions by
    A. E. DePrince, M. Saitow, U. Bozkaya, A. Yu. Sokolov
    -----------------------------------------------------------------------


    Psi4 started on: Tue Jul  5 16:41:29 2016

    Process ID:   3547
    PSI4DATADIR: /export131/home/mjharvey/miniconda3/share
    Memory level set to 256.000 MB

  ==> Input File <==

--------------------------------------------------------------------------
set {
	reference rhf
	basis 6-31G*
}


set_num_threads( 1 )
memory 2 gb

molecule MOL {
0 1

H	 -3.161837	 0.500524	 -0.000234
C	 -2.367097	 -0.232926	 -0.000000
O	 -1.158440	 0.455814	 -0.000122
H	 -2.468853	 -0.861886	 -0.882833
H	 -2.468942	 -0.861421	 0.883154
C	 -1.058687	 1.440634	 0.983775
C	 0.300233	 2.109559	 0.871797
H	 -1.182068	 0.997128	 1.972703
H	 -1.854304	 2.176601	 0.860266
C	 1.193391	 1.823954	 2.078271
H	 0.779476	 1.764984	 -0.039387
H	 0.149488	 3.179035	 0.761368
H	 1.376895	 0.759195	 2.192464
H	 2.155689	 2.313409	 1.972146
H	 0.742079	 2.182698	 2.999153

	symmetry c1
}
set optking {
	frozen_dihedral = ("
		6 3 2 4,
		8 6 3 2
	")
}

ee = energy('scf')
oeprop('DIPOLE', 'QUADRUPOLE', 'MULLIKEN_CHARGES')
f=open( 'psi4out.xyz', 'w' )
f.write( "15  " )
f.write( str(ee) + "\n" )
f.write( MOL.save_string_xyz() )
f.close()
--------------------------------------------------------------------------

  Memory set to   2.000 GiB by Python script.

*** tstart() called on cx1-3-16-3.cx1.hpc.ic.ac.uk
*** at Tue Jul  5 16:41:29 2016


         ---------------------------------------------------------
                                   SCF
            by Justin Turney, Rob Parrish, and Andy Simmonett
                              RHF Reference
                        1 Threads,   2000 MiB Core
         ---------------------------------------------------------

  ==> Geometry <==

    Molecular point group: c1
    Full point group: C1

    Geometry (in Angstrom), charge = 0, multiplicity = 1:

       Center              X                  Y                   Z               Mass       
    ------------   -----------------  -----------------  -----------------  -----------------
           H         -2.517961893939    -0.596103926009    -0.783335945501     1.007825032070
           C         -1.723221893939    -1.329553926009    -0.783101945501    12.000000000000
           O         -0.514564893939    -0.640813926009    -0.783223945501    15.994914619560
           H         -1.824977893939    -1.958513926009    -1.665934945501     1.007825032070
           H         -1.825066893939    -1.958048926009     0.100052054499     1.007825032070
           C         -0.414811893939     0.344006073991     0.200673054499    12.000000000000
           C          0.944108106061     1.012931073991     0.088695054499    12.000000000000
           H         -0.538192893939    -0.099499926009     1.189601054499     1.007825032070
           H         -1.210428893939     1.079973073991     0.077164054499     1.007825032070
           C          1.837266106061     0.727326073991     1.295169054499    12.000000000000
           H          1.423351106061     0.668356073991    -0.822488945501     1.007825032070
           H          0.793363106061     2.082407073991    -0.021733945501     1.007825032070
           H          2.020770106061    -0.337432926009     1.409362054499     1.007825032070
           H          2.799564106061     1.216781073991     1.189044054499     1.007825032070
           H          1.385954106061     1.086070073991     2.216051054499     1.007825032070

  Running in c1 symmetry.

  Rotational constants: A =      0.52797  B =      0.07547  C =      0.07424 [cm^-1]
  Rotational constants: A =  15828.03657  B =   2262.63244  C =   2225.64304 [MHz]
  Nuclear repulsion =  190.973566018279769

  Charge       = 0
  Multiplicity = 1
  Electrons    = 42
  Nalpha       = 21
  Nbeta        = 21

  ==> Algorithm <==

  SCF Algorithm Type is DF.
  DIIS enabled.
  MOM disabled.
  Fractional occupation disabled.
  Guess Type is CORE.
  Energy threshold   = 1.00e-06
  Density threshold  = 1.00e-06
  Integral threshold = 0.00e+00

  ==> Primary Basis <==

  Basis Set: 6-31G*
    Number of shells: 50
    Number of basis function: 95
    Number of Cartesian functions: 95
    Spherical Harmonics?: false
    Max angular momentum: 2

  ==> Pre-Iterations <==

   -------------------------------------------------------
    Irrep   Nso     Nmo     Nalpha   Nbeta   Ndocc  Nsocc
   -------------------------------------------------------
     A         95      95       0       0       0       0
   -------------------------------------------------------
    Total      95      95      21      21      21       0
   -------------------------------------------------------

 OEINTS: Overlap, kinetic, potential, dipole, and quadrupole integrals
         stored in file 35.

  ==> Integral Setup <==

  ==> DFJK: Density-Fitted J/K Matrices <==

    J tasked:                  Yes
    K tasked:                  Yes
    wK tasked:                  No
    OpenMP threads:              1
    Integrals threads:           1
    Memory (MB):              1430
    Algorithm:                Core
    Integral Cache:           NONE
    Schwarz Cutoff:          1E-12
    Fitting Condition:       1E-12

   => Auxiliary Basis Set <=

  Basis Set: 
    Number of shells: 210
    Number of basis function: 655
    Number of Cartesian functions: 655
    Spherical Harmonics?: false
    Max angular momentum: 3

  Minimum eigenvalue in the overlap matrix is 4.4012958134E-03.
  Using Symmetric Orthogonalization.
  SCF Guess: Core (One-Electron) Hamiltonian.

  ==> Iterations <==

                           Total Energy        Delta E     RMS |[F,P]|

   @DF-RHF iter   1:  -181.71101938252468   -1.81711e+02   8.17552e-02 
   @DF-RHF iter   2:  -158.16199472550244    2.35490e+01   6.47417e-02 DIIS
   @DF-RHF iter   3:  -202.15681454131936   -4.39948e+01   5.41658e-02 DIIS
   @DF-RHF iter   4:  -229.05425788349669   -2.68974e+01   2.60336e-02 DIIS
   @DF-RHF iter   5:  -232.02772549151899   -2.97347e+00   4.38966e-03 DIIS
   @DF-RHF iter   6:  -232.11408314657177   -8.63577e-02   2.00418e-03 DIIS
   @DF-RHF iter   7:  -232.13086976288372   -1.67866e-02   3.66013e-04 DIIS
   @DF-RHF iter   8:  -232.13175592544542   -8.86163e-04   1.24597e-04 DIIS
   @DF-RHF iter   9:  -232.13183272486276   -7.67994e-05   3.49854e-05 DIIS
   @DF-RHF iter  10:  -232.13184243395159   -9.70909e-06   7.85539e-06 DIIS
   @DF-RHF iter  11:  -232.13184309164507   -6.57693e-07   2.82437e-06 DIIS
   @DF-RHF iter  12:  -232.13184314862463   -5.69796e-08   9.04117e-07 DIIS

  ==> Post-Iterations <==

    Orbital Energies (a.u.)
    -----------------------

    Doubly Occupied:                                                      

       1A    -20.552043     2A    -11.265419     3A    -11.263665  
       4A    -11.212460     5A    -11.209579     6A     -1.377922  
       7A     -1.055870     8A     -0.952521     9A     -0.880557  
      10A     -0.807206    11A     -0.671087    12A     -0.658641  
      13A     -0.631348    14A     -0.591519    15A     -0.574676  
      16A     -0.546478    17A     -0.491229    18A     -0.488683  
      19A     -0.480685    20A     -0.460518    21A     -0.409981  

    Virtual:                                                              

      22A      0.235543    23A      0.252709    24A      0.285761  
      25A      0.299149    26A      0.314649    27A      0.319473  
      28A      0.328076    29A      0.332016    30A      0.338608  
      31A      0.354134    32A      0.375757    33A      0.428437  
      34A      0.447951    35A      0.485533    36A      0.713695  
      37A      0.732374    38A      0.757949    39A      0.771845  
      40A      0.782437    41A      0.798722    42A      0.830261  
      43A      0.908173    44A      0.928022    45A      0.984269  
      46A      1.042939    47A      1.065246    48A      1.114055  
      49A      1.120087    50A      1.141059    51A      1.148308  
      52A      1.165813    53A      1.179724    54A      1.187104  
      55A      1.205797    56A      1.224713    57A      1.247248  
      58A      1.257793    59A      1.315569    60A      1.392440  
      61A      1.410413    62A      1.493997    63A      1.635294  
      64A      1.680422    65A      1.742459    66A      1.800717  
      67A      1.832291    68A      2.000011    69A      2.020825  
      70A      2.061082    71A      2.184671    72A      2.220604  
      73A      2.303864    74A      2.341539    75A      2.382521  
      76A      2.428326    77A      2.471050    78A      2.490639  
      79A      2.522508    80A      2.578961    81A      2.636240  
      82A      2.667295    83A      2.732015    84A      2.755491  
      85A      2.865537    86A      2.876676    87A      2.972383  
      88A      3.054554    89A      3.198300    90A      3.333709  
      91A      4.373293    92A      4.582837    93A      4.664263  
      94A      4.766090    95A      4.950360  

    Final Occupation by Irrep:
              A 
    DOCC [    21 ]

  Energy converged.

  @DF-RHF Final Energy:  -232.13184314862463

   => Energetics <=

    Nuclear Repulsion Energy =            190.9735660182797687
    One-Electron Energy =                -693.0469247170304925
    Two-Electron Energy =                 269.9415155501270078
    DFT Exchange-Correlation Energy =       0.0000000000000000
    Empirical Dispersion Energy =           0.0000000000000000
    PCM Polarization Energy =               0.0000000000000000
    EFP Energy =                            0.0000000000000000
    Total Energy =                       -232.1318431486237159

    Alert: EFP and PCM quantities not currently incorporated into SCF psivars.

Properties will be evaluated at   0.000000,   0.000000,   0.000000 Bohr
  ==> Properties <==


Properties computed using the SCF density matrix

  Nuclear Dipole Moment: (a.u.)
     X:     0.4722      Y:     1.1069      Z:     2.7034

  Electronic Dipole Moment: (a.u.)
     X:    -0.8478      Y:    -0.9964      Z:    -2.3905

  Dipole Moment: (a.u.)
     X:    -0.3755      Y:     0.1105      Z:     0.3129     Total:     0.5011

  Dipole Moment: (Debye)
     X:    -0.9545      Y:     0.2808      Z:     0.7954     Total:     1.2738


  Saving occupied orbitals to File 180.

*** tstop() called on cx1-3-16-3.cx1.hpc.ic.ac.uk at Tue Jul  5 16:41:34 2016
Module time:
	user time   =       4.71 seconds =       0.08 minutes
	system time =       0.04 seconds =       0.00 minutes
	total time  =          5 seconds =       0.08 minutes
Total time:
	user time   =       4.71 seconds =       0.08 minutes
	system time =       0.04 seconds =       0.00 minutes
	total time  =          5 seconds =       0.08 minutes


Properties will be evaluated at   0.000000,   0.000000,   0.000000 Bohr

Properties computed using the  density matrix

  Nuclear Dipole Moment: (a.u.)
     X:     0.4722      Y:     1.1069      Z:     2.7034

  Electronic Dipole Moment: (a.u.)
     X:    -0.8478      Y:    -0.9964      Z:    -2.3905

  Dipole Moment: (a.u.)
     X:    -0.3755      Y:     0.1105      Z:     0.3129     Total:     0.5011

  Dipole Moment: (Debye)
     X:    -0.9545      Y:     0.2808      Z:     0.7954     Total:     1.2738

  Quadrupole Moment: (Debye Ang)
    XX:   -31.1473     YY:   -32.1030     ZZ:   -34.2370
    XY:     1.5900     XZ:     0.4719     YZ:     0.1764

  Traceless Quadrupole Moment: (Debye Ang)
    XX:     1.3484     YY:     0.3928     ZZ:    -1.7412
    XY:     1.5900     XZ:     0.4719     YZ:     0.1764

  Mulliken Charges: (a.u.)
   Center  Symbol    Alpha    Beta     Spin     Total
       1     H     0.43117  0.43117  0.00000  0.13767
       2     C     3.07870  3.07870  0.00000 -0.15740
       3     O     4.30544  4.30544  0.00000 -0.61088
       4     H     0.41290  0.41290  0.00000  0.17420
       5     H     0.42986  0.42986  0.00000  0.14028
       6     C     2.98845  2.98845  0.00000  0.02310
       7     C     3.16494  3.16494  0.00000 -0.32988
       8     H     0.43007  0.43007  0.00000  0.13987
       9     H     0.43108  0.43108  0.00000  0.13784
      10     C     3.24540  3.24540  0.00000 -0.49080
      11     H     0.40271  0.40271  0.00000  0.19458
      12     H     0.42056  0.42056  0.00000  0.15887
      13     H     0.41668  0.41668  0.00000  0.16664
      14     H     0.41906  0.41906  0.00000  0.16187
      15     H     0.42298  0.42298  0.00000  0.15404

   Total alpha = 21.00000, Total beta = 21.00000, Total charge = -0.00000


*** PSI4 exiting successfully. Buy a developer a beer!
