
    -----------------------------------------------------------------------
          Psi4: An Open-Source Ab Initio Electronic Structure Package
                               Psi4 1.1 release

                         Git: Rev {HEAD} add49b9 


    R. M. Parrish, L. A. Burns, D. G. A. Smith, A. C. Simmonett,
    A. E. DePrince III, E. G. Hohenstein, U. Bozkaya, A. Yu. Sokolov,
    R. Di Remigio, R. M. Richard, J. F. Gonthier, A. M. James,
    H. R. McAlexander, A. Kumar, M. Saitow, X. Wang, B. P. Pritchard,
    P. Verma, H. F. Schaefer III, K. Patkowski, R. A. King, E. F. Valeev,
    F. A. Evangelista, J. M. Turney, T. D. Crawford, and C. D. Sherrill,
    J. Chem. Theory Comput. in press (2017).
    (doi: 10.1021/acs.jctc.7b00174)

    -----------------------------------------------------------------------


    Psi4 started on: Tuesday, 12 December 2017 10:56AM

    Process ID:  23524
    PSIDATADIR: /shared/raimis/opt/miniconda/envs/htmd/share/psi4
    Memory:     500.0 MiB
    Threads:    1
    
  ==> Input File <==

--------------------------------------------------------------------------
set_num_threads(1)
set_memory(4203741184)

set { reference rks }
set { basis cc-pVDZ }

molecule MOL {
    0 1
    noreorient
    nocom
    symmetry c1
    O    1.141000   0.017000   0.083000
    C    2.558000   0.086000  -0.005000
    C    3.192000  -0.789000   1.067000
    O    4.610000  -0.719000   0.979000
    H    0.789000   0.590000  -0.620000
    H    2.874000   1.128000   0.115000
    H    2.871000  -0.243000  -1.001000
    H    2.876000  -1.830000   0.947000
    H    2.879000  -0.459000   2.064000
    H    4.924939  -0.373440   1.832398
}

set optking { frozen_dihedral = (" 2 3 4 10 ") }

energy, wfn = energy('B3LYP-D3', return_wfn=True)

import os
os.chdir(os.environ['HTMD_PSI4_WORKDIR'])

oeprop(wfn, 'DIPOLE', 'QUADRUPOLE', 'MULLIKEN_CHARGES')

with open('psi4out.xyz', 'w') as f:
    f.write('10 ' )
    f.write('%.12f\n' % energy)
    f.write(MOL.save_string_xyz())
--------------------------------------------------------------------------
  Threads set to 1 by Python driver.

  Memory set to   3.915 GiB by Python driver.

*** tstart() called on computer06
*** at Tue Dec 12 10:56:52 2017

   => Loading Basis Set <=

    Name: CC-PVDZ
    Role: ORBITAL
    Keyword: BASIS
    atoms 1, 4 entry O          line   190 file /shared/raimis/opt/miniconda/envs/htmd/share/psi4/basis/cc-pvdz.gbs 
    atoms 2-3  entry C          line   130 file /shared/raimis/opt/miniconda/envs/htmd/share/psi4/basis/cc-pvdz.gbs 
    atoms 5-10 entry H          line    20 file /shared/raimis/opt/miniconda/envs/htmd/share/psi4/basis/cc-pvdz.gbs 


         ---------------------------------------------------------
                                   SCF
            by Justin Turney, Rob Parrish, and Andy Simmonett
                              RKS Reference
                        1 Threads,   4009 MiB Core
         ---------------------------------------------------------

  ==> Geometry <==

    Molecular point group: c1
    Full point group: C1

    Geometry (in Angstrom), charge = 0, multiplicity = 1:

       Center              X                  Y                   Z               Mass       
    ------------   -----------------  -----------------  -----------------  -----------------
           O          1.141000000000     0.017000000000     0.083000000000    15.994914619560
           C          2.558000000000     0.086000000000    -0.005000000000    12.000000000000
           C          3.192000000000    -0.789000000000     1.067000000000    12.000000000000
           O          4.610000000000    -0.719000000000     0.979000000000    15.994914619560
           H          0.789000000000     0.590000000000    -0.620000000000     1.007825032070
           H          2.874000000000     1.128000000000     0.115000000000     1.007825032070
           H          2.871000000000    -0.243000000000    -1.001000000000     1.007825032070
           H          2.876000000000    -1.830000000000     0.947000000000     1.007825032070
           H          2.879000000000    -0.459000000000     2.064000000000     1.007825032070
           H          4.924939000000    -0.373440000000     1.832398000000     1.007825032070

  Running in c1 symmetry.

  Rotational constants: A =      0.82238  B =      0.02540  C =      0.02492 [cm^-1]
  Rotational constants: A =  24654.32104  B =    761.61765  C =    747.05556 [MHz]
  Nuclear repulsion =  129.567091636979910

  Charge       = 0
  Multiplicity = 1
  Electrons    = 34
  Nalpha       = 17
  Nbeta        = 17

  ==> Algorithm <==

  SCF Algorithm Type is DF.
  DIIS enabled.
  MOM disabled.
  Fractional occupation disabled.
  Guess Type is SAD.
  Energy threshold   = 1.00e-06
  Density threshold  = 1.00e-06
  Integral threshold = 0.00e+00

  ==> Primary Basis <==

  Basis Set: CC-PVDZ
    Blend: CC-PVDZ
    Number of shells: 42
    Number of basis function: 86
    Number of Cartesian functions: 90
    Spherical Harmonics?: true
    Max angular momentum: 2

  ==> DFT Potential <==

   => B3LYP Composite Functional <= 

    B3LYP Hybrid-GGA Exchange-Correlation Functional (VWN1-RPA)

    P.J. Stephens et. al., J. Phys. Chem., 98, 11623-11627, 1994

    Points   =           5000
    Deriv    =              1
    GGA      =           TRUE
    Meta     =          FALSE

    X_LRC        =          FALSE
    X_Hybrid     =           TRUE
    X_Alpha      =   2.000000E-01
    X_Omega      =   0.000000E+00
    C_LRC        =          FALSE
    C_Hybrid     =          FALSE
    C_Alpha      =   0.000000E+00
    C_Omega      =   0.000000E+00

   => Exchange Functionals <=

    0.8000    B3_X
    0.2000      HF 

   => Correlation Functionals <=

    0.1900 VWN3RPA_C
    0.8100   LYP_C

   => Molecular Quadrature <=

    Radial Scheme    =       TREUTLER
    Pruning Scheme   =           FLAT
    Nuclear Scheme   =       TREUTLER

    BS radius alpha  =              1
    Pruning alpha    =              1
    Radial Points    =             75
    Spherical Points =            302
    Total Points     =         222556
    Total Blocks     =            211
    Max Points       =           4828
    Max Functions    =             86

   => -D3ZERO: Empirical Dispersion <=

    Grimme's -D3 (zero-damping) Dispersion Correction
    Grimme S.; Antony J.; Ehrlich S.; Krieg H. (2010), J. Chem. Phys., 132: 154104

        S6 =   1.000000E+00
        S8 =   1.703000E+00
       SR6 =   1.261000E+00
    ALPHA6 =   1.400000E+01

   => Loading Basis Set <=

    Name: (CC-PVDZ AUX)
    Role: JKFIT
    Keyword: DF_BASIS_SCF
    atoms 1, 4 entry O          line   220 file /shared/raimis/opt/miniconda/envs/htmd/share/psi4/basis/cc-pvdz-jkfit.gbs 
    atoms 2-3  entry C          line   120 file /shared/raimis/opt/miniconda/envs/htmd/share/psi4/basis/cc-pvdz-jkfit.gbs 
    atoms 5-10 entry H          line    50 file /shared/raimis/opt/miniconda/envs/htmd/share/psi4/basis/cc-pvdz-jkfit.gbs 

  ==> Pre-Iterations <==

   -------------------------------------------------------
    Irrep   Nso     Nmo     Nalpha   Nbeta   Ndocc  Nsocc
   -------------------------------------------------------
     A         86      86       0       0       0       0
   -------------------------------------------------------
    Total      86      86      17      17      17       0
   -------------------------------------------------------

  ==> Integral Setup <==

  ==> DFJK: Density-Fitted J/K Matrices <==

    J tasked:                  Yes
    K tasked:                  Yes
    wK tasked:                  No
    OpenMP threads:              1
    Integrals threads:           1
    Memory (MB):              3006
    Algorithm:                Core
    Integral Cache:           NONE
    Schwarz Cutoff:          1E-12
    Fitting Condition:       1E-12

   => Auxiliary Basis Set <=

  Basis Set: (CC-PVDZ AUX)
    Blend: CC-PVDZ-JKFIT
    Number of shells: 150
    Number of basis function: 418
    Number of Cartesian functions: 474
    Spherical Harmonics?: true
    Max angular momentum: 3

  Minimum eigenvalue in the overlap matrix is 5.1848621795E-03.
  Using Symmetric Orthogonalization.

  SCF Guess: Superposition of Atomic Densities via on-the-fly atomic UHF.

  ==> Iterations <==

                           Total Energy        Delta E     RMS |[F,P]|

   @DF-RKS iter   0:  -230.98471888730404   -2.30985e+02   4.10100e-02 
   @DF-RKS iter   1:  -230.17334913776205    8.11370e-01   5.34935e-03 
   @DF-RKS iter   2:  -230.11895578516717    5.43934e-02   7.17582e-03 DIIS
   @DF-RKS iter   3:  -230.25556703409154   -1.36611e-01   6.45266e-04 DIIS
   @DF-RKS iter   4:  -230.25672507335076   -1.15804e-03   2.15575e-04 DIIS
   @DF-RKS iter   5:  -230.25688859139709   -1.63518e-04   4.77038e-05 DIIS
   @DF-RKS iter   6:  -230.25689648609912   -7.89470e-06   6.85391e-06 DIIS
   @DF-RKS iter   7:  -230.25689657447194   -8.83728e-08   4.33095e-06 DIIS
   @DF-RKS iter   8:  -230.25689662435894   -4.98870e-08   4.44283e-07 DIIS

  ==> Post-Iterations <==

    Orbital Energies (a.u.)
    -----------------------

    Doubly Occupied:                                                      

       1A    -19.133402     2A    -19.130509     3A    -10.226783  
       4A    -10.223767     5A     -1.019456     6A     -1.008706  
       7A     -0.730985     8A     -0.606654     9A     -0.525495  
      10A     -0.491147    11A     -0.457332    12A     -0.420688  
      13A     -0.396030    14A     -0.340423    15A     -0.323215  
      16A     -0.268119    17A     -0.263266  

    Virtual:                                                              

      18A      0.041599    19A      0.053452    20A      0.108184  
      21A      0.121307    22A      0.124511    23A      0.164655  
      24A      0.188805    25A      0.247965    26A      0.249677  
      27A      0.434509    28A      0.442807    29A      0.503761  
      30A      0.533193    31A      0.558516    32A      0.588773  
      33A      0.604925    34A      0.623508    35A      0.631627  
      36A      0.650774    37A      0.656931    38A      0.679662  
      39A      0.885035    40A      0.906229    41A      0.909449  
      42A      0.970605    43A      1.014789    44A      1.058200  
      45A      1.060584    46A      1.113017    47A      1.201003  
      48A      1.209869    49A      1.252148    50A      1.341563  
      51A      1.347587    52A      1.394585    53A      1.462269  
      54A      1.534748    55A      1.595328    56A      1.609585  
      57A      1.636917    58A      1.651071    59A      1.672047  
      60A      1.695246    61A      1.746516    62A      1.755658  
      63A      1.809873    64A      1.846591    65A      1.909881  
      66A      1.999848    67A      2.024934    68A      2.080565  
      69A      2.111054    70A      2.142565    71A      2.244419  
      72A      2.290205    73A      2.404199    74A      2.448932  
      75A      2.468294    76A      2.526333    77A      2.921838  
      78A      2.940680    79A      2.971975    80A      3.023820  
      81A      3.072006    82A      3.147234    83A      3.190235  
      84A      3.223975    85A      3.665201    86A      3.696733  

    Final Occupation by Irrep:
              A 
    DOCC [    17 ]

  Energy converged.

  @DF-RKS Final Energy:  -230.25689662435894

   => Energetics <=

    Nuclear Repulsion Energy =            129.5670916369799102
    One-Electron Energy =                -570.8829957657035266
    Two-Electron Energy =                 235.6026131304230660
    DFT Exchange-Correlation Energy =     -24.5391551660584142
    Empirical Dispersion Energy =          -0.0044504600000000
    PCM Polarization Energy =               0.0000000000000000
    EFP Energy =                            0.0000000000000000
    Total Energy =                       -230.2568966243589443



Properties will be evaluated at   0.000000,   0.000000,   0.000000 Bohr

Properties computed using the SCF density matrix

  Nuclear Dipole Moment: (a.u.)
     X:   184.6677      Y:   -20.8275      Z:    34.4032

  Electronic Dipole Moment: (a.u.)
     X:  -184.6776      Y:    21.3542      Z:   -34.2848

  Dipole Moment: (a.u.)
     X:    -0.0099      Y:     0.5267      Z:     0.1184     Total:     0.5399

  Dipole Moment: (Debye)
     X:    -0.0251      Y:     1.3387      Z:     0.3010     Total:     1.3723


*** tstop() called on computer06 at Tue Dec 12 10:57:09 2017
Module time:
	user time   =      16.52 seconds =       0.28 minutes
	system time =       0.14 seconds =       0.00 minutes
	total time  =         17 seconds =       0.28 minutes
Total time:
	user time   =      16.52 seconds =       0.28 minutes
	system time =       0.14 seconds =       0.00 minutes
	total time  =         17 seconds =       0.28 minutes


Properties will be evaluated at   0.000000,   0.000000,   0.000000 Bohr

Properties computed using the  density matrix

  Nuclear Dipole Moment: (a.u.)
     X:   184.6677      Y:   -20.8275      Z:    34.4032

  Electronic Dipole Moment: (a.u.)
     X:  -184.6776      Y:    21.3542      Z:   -34.2848

  Dipole Moment: (a.u.)
     X:    -0.0099      Y:     0.5267      Z:     0.1184     Total:     0.5399

  Dipole Moment: (Debye)
     X:    -0.0251      Y:     1.3387      Z:     0.3010     Total:     1.3723

  Quadrupole Moment: (Debye Ang)
    XX:   -26.9461     YY:   -24.7966     ZZ:   -19.7932
    XY:     3.4531     XZ:     5.9786     YZ:    -0.6470

  Traceless Quadrupole Moment: (Debye Ang)
    XX:    -3.1008     YY:    -0.9513     ZZ:     4.0521
    XY:     3.4531     XZ:     5.9786     YZ:    -0.6470

  Mulliken Charges: (a.u.)
   Center  Symbol    Alpha    Beta     Spin     Total
       1     O     4.14101  4.14101  0.00000 -0.28203
       2     C     2.93538  2.93538  0.00000  0.12923
       3     C     2.93744  2.93744  0.00000  0.12513
       4     O     4.14004  4.14004  0.00000 -0.28008
       5     H     0.42797  0.42797  0.00000  0.14406
       6     H     0.50402  0.50402  0.00000 -0.00805
       7     H     0.49778  0.49778  0.00000  0.00443
       8     H     0.49167  0.49167  0.00000  0.01667
       9     H     0.49740  0.49740  0.00000  0.00521
      10     H     0.42728  0.42728  0.00000  0.14543

   Total alpha = 17.00000, Total beta = 17.00000, Total charge =  0.00000


*** Psi4 exiting successfully. Buy a developer a beer!
