    -----------------------------------------------------------------------
          Psi4: An Open-Source Ab Initio Electronic Structure Package
                              Psi4 (no tag) Driver

                          Git: Rev {detached?}  

    J. M. Turney, A. C. Simmonett, R. M. Parrish, E. G. Hohenstein,
    F. A. Evangelista, J. T. Fermann, B. J. Mintz, L. A. Burns, J. J. Wilke,
    M. L. Abrams, N. J. Russ, M. L. Leininger, C. L. Janssen, E. T. Seidl,
    W. D. Allen, H. F. Schaefer, R. A. King, E. F. Valeev, C. D. Sherrill,
    and T. D. Crawford, WIREs Comput. Mol. Sci. 2, 556-565 (2012)
    (doi: 10.1002/wcms.93)

                         Additional Contributions by
    A. E. DePrince, M. Saitow, U. Bozkaya, A. Yu. Sokolov
    -----------------------------------------------------------------------


    Psi4 started on: Tue Jul  5 17:13:24 2016

    Process ID:   2730
    PSI4DATADIR: /export131/home/mjharvey/miniconda3/share
    Memory level set to 256.000 MB

  ==> Input File <==

--------------------------------------------------------------------------
set {
	reference rhf
	basis 6-31G*
}


set_num_threads( 1 )
memory 2 gb

molecule MOL {
0 1

O	 0.347820	 1.546513	 -0.219309
C	 0.140502	 1.681556	 -1.381988
C	 0.062876	 0.565942	 -2.395534
O	 -0.054281	 2.863688	 -1.952602
C	 -0.798671	 -0.607879	 -1.940317
H	 -0.312206	 0.993873	 -3.321246
H	 1.080250	 0.248634	 -2.607711
C	 -2.197864	 -0.168223	 -1.506348
H	 -0.303108	 -1.119723	 -1.121210
H	 -0.873659	 -1.331168	 -2.746377
C	 -2.199563	 0.540614	 -0.152631
H	 -2.621078	 0.493034	 -2.259810
H	 -2.853244	 -1.035615	 -1.459677
H	 -1.579829	 1.432240	 -0.176851
H	 -3.202950	 0.841999	 0.131373
H	 -1.814244	 -0.107528	 0.629086
C	 1.065166	 3.726192	 -2.042424
H	 1.444631	 3.960080	 -1.058153
H	 0.709774	 4.621320	 -2.528624
H	 1.850932	 3.269393	 -2.626729

	symmetry c1
}
set optking {
	frozen_dihedral = ("
		9 5 8 12,
		1 2 3 6,
		9 5 3 6
	")
}

ee = energy('scf')
oeprop('DIPOLE', 'QUADRUPOLE', 'MULLIKEN_CHARGES')
f=open( 'psi4out.xyz', 'w' )
f.write( "20  " )
f.write( str(ee) + "\n" )
f.write( MOL.save_string_xyz() )
f.close()
--------------------------------------------------------------------------

  Memory set to   2.000 GiB by Python script.

*** tstart() called on cx1-3-16-2.cx1.hpc.ic.ac.uk
*** at Tue Jul  5 17:13:24 2016


         ---------------------------------------------------------
                                   SCF
            by Justin Turney, Rob Parrish, and Andy Simmonett
                              RHF Reference
                        1 Threads,   2000 MiB Core
         ---------------------------------------------------------

  ==> Geometry <==

    Molecular point group: c1
    Full point group: C1

    Geometry (in Angstrom), charge = 0, multiplicity = 1:

       Center              X                  Y                   Z               Mass       
    ------------   -----------------  -----------------  -----------------  -----------------
           O          0.786956155984     0.239165811873     1.219877887395    15.994914619560
           C          0.579638155984     0.374208811873     0.057198887395    12.000000000000
           C          0.502012155984    -0.741405188127    -0.956347112605    12.000000000000
           O          0.384855155984     1.556340811873    -0.513415112605    15.994914619560
           C         -0.359534844016    -1.915226188127    -0.501130112605    12.000000000000
           H          0.126930155984    -0.313474188127    -1.882059112605     1.007825032070
           H          1.519386155984    -1.058713188127    -1.168524112605     1.007825032070
           C         -1.758727844016    -1.475570188127    -0.067161112605    12.000000000000
           H          0.136028155984    -2.427070188127     0.317976887395     1.007825032070
           H         -0.434522844016    -2.638515188127    -1.307190112605     1.007825032070
           C         -1.760426844016    -0.766733188127     1.286555887395    12.000000000000
           H         -2.181941844016    -0.814313188127    -0.820623112605     1.007825032070
           H         -2.414107844016    -2.342962188127    -0.020490112605     1.007825032070
           H         -1.140692844016     0.124892811873     1.262335887395     1.007825032070
           H         -2.763813844016    -0.465348188127     1.570559887395     1.007825032070
           H         -1.375107844016    -1.414875188127     2.068272887395     1.007825032070
           C          1.504302155984     2.418844811873    -0.603237112605    12.000000000000
           H          1.883767155984     2.652732811873     0.381033887395     1.007825032070
           H          1.148910155984     3.313972811873    -1.089437112605     1.007825032070
           H          2.290068155984     1.962045811873    -1.187542112605     1.007825032070

  Running in c1 symmetry.

  Rotational constants: A =      0.12221  B =      0.04320  C =      0.03875 [cm^-1]
  Rotational constants: A =   3663.66893  B =   1295.02315  C =   1161.56209 [MHz]
  Nuclear repulsion =  406.736550026720010

  Charge       = 0
  Multiplicity = 1
  Electrons    = 64
  Nalpha       = 32
  Nbeta        = 32

  ==> Algorithm <==

  SCF Algorithm Type is DF.
  DIIS enabled.
  MOM disabled.
  Fractional occupation disabled.
  Guess Type is CORE.
  Energy threshold   = 1.00e-06
  Density threshold  = 1.00e-06
  Integral threshold = 0.00e+00

  ==> Primary Basis <==

  Basis Set: 6-31G*
    Number of shells: 72
    Number of basis function: 144
    Number of Cartesian functions: 144
    Spherical Harmonics?: false
    Max angular momentum: 2

  ==> Pre-Iterations <==

   -------------------------------------------------------
    Irrep   Nso     Nmo     Nalpha   Nbeta   Ndocc  Nsocc
   -------------------------------------------------------
     A        144     144       0       0       0       0
   -------------------------------------------------------
    Total     144     144      32      32      32       0
   -------------------------------------------------------

 OEINTS: Overlap, kinetic, potential, dipole, and quadrupole integrals
         stored in file 35.

  ==> Integral Setup <==

  ==> DFJK: Density-Fitted J/K Matrices <==

    J tasked:                  Yes
    K tasked:                  Yes
    wK tasked:                  No
    OpenMP threads:              1
    Integrals threads:           1
    Memory (MB):              1430
    Algorithm:                Core
    Integral Cache:           NONE
    Schwarz Cutoff:          1E-12
    Fitting Condition:       1E-12

   => Auxiliary Basis Set <=

  Basis Set: 
    Number of shells: 300
    Number of basis function: 948
    Number of Cartesian functions: 948
    Spherical Harmonics?: false
    Max angular momentum: 3

  Minimum eigenvalue in the overlap matrix is 2.9148183167E-03.
  Using Symmetric Orthogonalization.
  SCF Guess: Core (One-Electron) Hamiltonian.

  ==> Iterations <==

                           Total Energy        Delta E     RMS |[F,P]|

   @DF-RHF iter   1:  -246.20878624401621   -2.46209e+02   8.58321e-02 
   @DF-RHF iter   2:  -200.77687121966312    4.54319e+01   6.43467e-02 DIIS
   @DF-RHF iter   3:  -313.93549581788659   -1.13159e+02   5.34093e-02 DIIS
   @DF-RHF iter   4:  -354.43829815526328   -4.05028e+01   4.50528e-02 DIIS
   @DF-RHF iter   5:  -354.70220799124070   -2.63910e-01   3.47625e-02 DIIS
   @DF-RHF iter   6:  -380.20108352546436   -2.54989e+01   1.49507e-02 DIIS
   @DF-RHF iter   7:  -383.75498387333289   -3.55390e+00   3.67232e-03 DIIS
   @DF-RHF iter   8:  -383.87757237161725   -1.22588e-01   1.31693e-03 DIIS
   @DF-RHF iter   9:  -383.89385099272079   -1.62786e-02   5.84466e-04 DIIS
   @DF-RHF iter  10:  -383.89755722982170   -3.70624e-03   2.96617e-04 DIIS
   @DF-RHF iter  11:  -383.89859832656077   -1.04110e-03   1.00990e-04 DIIS
   @DF-RHF iter  12:  -383.89876204697907   -1.63720e-04   3.18503e-05 DIIS
   @DF-RHF iter  13:  -383.89877518733635   -1.31404e-05   1.06438e-05 DIIS
   @DF-RHF iter  14:  -383.89877781451537   -2.62718e-06   3.64549e-06 DIIS
   @DF-RHF iter  15:  -383.89877818842558   -3.73910e-07   1.20355e-06 DIIS
   @DF-RHF iter  16:  -383.89877823031611   -4.18905e-08   4.32104e-07 DIIS

  ==> Post-Iterations <==

    Orbital Energies (a.u.)
    -----------------------

    Doubly Occupied:                                                      

       1A    -20.591288     2A    -20.551349     3A    -11.376203  
       4A    -11.293903     5A    -11.235005     6A    -11.222964  
       7A    -11.213451     8A    -11.187956     9A     -1.468856  
      10A     -1.370033    11A     -1.089734    12A     -1.012116  
      13A     -0.972990    14A     -0.893147    15A     -0.804531  
      16A     -0.764080    17A     -0.699529    18A     -0.684064  
      19A     -0.680701    20A     -0.626566    21A     -0.623231  
      22A     -0.581986    23A     -0.577965    24A     -0.556004  
      25A     -0.541930    26A     -0.513485    27A     -0.512091  
      28A     -0.473217    29A     -0.468011    30A     -0.455344  
      31A     -0.434769    32A     -0.430548  

    Virtual:                                                              

      33A      0.164414    34A      0.229081    35A      0.257170  
      36A      0.280286    37A      0.288158    38A      0.291464  
      39A      0.303809    40A      0.308907    41A      0.320493  
      42A      0.335536    43A      0.340161    44A      0.343999  
      45A      0.361649    46A      0.385615    47A      0.399862  
      48A      0.433183    49A      0.454951    50A      0.464408  
      51A      0.567453    52A      0.582487    53A      0.714088  
      54A      0.722864    55A      0.728583    56A      0.741917  
      57A      0.757002    58A      0.774050    59A      0.801299  
      60A      0.833252    61A      0.867214    62A      0.879198  
      63A      0.909279    64A      0.934123    65A      0.964041  
      66A      0.974587    67A      0.993043    68A      1.006960  
      69A      1.064945    70A      1.096671    71A      1.117389  
      72A      1.118749    73A      1.144099    74A      1.149307  
      75A      1.162742    76A      1.168375    77A      1.178203  
      78A      1.202654    79A      1.220900    80A      1.223366  
      81A      1.239249    82A      1.254525    83A      1.261141  
      84A      1.279111    85A      1.302794    86A      1.323449  
      87A      1.387214    88A      1.419093    89A      1.483875  
      90A      1.517580    91A      1.530017    92A      1.647524  
      93A      1.658110    94A      1.704269    95A      1.726031  
      96A      1.797610    97A      1.806367    98A      1.877254  
      99A      1.888084   100A      1.966050   101A      2.001772  
     102A      2.060055   103A      2.093923   104A      2.129861  
     105A      2.148999   106A      2.163047   107A      2.189313  
     108A      2.244325   109A      2.250027   110A      2.285852  
     111A      2.320814   112A      2.357175   113A      2.389569  
     114A      2.408449   115A      2.446205   116A      2.463169  
     117A      2.489524   118A      2.524572   119A      2.605706  
     120A      2.625864   121A      2.658326   122A      2.682644  
     123A      2.697610   124A      2.742779   125A      2.799793  
     126A      2.822143   127A      2.858470   128A      2.904792  
     129A      2.969644   130A      3.001102   131A      3.072525  
     132A      3.200114   133A      3.247744   134A      3.338851  
     135A      3.406572   136A      3.506616   137A      4.415881  
     138A      4.556030   139A      4.634867   140A      4.673556  
     141A      4.772671   142A      4.803048   143A      4.955600  
     144A      5.025713  

    Final Occupation by Irrep:
              A 
    DOCC [    32 ]

  Energy converged.

  @DF-RHF Final Energy:  -383.89877823031611

   => Energetics <=

    Nuclear Repulsion Energy =            406.7365500267200105
    One-Electron Energy =               -1329.4564633875538675
    Two-Electron Energy =                 538.8211351305188828
    DFT Exchange-Correlation Energy =       0.0000000000000000
    Empirical Dispersion Energy =           0.0000000000000000
    PCM Polarization Energy =               0.0000000000000000
    EFP Energy =                            0.0000000000000000
    Total Energy =                       -383.8987782303149743

    Alert: EFP and PCM quantities not currently incorporated into SCF psivars.

Properties will be evaluated at   0.000000,   0.000000,   0.000000 Bohr
  ==> Properties <==


Properties computed using the SCF density matrix

  Nuclear Dipole Moment: (a.u.)
     X:    -2.9991      Y:    -3.1990      Z:    -1.7550

  Electronic Dipole Moment: (a.u.)
     X:     3.5094      Y:     3.3802      Z:     0.6898

  Dipole Moment: (a.u.)
     X:     0.5104      Y:     0.1812      Z:    -1.0652     Total:     1.1949

  Dipole Moment: (Debye)
     X:     1.2972      Y:     0.4605      Z:    -2.7074     Total:     3.0372


  Saving occupied orbitals to File 180.

*** tstop() called on cx1-3-16-2.cx1.hpc.ic.ac.uk at Tue Jul  5 17:13:43 2016
Module time:
	user time   =      18.08 seconds =       0.30 minutes
	system time =       0.20 seconds =       0.00 minutes
	total time  =         19 seconds =       0.32 minutes
Total time:
	user time   =      18.08 seconds =       0.30 minutes
	system time =       0.20 seconds =       0.00 minutes
	total time  =         19 seconds =       0.32 minutes


Properties will be evaluated at   0.000000,   0.000000,   0.000000 Bohr

Properties computed using the  density matrix

  Nuclear Dipole Moment: (a.u.)
     X:    -2.9991      Y:    -3.1990      Z:    -1.7550

  Electronic Dipole Moment: (a.u.)
     X:     3.5094      Y:     3.3802      Z:     0.6898

  Dipole Moment: (a.u.)
     X:     0.5104      Y:     0.1812      Z:    -1.0652     Total:     1.1949

  Dipole Moment: (Debye)
     X:     1.2972      Y:     0.4605      Z:    -2.7074     Total:     3.0372

  Quadrupole Moment: (Debye Ang)
    XX:   -47.8940     YY:   -45.2202     ZZ:   -53.3059
    XY:     3.7871     XZ:    -3.0487     YZ:    -0.8108

  Traceless Quadrupole Moment: (Debye Ang)
    XX:     0.9127     YY:     3.5865     ZZ:    -4.4992
    XY:     3.7871     XZ:    -3.0487     YZ:    -0.8108

  Mulliken Charges: (a.u.)
   Center  Symbol    Alpha    Beta     Spin     Total
       1     O     4.26850  4.26850  0.00000 -0.53700
       2     C     2.61180  2.61180  0.00000  0.77639
       3     C     3.21014  3.21014  0.00000 -0.42028
       4     O     4.31190  4.31190  0.00000 -0.62380
       5     C     3.15566  3.15566  0.00000 -0.31132
       6     H     0.40098  0.40098  0.00000  0.19804
       7     H     0.40057  0.40057  0.00000  0.19886
       8     C     3.16425  3.16425  0.00000 -0.32851
       9     H     0.40995  0.40995  0.00000  0.18010
      10     H     0.41593  0.41593  0.00000  0.16813
      11     C     3.24551  3.24551  0.00000 -0.49102
      12     H     0.42204  0.42204  0.00000  0.15591
      13     H     0.41878  0.41878  0.00000  0.16244
      14     H     0.39770  0.39770  0.00000  0.20460
      15     H     0.42586  0.42586  0.00000  0.14828
      16     H     0.41991  0.41991  0.00000  0.16018
      17     C     3.09479  3.09479  0.00000 -0.18958
      18     H     0.40424  0.40424  0.00000  0.19151
      19     H     0.40274  0.40274  0.00000  0.19452
      20     H     0.41873  0.41873  0.00000  0.16253

   Total alpha = 32.00000, Total beta = 32.00000, Total charge =  0.00000


*** PSI4 exiting successfully. Buy a developer a beer!
