    -----------------------------------------------------------------------
          Psi4: An Open-Source Ab Initio Electronic Structure Package
                              Psi4 (no tag) Driver

                          Git: Rev {detached?}  

    J. M. Turney, A. C. Simmonett, R. M. Parrish, E. G. Hohenstein,
    F. A. Evangelista, J. T. Fermann, B. J. Mintz, L. A. Burns, J. J. Wilke,
    M. L. Abrams, N. J. Russ, M. L. Leininger, C. L. Janssen, E. T. Seidl,
    W. D. Allen, H. F. Schaefer, R. A. King, E. F. Valeev, C. D. Sherrill,
    and T. D. Crawford, WIREs Comput. Mol. Sci. 2, 556-565 (2012)
    (doi: 10.1002/wcms.93)

                         Additional Contributions by
    A. E. DePrince, M. Saitow, U. Bozkaya, A. Yu. Sokolov
    -----------------------------------------------------------------------


    Psi4 started on: Tue Jul 26 13:28:40 2016

    Process ID:   9450
    PSI4DATADIR: /export131/home/mjharvey/miniconda3/share
    Memory level set to 256.000 MB

  ==> Input File <==

--------------------------------------------------------------------------
set {
	reference rhf
	basis 6-31G*
}


set_num_threads( 24 )
memory 2 gb

molecule MOL {
0 1

H	 -3.793000	 1.004000	 -0.340000
C	 -3.097000	 0.384000	 0.191000
C	 -1.977000	 0.015000	 -0.386000
H	 -3.341000	 0.079000	 1.192000
O	 -1.081000	 -0.797000	 0.234000
H	 -1.712000	 0.315000	 -1.384000
C	 0.151000	 -0.997000	 -0.369000
C	 1.143000	 0.077000	 0.017000
H	 0.082000	 -1.019000	 -1.451000
H	 0.537000	 -1.944000	 -0.023000
F	 0.723536	 1.248805	 -0.437865
F	 1.269811	 0.178835	 1.329423
F	 2.338272	 -0.149440	 -0.486349

	symmetry c1
}
set optking {
	frozen_dihedral = ("
		3 5 7 9,
		6 3 2 1,
		6 3 5 7
	")
}

ee = energy('scf')
oeprop('DIPOLE', 'QUADRUPOLE', 'MULLIKEN_CHARGES')
f=open( 'psi4out.xyz', 'w' )
f.write( "13  " )
f.write( str(ee) + "\n" )
f.write( MOL.save_string_xyz() )
f.close()
--------------------------------------------------------------------------

  Memory set to   2.000 GiB by Python script.

*** tstart() called on cx1b.hpc.ic.ac.uk
*** at Tue Jul 26 13:28:41 2016


         ---------------------------------------------------------
                                   SCF
            by Justin Turney, Rob Parrish, and Andy Simmonett
                              RHF Reference
                       24 Threads,   2000 MiB Core
         ---------------------------------------------------------

  ==> Geometry <==

    Molecular point group: c1
    Full point group: C1

    Geometry (in Angstrom), charge = 0, multiplicity = 1:

       Center              X                  Y                   Z               Mass       
    ------------   -----------------  -----------------  -----------------  -----------------
           H         -3.883074051710     0.974589637802    -0.362656938695     1.007825032070
           C         -3.187074051710     0.354589637802     0.168343061305    12.000000000000
           C         -2.067074051710    -0.014410362198    -0.408656938695    12.000000000000
           H         -3.431074051710     0.049589637802     1.169343061305     1.007825032070
           O         -1.171074051710    -0.826410362198     0.211343061305    15.994914619560
           H         -1.802074051710     0.285589637802    -1.406656938695     1.007825032070
           C          0.060925948290    -1.026410362198    -0.391656938695    12.000000000000
           C          1.052925948290     0.047589637802    -0.005656938695    12.000000000000
           H         -0.008074051710    -1.048410362198    -1.473656938695     1.007825032070
           H          0.446925948290    -1.973410362198    -0.045656938695     1.007825032070
           F          0.633461948290     1.219394637802    -0.460521938695    18.998403224000
           F          1.179736948290     0.149424637802     1.306766061305    18.998403224000
           F          2.248197948290    -0.178850362198    -0.509005938695    18.998403224000

  Running in c1 symmetry.

  Rotational constants: A =      0.15014  B =      0.04005  C =      0.03922 [cm^-1]
  Rotational constants: A =   4501.08312  B =   1200.52941  C =   1175.84715 [MHz]
  Nuclear repulsion =  414.122848288729472

  Charge       = 0
  Multiplicity = 1
  Electrons    = 64
  Nalpha       = 32
  Nbeta        = 32

  ==> Algorithm <==

  SCF Algorithm Type is DF.
  DIIS enabled.
  MOM disabled.
  Fractional occupation disabled.
  Guess Type is CORE.
  Energy threshold   = 1.00e-06
  Density threshold  = 1.00e-06
  Integral threshold = 0.00e+00

  ==> Primary Basis <==

  Basis Set: 6-31G*
    Number of shells: 58
    Number of basis function: 130
    Number of Cartesian functions: 130
    Spherical Harmonics?: false
    Max angular momentum: 2

  ==> Pre-Iterations <==

   -------------------------------------------------------
    Irrep   Nso     Nmo     Nalpha   Nbeta   Ndocc  Nsocc
   -------------------------------------------------------
     A        130     130       0       0       0       0
   -------------------------------------------------------
    Total     130     130      32      32      32       0
   -------------------------------------------------------

 OEINTS: Overlap, kinetic, potential, dipole, and quadrupole integrals
         stored in file 35.

  ==> Integral Setup <==

  ==> DFJK: Density-Fitted J/K Matrices <==

    J tasked:                  Yes
    K tasked:                  Yes
    wK tasked:                  No
    OpenMP threads:             24
    Integrals threads:          24
    Memory (MB):              1430
    Algorithm:                Core
    Integral Cache:           NONE
    Schwarz Cutoff:          1E-12
    Fitting Condition:       1E-12

   => Auxiliary Basis Set <=

  Basis Set: 
    Number of shells: 237
    Number of basis function: 773
    Number of Cartesian functions: 773
    Spherical Harmonics?: false
    Max angular momentum: 3

  Minimum eigenvalue in the overlap matrix is 1.8832893866E-03.
  Using Symmetric Orthogonalization.
  SCF Guess: Core (One-Electron) Hamiltonian.

  ==> Iterations <==

                           Total Energy        Delta E     RMS |[F,P]|

   @DF-RHF iter   1:  -439.70287989792047   -4.39703e+02   7.42191e-02 
   @DF-RHF iter   2:  -176.04599842035208    2.63657e+02   9.73923e-02 DIIS
   @DF-RHF iter   3:  -490.73367049760128   -3.14688e+02   3.98038e-02 DIIS
   @DF-RHF iter   4:  -405.52752387050367    8.52061e+01   7.61308e-02 DIIS
   @DF-RHF iter   5:  -519.40858002320397   -1.13881e+02   2.12040e-02 DIIS
   @DF-RHF iter   6:  -526.77043045909954   -7.36185e+00   1.03815e-02 DIIS
   @DF-RHF iter   7:  -527.48048371376376   -7.10053e-01   2.41049e-03 DIIS
   @DF-RHF iter   8:  -527.52003063105212   -3.95469e-02   1.18369e-03 DIIS
   @DF-RHF iter   9:  -527.53166023012795   -1.16296e-02   5.68763e-04 DIIS
   @DF-RHF iter  10:  -527.53443112912419   -2.77090e-03   2.75743e-04 DIIS
   @DF-RHF iter  11:  -527.53530104034462   -8.69911e-04   5.52653e-05 DIIS
   @DF-RHF iter  12:  -527.53533657221897   -3.55319e-05   1.99334e-05 DIIS
   @DF-RHF iter  13:  -527.53534339411294   -6.82189e-06   8.38865e-06 DIIS
   @DF-RHF iter  14:  -527.53534449721747   -1.10310e-06   2.13918e-06 DIIS
   @DF-RHF iter  15:  -527.53534460973219   -1.12515e-07   8.11258e-07 DIIS

  ==> Post-Iterations <==

    Orbital Energies (a.u.)
    -----------------------

    Doubly Occupied:                                                      

       1A    -26.349356     2A    -26.341345     3A    -26.338047  
       4A    -20.608749     5A    -11.503112     6A    -11.318919  
       7A    -11.298879     8A    -11.215303     9A     -1.742212  
      10A     -1.642741    11A     -1.635230    12A     -1.438269  
      13A     -1.084166    14A     -1.016245    15A     -0.925263  
      16A     -0.835963    17A     -0.832122    18A     -0.821428  
      19A     -0.791725    20A     -0.720677    21A     -0.711531  
      22A     -0.698870    23A     -0.674790    24A     -0.662157  
      25A     -0.653317    26A     -0.642704    27A     -0.632212  
      28A     -0.584865    29A     -0.562736    30A     -0.523607  
      31A     -0.513828    32A     -0.351134  

    Virtual:                                                              

      33A      0.191658    34A      0.236326    35A      0.272367  
      36A      0.280977    37A      0.295802    38A      0.314811  
      39A      0.344660    40A      0.408127    41A      0.414804  
      42A      0.453359    43A      0.475277    44A      0.508924  
      45A      0.517717    46A      0.689725    47A      0.701407  
      48A      0.714458    49A      0.740356    50A      0.755908  
      51A      0.770281    52A      0.808697    53A      0.831499  
      54A      0.876534    55A      0.908567    56A      0.923840  
      57A      0.979083    58A      1.081841    59A      1.099892  
      60A      1.129428    61A      1.150649    62A      1.161440  
      63A      1.203861    64A      1.238420    65A      1.276364  
      66A      1.329540    67A      1.362322    68A      1.367918  
      69A      1.411262    70A      1.428359    71A      1.450712  
      72A      1.468767    73A      1.597838    74A      1.612596  
      75A      1.630174    76A      1.639183    77A      1.664889  
      78A      1.675084    79A      1.696720    80A      1.700806  
      81A      1.746766    82A      1.808537    83A      1.852980  
      84A      1.907197    85A      1.938277    86A      1.965531  
      87A      2.017976    88A      2.033356    89A      2.110208  
      90A      2.121613    91A      2.136613    92A      2.149566  
      93A      2.227984    94A      2.249106    95A      2.287320  
      96A      2.295442    97A      2.315567    98A      2.324443  
      99A      2.366525   100A      2.395080   101A      2.413435  
     102A      2.424661   103A      2.500072   104A      2.528975  
     105A      2.558729   106A      2.594249   107A      2.659345  
     108A      2.666558   109A      2.752279   110A      2.808050  
     111A      2.852524   112A      2.908798   113A      2.996894  
     114A      3.102075   115A      3.149479   116A      3.179022  
     117A      3.220460   118A      3.293011   119A      3.419153  
     120A      3.427849   121A      3.449207   122A      3.479881  
     123A      4.361202   124A      4.543906   125A      4.621969  
     126A      4.693723   127A      4.884254   128A      4.936815  
     129A      5.184596   130A      5.751272  

    Final Occupation by Irrep:
              A 
    DOCC [    32 ]

  Energy converged.

  @DF-RHF Final Energy:  -527.53534460973219

   => Energetics <=

    Nuclear Repulsion Energy =            414.1228482887294717
    One-Electron Energy =               -1551.9732440696820959
    Two-Electron Energy =                 610.3150511712204889
    DFT Exchange-Correlation Energy =       0.0000000000000000
    Empirical Dispersion Energy =           0.0000000000000000
    PCM Polarization Energy =               0.0000000000000000
    EFP Energy =                            0.0000000000000000
    Total Energy =                       -527.5353446097320784

    Alert: EFP and PCM quantities not currently incorporated into SCF psivars.

Properties will be evaluated at   0.000000,   0.000000,   0.000000 Bohr
  ==> Properties <==


Properties computed using the SCF density matrix

  Nuclear Dipole Moment: (a.u.)
     X:   -11.9717      Y:    -2.7315      Z:    -2.3039

  Electronic Dipole Moment: (a.u.)
     X:    11.7686      Y:     2.3179      Z:     1.5849

  Dipole Moment: (a.u.)
     X:    -0.2031      Y:    -0.4136      Z:    -0.7190     Total:     0.8540

  Dipole Moment: (Debye)
     X:    -0.5163      Y:    -1.0514      Z:    -1.8276     Total:     2.1707


  Saving occupied orbitals to File 180.

*** tstop() called on cx1b.hpc.ic.ac.uk at Tue Jul 26 13:28:47 2016
Module time:
	user time   =      64.90 seconds =       1.08 minutes
	system time =       2.38 seconds =       0.04 minutes
	total time  =          6 seconds =       0.10 minutes
Total time:
	user time   =      64.90 seconds =       1.08 minutes
	system time =       2.38 seconds =       0.04 minutes
	total time  =          6 seconds =       0.10 minutes


Properties will be evaluated at   0.000000,   0.000000,   0.000000 Bohr

Properties computed using the  density matrix

  Nuclear Dipole Moment: (a.u.)
     X:   -11.9717      Y:    -2.7315      Z:    -2.3039

  Electronic Dipole Moment: (a.u.)
     X:    11.7686      Y:     2.3179      Z:     1.5849

  Dipole Moment: (a.u.)
     X:    -0.2031      Y:    -0.4136      Z:    -0.7190     Total:     0.8540

  Dipole Moment: (Debye)
     X:    -0.5163      Y:    -1.0514      Z:    -1.8276     Total:     2.1707

  Quadrupole Moment: (Debye Ang)
    XX:   -45.6790     YY:   -44.3699     ZZ:   -43.4011
    XY:    -3.2204     XZ:     0.8922     YZ:     0.5547

  Traceless Quadrupole Moment: (Debye Ang)
    XX:    -1.1957     YY:     0.1134     ZZ:     1.0823
    XY:    -3.2204     XZ:     0.8922     YZ:     0.5547

  Mulliken Charges: (a.u.)
   Center  Symbol    Alpha    Beta     Spin     Total
       1     H     0.40716  0.40716  0.00000  0.18568
       2     C     3.23588  3.23588  0.00000 -0.47176
       3     C     2.89483  2.89483  0.00000  0.21033
       4     H     0.40191  0.40191  0.00000  0.19617
       5     O     4.30087  4.30087  0.00000 -0.60174
       6     H     0.40653  0.40653  0.00000  0.18694
       7     C     3.06304  3.06304  0.00000 -0.12609
       8     C     2.45622  2.45622  0.00000  1.08757
       9     H     0.40584  0.40584  0.00000  0.18831
      10     H     0.39130  0.39130  0.00000  0.21739
      11     F     4.68190  4.68190  0.00000 -0.36380
      12     F     4.67703  4.67703  0.00000 -0.35406
      13     F     4.67748  4.67748  0.00000 -0.35496

   Total alpha = 32.00000, Total beta = 32.00000, Total charge =  0.00000


*** PSI4 exiting successfully. Buy a developer a beer!
