    -----------------------------------------------------------------------
          Psi4: An Open-Source Ab Initio Electronic Structure Package
                              Psi4 (no tag) Driver

                          Git: Rev {detached?}  

    J. M. Turney, A. C. Simmonett, R. M. Parrish, E. G. Hohenstein,
    F. A. Evangelista, J. T. Fermann, B. J. Mintz, L. A. Burns, J. J. Wilke,
    M. L. Abrams, N. J. Russ, M. L. Leininger, C. L. Janssen, E. T. Seidl,
    W. D. Allen, H. F. Schaefer, R. A. King, E. F. Valeev, C. D. Sherrill,
    and T. D. Crawford, WIREs Comput. Mol. Sci. 2, 556-565 (2012)
    (doi: 10.1002/wcms.93)

                         Additional Contributions by
    A. E. DePrince, M. Saitow, U. Bozkaya, A. Yu. Sokolov
    -----------------------------------------------------------------------


    Psi4 started on: Tue Jul  5 16:39:07 2016

    Process ID:  20478
    PSI4DATADIR: /export131/home/mjharvey/miniconda3/share
    Memory level set to 256.000 MB

  ==> Input File <==

--------------------------------------------------------------------------
set {
	reference rhf
	basis 6-31G*
}


set_num_threads( 1 )
memory 2 gb

molecule MOL {
0 1

O	 -0.806752	 -1.114546	 1.082146
C	 -0.561929	 -0.074560	 0.531515
C	 -1.597472	 1.034011	 0.503089
N	 0.623947	 0.147590	 -0.102813
H	 -1.868528	 1.298769	 -0.513038
H	 -2.472791	 0.671041	 1.019920
H	 -1.237628	 1.928840	 0.999450
C	 1.845053	 -0.319182	 0.524006
C	 0.803608	 1.104708	 -1.172342
H	 2.668341	 -0.226912	 -0.175780
H	 1.730877	 -1.351028	 0.807199
H	 2.082115	 0.264679	 1.410758
H	 1.576382	 0.746628	 -1.842146
H	 -0.098123	 1.227502	 -1.750907
H	 1.109860	 2.079771	 -0.797809

	symmetry c1
}
set optking {
	frozen_dihedral = ("
		2 4 8 10
	")
}

ee = energy('scf')
oeprop('DIPOLE', 'QUADRUPOLE', 'MULLIKEN_CHARGES')
f=open( 'psi4out.xyz', 'w' )
f.write( "15  " )
f.write( str(ee) + "\n" )
f.write( MOL.save_string_xyz() )
f.close()
--------------------------------------------------------------------------

  Memory set to   2.000 GiB by Python script.

*** tstart() called on cx1-3-2-1.cx1.hpc.ic.ac.uk
*** at Tue Jul  5 16:39:07 2016


         ---------------------------------------------------------
                                   SCF
            by Justin Turney, Rob Parrish, and Andy Simmonett
                              RHF Reference
                        1 Threads,   2000 MiB Core
         ---------------------------------------------------------

  ==> Geometry <==

    Molecular point group: c1
    Full point group: C1

    Geometry (in Angstrom), charge = 0, multiplicity = 1:

       Center              X                  Y                   Z               Mass       
    ------------   -----------------  -----------------  -----------------  -----------------
           O         -0.866729949934    -1.250882608266     0.856399308339    15.994914619560
           C         -0.621906949934    -0.210896608266     0.305768308339    12.000000000000
           C         -1.657449949934     0.897674391734     0.277342308339    12.000000000000
           N          0.563969050066     0.011253391734    -0.328559691661    14.003074004780
           H         -1.928505949934     1.162432391734    -0.738784691661     1.007825032070
           H         -2.532768949934     0.534704391734     0.794173308339     1.007825032070
           H         -1.297605949934     1.792503391734     0.773703308339     1.007825032070
           C          1.785075050066    -0.455518608266     0.298259308339    12.000000000000
           C          0.743630050066     0.968371391734    -1.398088691661    12.000000000000
           H          2.608363050066    -0.363248608266    -0.401526691661     1.007825032070
           H          1.670899050066    -1.487364608266     0.581452308339     1.007825032070
           H          2.022137050066     0.128342391734     1.185011308339     1.007825032070
           H          1.516404050066     0.610291391734    -2.067892691661     1.007825032070
           H         -0.158100949934     1.091165391734    -1.976653691661     1.007825032070
           H          1.049882050066     1.943434391734    -1.023555691661     1.007825032070

  Running in c1 symmetry.

  Rotational constants: A =      0.16493  B =      0.11050  C =      0.07319 [cm^-1]
  Rotational constants: A =   4944.51278  B =   3312.60013  C =   2194.13972 [MHz]
  Nuclear repulsion =  251.972896115189656

  Charge       = 0
  Multiplicity = 1
  Electrons    = 48
  Nalpha       = 24
  Nbeta        = 24

  ==> Algorithm <==

  SCF Algorithm Type is DF.
  DIIS enabled.
  MOM disabled.
  Fractional occupation disabled.
  Guess Type is CORE.
  Energy threshold   = 1.00e-06
  Density threshold  = 1.00e-06
  Integral threshold = 0.00e+00

  ==> Primary Basis <==

  Basis Set: 6-31G*
    Number of shells: 54
    Number of basis function: 108
    Number of Cartesian functions: 108
    Spherical Harmonics?: false
    Max angular momentum: 2

  ==> Pre-Iterations <==

   -------------------------------------------------------
    Irrep   Nso     Nmo     Nalpha   Nbeta   Ndocc  Nsocc
   -------------------------------------------------------
     A        108     108       0       0       0       0
   -------------------------------------------------------
    Total     108     108      24      24      24       0
   -------------------------------------------------------

 OEINTS: Overlap, kinetic, potential, dipole, and quadrupole integrals
         stored in file 35.

  ==> Integral Setup <==

  ==> DFJK: Density-Fitted J/K Matrices <==

    J tasked:                  Yes
    K tasked:                  Yes
    wK tasked:                  No
    OpenMP threads:              1
    Integrals threads:           1
    Memory (MB):              1430
    Algorithm:                Core
    Integral Cache:           NONE
    Schwarz Cutoff:          1E-12
    Fitting Condition:       1E-12

   => Auxiliary Basis Set <=

  Basis Set: 
    Number of shells: 225
    Number of basis function: 711
    Number of Cartesian functions: 711
    Spherical Harmonics?: false
    Max angular momentum: 3

  Minimum eigenvalue in the overlap matrix is 3.7025462979E-03.
  Using Symmetric Orthogonalization.
  SCF Guess: Core (One-Electron) Hamiltonian.

  ==> Iterations <==

                           Total Energy        Delta E     RMS |[F,P]|

   @DF-RHF iter   1:  -204.22456533172897   -2.04225e+02   8.86472e-02 
   @DF-RHF iter   2:  -227.07348966513911   -2.28489e+01   4.76378e-02 DIIS
   @DF-RHF iter   3:  -227.14917240192545   -7.56827e-02   7.69440e-02 DIIS
   @DF-RHF iter   4:  -267.51236645070060   -4.03632e+01   4.97907e-02 DIIS
   @DF-RHF iter   5:  -275.79319930611393   -8.28083e+00   4.02846e-02 DIIS
   @DF-RHF iter   6:  -281.43660547367142   -5.64341e+00   2.59294e-02 DIIS
   @DF-RHF iter   7:  -284.55721544829612   -3.12061e+00   1.38807e-02 DIIS
   @DF-RHF iter   8:  -285.85721621287348   -1.30000e+00   4.68869e-03 DIIS
   @DF-RHF iter   9:  -285.99723258659935   -1.40016e-01   1.31860e-03 DIIS
   @DF-RHF iter  10:  -286.01361689812018   -1.63843e-02   4.22831e-04 DIIS
   @DF-RHF iter  11:  -286.01636523320974   -2.74834e-03   1.83111e-04 DIIS
   @DF-RHF iter  12:  -286.01705963793984   -6.94405e-04   6.29229e-05 DIIS
   @DF-RHF iter  13:  -286.01714580018836   -8.61622e-05   3.68649e-05 DIIS
   @DF-RHF iter  14:  -286.01715827915348   -1.24790e-05   9.32740e-06 DIIS
   @DF-RHF iter  15:  -286.01715935025140   -1.07110e-06   2.91457e-06 DIIS
   @DF-RHF iter  16:  -286.01715946913782   -1.18886e-07   8.55735e-07 DIIS

  ==> Post-Iterations <==

    Orbital Energies (a.u.)
    -----------------------

    Doubly Occupied:                                                      

       1A    -20.521211     2A    -15.574349     3A    -11.342513  
       4A    -11.265070     5A    -11.252979     6A    -11.226999  
       7A     -1.385771     8A     -1.242464     9A     -1.011572  
      10A     -0.973504    11A     -0.920168    12A     -0.738367  
      13A     -0.678243    14A     -0.657185    15A     -0.650216  
      16A     -0.590228    17A     -0.579608    18A     -0.570900  
      19A     -0.564625    20A     -0.551627    21A     -0.531881  
      22A     -0.494807    23A     -0.412765    24A     -0.360313  

    Virtual:                                                              

      25A      0.192377    26A      0.217659    27A      0.257829  
      28A      0.286114    29A      0.291080    30A      0.299729  
      31A      0.310267    32A      0.327886    33A      0.347024  
      34A      0.360542    35A      0.388972    36A      0.405392  
      37A      0.446073    38A      0.510923    39A      0.598239  
      40A      0.691052    41A      0.695794    42A      0.742557  
      43A      0.757136    44A      0.774423    45A      0.788591  
      46A      0.855847    47A      0.880566    48A      0.931417  
      49A      0.964104    50A      0.989630    51A      1.011004  
      52A      1.059822    53A      1.100938    54A      1.105281  
      55A      1.120721    56A      1.131573    57A      1.159388  
      58A      1.173227    59A      1.182136    60A      1.215631  
      61A      1.223226    62A      1.228993    63A      1.268022  
      64A      1.277997    65A      1.309066    66A      1.357638  
      67A      1.403209    68A      1.465841    69A      1.543163  
      70A      1.622233    71A      1.689193    72A      1.727999  
      73A      1.777228    74A      1.825233    75A      1.933690  
      76A      2.035179    77A      2.074168    78A      2.119792  
      79A      2.154425    80A      2.202931    81A      2.242246  
      82A      2.290117    83A      2.318645    84A      2.343543  
      85A      2.390258    86A      2.394023    87A      2.457755  
      88A      2.509018    89A      2.590534    90A      2.600692  
      91A      2.613858    92A      2.655462    93A      2.684055  
      94A      2.789171    95A      2.827692    96A      2.856728  
      97A      2.994365    98A      3.056907    99A      3.099716  
     100A      3.317328   101A      3.387769   102A      3.556647  
     103A      4.409862   104A      4.471157   105A      4.614113  
     106A      4.710161   107A      4.730331   108A      4.938080  

    Final Occupation by Irrep:
              A 
    DOCC [    24 ]

  Energy converged.

  @DF-RHF Final Energy:  -286.01715946913782

   => Energetics <=

    Nuclear Repulsion Energy =            251.9728961151896556
    One-Electron Energy =                -887.7851777682777765
    Two-Electron Energy =                 349.7951221839506388
    DFT Exchange-Correlation Energy =       0.0000000000000000
    Empirical Dispersion Energy =           0.0000000000000000
    PCM Polarization Energy =               0.0000000000000000
    EFP Energy =                            0.0000000000000000
    Total Energy =                       -286.0171594691374821

    Alert: EFP and PCM quantities not currently incorporated into SCF psivars.

Properties will be evaluated at   0.000000,   0.000000,   0.000000 Bohr
  ==> Properties <==


Properties computed using the SCF density matrix

  Nuclear Dipole Moment: (a.u.)
     X:     2.7604      Y:     5.0678      Z:    -2.6893

  Electronic Dipole Moment: (a.u.)
     X:    -2.1691      Y:    -3.8126      Z:     1.9962

  Dipole Moment: (a.u.)
     X:     0.5913      Y:     1.2552      Z:    -0.6931     Total:     1.5510

  Dipole Moment: (Debye)
     X:     1.5030      Y:     3.1904      Z:    -1.7616     Total:     3.9422


  Saving occupied orbitals to File 180.

*** tstop() called on cx1-3-2-1.cx1.hpc.ic.ac.uk at Tue Jul  5 16:39:15 2016
Module time:
	user time   =       7.34 seconds =       0.12 minutes
	system time =       0.04 seconds =       0.00 minutes
	total time  =          8 seconds =       0.13 minutes
Total time:
	user time   =       7.34 seconds =       0.12 minutes
	system time =       0.04 seconds =       0.00 minutes
	total time  =          8 seconds =       0.13 minutes


Properties will be evaluated at   0.000000,   0.000000,   0.000000 Bohr

Properties computed using the  density matrix

  Nuclear Dipole Moment: (a.u.)
     X:     2.7604      Y:     5.0678      Z:    -2.6893

  Electronic Dipole Moment: (a.u.)
     X:    -2.1691      Y:    -3.8126      Z:     1.9962

  Dipole Moment: (a.u.)
     X:     0.5913      Y:     1.2552      Z:    -0.6931     Total:     1.5510

  Dipole Moment: (Debye)
     X:     1.5030      Y:     3.1904      Z:    -1.7616     Total:     3.9422

  Quadrupole Moment: (Debye Ang)
    XX:   -35.0043     YY:   -40.8070     ZZ:   -37.4045
    XY:    -3.3233     XZ:     1.2321     YZ:     1.6462

  Traceless Quadrupole Moment: (Debye Ang)
    XX:     2.7343     YY:    -3.0684     ZZ:     0.3341
    XY:    -3.3233     XZ:     1.2321     YZ:     1.6462

  Mulliken Charges: (a.u.)
   Center  Symbol    Alpha    Beta     Spin     Total
       1     O     4.29124  4.29124  0.00000 -0.58248
       2     C     2.63318  2.63318  0.00000  0.73365
       3     C     3.29298  3.29298  0.00000 -0.58596
       4     N     3.82201  3.82201  0.00000 -0.64403
       5     H     0.40935  0.40935  0.00000  0.18130
       6     H     0.39286  0.39286  0.00000  0.21428
       7     H     0.40702  0.40702  0.00000  0.18595
       8     C     3.14269  3.14269  0.00000 -0.28538
       9     C     3.14025  3.14025  0.00000 -0.28049
      10     H     0.41683  0.41683  0.00000  0.16633
      11     H     0.39269  0.39269  0.00000  0.21461
      12     H     0.41920  0.41920  0.00000  0.16160
      13     H     0.40834  0.40834  0.00000  0.18331
      14     H     0.41030  0.41030  0.00000  0.17939
      15     H     0.42105  0.42105  0.00000  0.15790

   Total alpha = 24.00000, Total beta = 24.00000, Total charge = -0.00000


*** PSI4 exiting successfully. Buy a developer a beer!
