    -----------------------------------------------------------------------
          Psi4: An Open-Source Ab Initio Electronic Structure Package
                              Psi4 (no tag) Driver

                          Git: Rev {detached?}  

    J. M. Turney, A. C. Simmonett, R. M. Parrish, E. G. Hohenstein,
    F. A. Evangelista, J. T. Fermann, B. J. Mintz, L. A. Burns, J. J. Wilke,
    M. L. Abrams, N. J. Russ, M. L. Leininger, C. L. Janssen, E. T. Seidl,
    W. D. Allen, H. F. Schaefer, R. A. King, E. F. Valeev, C. D. Sherrill,
    and T. D. Crawford, WIREs Comput. Mol. Sci. 2, 556-565 (2012)
    (doi: 10.1002/wcms.93)

                         Additional Contributions by
    A. E. DePrince, M. Saitow, U. Bozkaya, A. Yu. Sokolov
    -----------------------------------------------------------------------


    Psi4 started on: Tue Jul  5 16:25:54 2016

    Process ID:  31040
    PSI4DATADIR: /export131/home/mjharvey/miniconda3/share
    Memory level set to 256.000 MB

  ==> Input File <==

--------------------------------------------------------------------------
set {
	reference rhf
	basis 6-31G*
}


set_num_threads( 1 )
memory 2 gb

molecule MOL {
0 1

H	 1.459103	 0.593459	 -2.060296
O	 0.618456	 0.433426	 -1.656290
C	 0.702312	 0.627605	 -0.264544
C	 -0.714990	 0.596302	 0.266387
H	 1.153583	 1.589617	 -0.037075
H	 1.296925	 -0.154212	 0.203133
O	 -1.405996	 -0.526611	 -0.195820
H	 -1.257453	 1.468809	 -0.075599
H	 -0.688972	 0.618407	 1.353696
H	 -1.536571	 -1.109037	 0.541571

	symmetry c1
}
set optking {
	frozen_dihedral = ("
		5 3 4 7
	")
}

ee = energy('scf')
oeprop('DIPOLE', 'QUADRUPOLE', 'MULLIKEN_CHARGES')
f=open( 'psi4out.xyz', 'w' )
f.write( "10  " )
f.write( str(ee) + "\n" )
f.write( MOL.save_string_xyz() )
f.close()
--------------------------------------------------------------------------

  Memory set to   2.000 GiB by Python script.

*** tstart() called on cx1-49-4-2.cx1.hpc.ic.ac.uk
*** at Tue Jul  5 16:25:55 2016


         ---------------------------------------------------------
                                   SCF
            by Justin Turney, Rob Parrish, and Andy Simmonett
                              RHF Reference
                        1 Threads,   2000 MiB Core
         ---------------------------------------------------------

  ==> Geometry <==

    Molecular point group: c1
    Full point group: C1

    Geometry (in Angstrom), charge = 0, multiplicity = 1:

       Center              X                  Y                   Z               Mass       
    ------------   -----------------  -----------------  -----------------  -----------------
           H          1.657675812714     0.331888827632    -1.581912384657     1.007825032070
           O          0.817028812714     0.171855827632    -1.177906384657    15.994914619560
           C          0.900884812714     0.366034827632     0.213839615343    12.000000000000
           C         -0.516417187286     0.334731827632     0.744770615343    12.000000000000
           H          1.352155812714     1.328046827632     0.441308615343     1.007825032070
           H          1.495497812714    -0.415782172368     0.681516615343     1.007825032070
           O         -1.207423187286    -0.788181172368     0.282563615343    15.994914619560
           H         -1.058880187286     1.207238827632     0.402784615343     1.007825032070
           H         -0.490399187286     0.356836827632     1.832079615343     1.007825032070
           H         -1.337998187286    -1.370607172368     1.019954615343     1.007825032070

  Running in c1 symmetry.

  Rotational constants: A =      0.52522  B =      0.19049  C =      0.15594 [cm^-1]
  Rotational constants: A =  15745.55971  B =   5710.74269  C =   4675.00039 [MHz]
  Nuclear repulsion =  134.206997279798571

  Charge       = 0
  Multiplicity = 1
  Electrons    = 34
  Nalpha       = 17
  Nbeta        = 17

  ==> Algorithm <==

  SCF Algorithm Type is DF.
  DIIS enabled.
  MOM disabled.
  Fractional occupation disabled.
  Guess Type is CORE.
  Energy threshold   = 1.00e-06
  Density threshold  = 1.00e-06
  Integral threshold = 0.00e+00

  ==> Primary Basis <==

  Basis Set: 6-31G*
    Number of shells: 36
    Number of basis function: 72
    Number of Cartesian functions: 72
    Spherical Harmonics?: false
    Max angular momentum: 2

  ==> Pre-Iterations <==

   -------------------------------------------------------
    Irrep   Nso     Nmo     Nalpha   Nbeta   Ndocc  Nsocc
   -------------------------------------------------------
     A         72      72       0       0       0       0
   -------------------------------------------------------
    Total      72      72      17      17      17       0
   -------------------------------------------------------

 OEINTS: Overlap, kinetic, potential, dipole, and quadrupole integrals
         stored in file 35.

  ==> Integral Setup <==

  ==> DFJK: Density-Fitted J/K Matrices <==

    J tasked:                  Yes
    K tasked:                  Yes
    wK tasked:                  No
    OpenMP threads:              1
    Integrals threads:           1
    Memory (MB):              1430
    Algorithm:                Core
    Integral Cache:           NONE
    Schwarz Cutoff:          1E-12
    Fitting Condition:       1E-12

   => Auxiliary Basis Set <=

  Basis Set: 
    Number of shells: 150
    Number of basis function: 474
    Number of Cartesian functions: 474
    Spherical Harmonics?: false
    Max angular momentum: 3

  Minimum eigenvalue in the overlap matrix is 4.8230105833E-03.
  Using Symmetric Orthogonalization.
  SCF Guess: Core (One-Electron) Hamiltonian.

  ==> Iterations <==

                           Total Energy        Delta E     RMS |[F,P]|

   @DF-RHF iter   1:  -200.30778635540290   -2.00308e+02   8.44775e-02 
   @DF-RHF iter   2:  -190.44339717152351    9.86439e+00   7.70012e-02 DIIS
   @DF-RHF iter   3:  -223.36383617328303   -3.29204e+01   4.08739e-02 DIIS
   @DF-RHF iter   4:  -228.26499459716896   -4.90116e+00   1.55463e-02 DIIS
   @DF-RHF iter   5:  -228.83873612874422   -5.73742e-01   5.70268e-03 DIIS
   @DF-RHF iter   6:  -228.90730485759454   -6.85687e-02   1.48839e-03 DIIS
   @DF-RHF iter   7:  -228.91333993078271   -6.03507e-03   5.68896e-04 DIIS
   @DF-RHF iter   8:  -228.91425965157148   -9.19721e-04   1.34055e-04 DIIS
   @DF-RHF iter   9:  -228.91432500672116   -6.53551e-05   4.08676e-05 DIIS
   @DF-RHF iter  10:  -228.91433160242681   -6.59571e-06   1.15871e-05 DIIS
   @DF-RHF iter  11:  -228.91433214969535   -5.47269e-07   2.06027e-06 DIIS
   @DF-RHF iter  12:  -228.91433217424409   -2.45487e-08   5.79678e-07 DIIS

  ==> Post-Iterations <==

    Orbital Energies (a.u.)
    -----------------------

    Doubly Occupied:                                                      

       1A    -20.550811     2A    -20.550096     3A    -11.270334  
       4A    -11.269234     5A     -1.370742     6A     -1.345939  
       7A     -0.999600     8A     -0.835012     9A     -0.724496  
      10A     -0.663216    11A     -0.658878    12A     -0.594812  
      13A     -0.567999    14A     -0.513010    15A     -0.490600  
      16A     -0.445682    17A     -0.426155  

    Virtual:                                                              

      18A      0.211348    19A      0.249843    20A      0.277064  
      21A      0.302231    22A      0.321485    23A      0.347986  
      24A      0.393621    25A      0.420986    26A      0.441389  
      27A      0.753212    28A      0.809505    29A      0.821598  
      30A      0.822165    31A      0.910498    32A      0.914772  
      33A      1.060811    34A      1.098850    35A      1.119733  
      36A      1.136328    37A      1.166523    38A      1.192701  
      39A      1.210624    40A      1.250786    41A      1.293460  
      42A      1.298038    43A      1.312916    44A      1.418081  
      45A      1.471263    46A      1.598107    47A      1.698700  
      48A      1.731602    49A      1.823988    50A      1.885409  
      51A      1.997825    52A      2.050007    53A      2.093097  
      54A      2.111663    55A      2.232694    56A      2.385985  
      57A      2.434179    58A      2.465857    59A      2.513213  
      60A      2.667559    61A      2.717964    62A      2.744457  
      63A      2.788631    64A      2.859890    65A      2.920420  
      66A      3.051367    67A      3.176564    68A      3.256457  
      69A      4.135646    70A      4.215835    71A      4.634857  
      72A      4.858066  

    Final Occupation by Irrep:
              A 
    DOCC [    17 ]

  Energy converged.

  @DF-RHF Final Energy:  -228.91433217424409

   => Energetics <=

    Nuclear Repulsion Energy =            134.2069972797985713
    One-Electron Energy =                -579.6894793248277438
    Two-Electron Energy =                 216.5681498707849073
    DFT Exchange-Correlation Energy =       0.0000000000000000
    Empirical Dispersion Energy =           0.0000000000000000
    PCM Polarization Energy =               0.0000000000000000
    EFP Energy =                            0.0000000000000000
    Total Energy =                       -228.9143321742442936

    Alert: EFP and PCM quantities not currently incorporated into SCF psivars.

Properties will be evaluated at   0.000000,   0.000000,   0.000000 Bohr
  ==> Properties <==


Properties computed using the SCF density matrix

  Nuclear Dipole Moment: (a.u.)
     X:     1.5150      Y:     1.3448      Z:     2.6166

  Electronic Dipole Moment: (a.u.)
     X:    -0.7373      Y:    -1.0852      Z:    -1.6169

  Dipole Moment: (a.u.)
     X:     0.7777      Y:     0.2595      Z:     0.9997     Total:     1.2929

  Dipole Moment: (Debye)
     X:     1.9768      Y:     0.6597      Z:     2.5411     Total:     3.2863


  Saving occupied orbitals to File 180.

*** tstop() called on cx1-49-4-2.cx1.hpc.ic.ac.uk at Tue Jul  5 16:25:58 2016
Module time:
	user time   =       2.68 seconds =       0.04 minutes
	system time =       0.02 seconds =       0.00 minutes
	total time  =          3 seconds =       0.05 minutes
Total time:
	user time   =       2.68 seconds =       0.04 minutes
	system time =       0.02 seconds =       0.00 minutes
	total time  =          3 seconds =       0.05 minutes


Properties will be evaluated at   0.000000,   0.000000,   0.000000 Bohr

Properties computed using the  density matrix

  Nuclear Dipole Moment: (a.u.)
     X:     1.5150      Y:     1.3448      Z:     2.6166

  Electronic Dipole Moment: (a.u.)
     X:    -0.7373      Y:    -1.0852      Z:    -1.6169

  Dipole Moment: (a.u.)
     X:     0.7777      Y:     0.2595      Z:     0.9997     Total:     1.2929

  Dipole Moment: (Debye)
     X:     1.9768      Y:     0.6597      Z:     2.5411     Total:     3.2863

  Quadrupole Moment: (Debye Ang)
    XX:   -22.0749     YY:   -23.2962     ZZ:   -22.6990
    XY:     1.1721     XZ:    -4.1851     YZ:    -2.5891

  Traceless Quadrupole Moment: (Debye Ang)
    XX:     0.6151     YY:    -0.6061     ZZ:    -0.0090
    XY:     1.1721     XZ:    -4.1851     YZ:    -2.5891

  Mulliken Charges: (a.u.)
   Center  Symbol    Alpha    Beta     Spin     Total
       1     H     0.28132  0.28132  0.00000  0.43736
       2     O     4.36255  4.36255  0.00000 -0.72510
       3     C     2.99933  2.99933  0.00000  0.00135
       4     C     3.00494  3.00494  0.00000 -0.00988
       5     H     0.43239  0.43239  0.00000  0.13523
       6     H     0.43197  0.43197  0.00000  0.13605
       7     O     4.35844  4.35844  0.00000 -0.71688
       8     H     0.41492  0.41492  0.00000  0.17016
       9     H     0.43263  0.43263  0.00000  0.13474
      10     H     0.28151  0.28151  0.00000  0.43697

   Total alpha = 17.00000, Total beta = 17.00000, Total charge = -0.00000


*** PSI4 exiting successfully. Buy a developer a beer!
