    -----------------------------------------------------------------------
          Psi4: An Open-Source Ab Initio Electronic Structure Package
                              Psi4 (no tag) Driver

                          Git: Rev {detached?}  

    J. M. Turney, A. C. Simmonett, R. M. Parrish, E. G. Hohenstein,
    F. A. Evangelista, J. T. Fermann, B. J. Mintz, L. A. Burns, J. J. Wilke,
    M. L. Abrams, N. J. Russ, M. L. Leininger, C. L. Janssen, E. T. Seidl,
    W. D. Allen, H. F. Schaefer, R. A. King, E. F. Valeev, C. D. Sherrill,
    and T. D. Crawford, WIREs Comput. Mol. Sci. 2, 556-565 (2012)
    (doi: 10.1002/wcms.93)

                         Additional Contributions by
    A. E. DePrince, M. Saitow, U. Bozkaya, A. Yu. Sokolov
    -----------------------------------------------------------------------


    Psi4 started on: Tue Jul  5 16:24:38 2016

    Process ID:   9912
    PSI4DATADIR: /export131/home/mjharvey/miniconda3/share
    Memory level set to 256.000 MB

  ==> Input File <==

--------------------------------------------------------------------------
set {
	reference rhf
	basis 6-31G*
}


set_num_threads( 1 )
memory 2 gb

molecule MOL {
0 1

H	 -1.070890	 -1.366565	 0.180696
O	 -1.422729	 -0.573567	 -0.196946
C	 -0.731407	 0.539437	 0.309156
C	 0.680193	 0.672443	 -0.251532
H	 -1.319765	 1.404033	 0.030086
H	 -0.700012	 0.506517	 1.397677
C	 1.252806	 -0.639677	 -0.788337
H	 0.669661	 1.417211	 -1.042010
H	 1.325373	 1.054032	 0.536930
H	 0.672290	 -1.012016	 -1.627122
H	 2.271100	 -0.506359	 -1.138008
H	 1.267113	 -1.408462	 -0.019553

	symmetry c1
}
set optking {
	frozen_dihedral = ("
		1 2 3 4
	")
}

ee = energy('scf')
oeprop('DIPOLE', 'QUADRUPOLE', 'MULLIKEN_CHARGES')
f=open( 'psi4out.xyz', 'w' )
f.write( "12  " )
f.write( str(ee) + "\n" )
f.write( MOL.save_string_xyz() )
f.close()
--------------------------------------------------------------------------

  Memory set to   2.000 GiB by Python script.

*** tstart() called on cx1-1-3-4.cx1.hpc.ic.ac.uk
*** at Tue Jul  5 16:24:39 2016


         ---------------------------------------------------------
                                   SCF
            by Justin Turney, Rob Parrish, and Andy Simmonett
                              RHF Reference
                        1 Threads,   2000 MiB Core
         ---------------------------------------------------------

  ==> Geometry <==

    Molecular point group: c1
    Full point group: C1

    Geometry (in Angstrom), charge = 0, multiplicity = 1:

       Center              X                  Y                   Z               Mass       
    ------------   -----------------  -----------------  -----------------  -----------------
           H         -0.984338284784    -1.329623136259     0.407364564966     1.007825032070
           O         -1.336177284784    -0.536625136259     0.029722564966    15.994914619560
           C         -0.644855284784     0.576378863741     0.535824564966    12.000000000000
           C          0.766744715216     0.709384863741    -0.024863435034    12.000000000000
           H         -1.233213284784     1.440974863741     0.256754564966     1.007825032070
           H         -0.613460284784     0.543458863741     1.624345564966     1.007825032070
           C          1.339357715216    -0.602735136259    -0.561668435034    12.000000000000
           H          0.756212715216     1.454152863741    -0.815341435034     1.007825032070
           H          1.411924715216     1.090973863741     0.763598564966     1.007825032070
           H          0.758841715216    -0.975074136259    -1.400453435034     1.007825032070
           H          2.357651715216    -0.469417136259    -0.911339435034     1.007825032070
           H          1.353664715216    -1.371520136259     0.207115564966     1.007825032070

  Running in c1 symmetry.

  Rotational constants: A =      0.43442  B =      0.19549  C =      0.14802 [cm^-1]
  Rotational constants: A =  13023.64742  B =   5860.73390  C =   4437.61709 [MHz]
  Nuclear repulsion =  134.303424082793896

  Charge       = 0
  Multiplicity = 1
  Electrons    = 34
  Nalpha       = 17
  Nbeta        = 17

  ==> Algorithm <==

  SCF Algorithm Type is DF.
  DIIS enabled.
  MOM disabled.
  Fractional occupation disabled.
  Guess Type is CORE.
  Energy threshold   = 1.00e-06
  Density threshold  = 1.00e-06
  Integral threshold = 0.00e+00

  ==> Primary Basis <==

  Basis Set: 6-31G*
    Number of shells: 40
    Number of basis function: 76
    Number of Cartesian functions: 76
    Spherical Harmonics?: false
    Max angular momentum: 2

  ==> Pre-Iterations <==

   -------------------------------------------------------
    Irrep   Nso     Nmo     Nalpha   Nbeta   Ndocc  Nsocc
   -------------------------------------------------------
     A         76      76       0       0       0       0
   -------------------------------------------------------
    Total      76      76      17      17      17       0
   -------------------------------------------------------

 OEINTS: Overlap, kinetic, potential, dipole, and quadrupole integrals
         stored in file 35.

  ==> Integral Setup <==

  ==> DFJK: Density-Fitted J/K Matrices <==

    J tasked:                  Yes
    K tasked:                  Yes
    wK tasked:                  No
    OpenMP threads:              1
    Integrals threads:           1
    Memory (MB):              1430
    Algorithm:                Core
    Integral Cache:           NONE
    Schwarz Cutoff:          1E-12
    Fitting Condition:       1E-12

   => Auxiliary Basis Set <=

  Basis Set: 
    Number of shells: 168
    Number of basis function: 524
    Number of Cartesian functions: 524
    Spherical Harmonics?: false
    Max angular momentum: 3

  Minimum eigenvalue in the overlap matrix is 4.2441716966E-03.
  Using Symmetric Orthogonalization.
  SCF Guess: Core (One-Electron) Hamiltonian.

  ==> Iterations <==

                           Total Energy        Delta E     RMS |[F,P]|

   @DF-RHF iter   1:  -156.00062680424438   -1.56001e+02   8.76116e-02 
   @DF-RHF iter   2:  -129.87253891008649    2.61281e+01   8.15444e-02 DIIS
   @DF-RHF iter   3:  -169.86893530257979   -3.99964e+01   5.31018e-02 DIIS
   @DF-RHF iter   4:  -180.03361510874217   -1.01647e+01   5.71639e-02 DIIS
   @DF-RHF iter   5:  -192.93493375236037   -1.29013e+01   7.73765e-03 DIIS
   @DF-RHF iter   6:  -193.06183175723285   -1.26898e-01   4.28600e-03 DIIS
   @DF-RHF iter   7:  -193.09968204809994   -3.78503e-02   9.70199e-04 DIIS
   @DF-RHF iter   8:  -193.10271791081973   -3.03586e-03   3.96139e-04 DIIS
   @DF-RHF iter   9:  -193.10332789234550   -6.09982e-04   1.02453e-04 DIIS
   @DF-RHF iter  10:  -193.10337379051091   -4.58982e-05   3.08115e-05 DIIS
   @DF-RHF iter  11:  -193.10337815493094   -4.36442e-06   6.54793e-06 DIIS
   @DF-RHF iter  12:  -193.10337836990524   -2.14974e-07   1.78899e-06 DIIS
   @DF-RHF iter  13:  -193.10337838829017   -1.83849e-08   4.01560e-07 DIIS

  ==> Post-Iterations <==

    Orbital Energies (a.u.)
    -----------------------

    Doubly Occupied:                                                      

       1A    -20.552073     2A    -11.266983     3A    -11.217135  
       4A    -11.213866     5A     -1.360224     6A     -1.047655  
       7A     -0.928774     8A     -0.804591     9A     -0.694832  
      10A     -0.632862    11A     -0.617934    12A     -0.580238  
      13A     -0.523333    14A     -0.513847    15A     -0.497279  
      16A     -0.458447    17A     -0.430073  

    Virtual:                                                              

      18A      0.211990    19A      0.260990    20A      0.278763  
      21A      0.298970    22A      0.321833    23A      0.325031  
      24A      0.339857    25A      0.367437    26A      0.392202  
      27A      0.443597    28A      0.478050    29A      0.733860  
      30A      0.741299    31A      0.776883    32A      0.811812  
      33A      0.816200    34A      0.873274    35A      0.914615  
      36A      0.965536    37A      1.042140    38A      1.087146  
      39A      1.141780    40A      1.144675    41A      1.164418  
      42A      1.174974    43A      1.187254    44A      1.195336  
      45A      1.232331    46A      1.251695    47A      1.326874  
      48A      1.351006    49A      1.441261    50A      1.591214  
      51A      1.651936    52A      1.711747    53A      1.801425  
      54A      1.960568    55A      1.983278    56A      2.064460  
      57A      2.100348    58A      2.173456    59A      2.289788  
      60A      2.306707    61A      2.406855    62A      2.477386  
      63A      2.507937    64A      2.607203    65A      2.645369  
      66A      2.707140    67A      2.723147    68A      2.800004  
      69A      2.880848    70A      3.001187    71A      3.062785  
      72A      3.218501    73A      4.202364    74A      4.590615  
      75A      4.721217    76A      4.935227  

    Final Occupation by Irrep:
              A 
    DOCC [    17 ]

  Energy converged.

  @DF-RHF Final Energy:  -193.10337838829017

   => Energetics <=

    Nuclear Repulsion Energy =            134.3034240827938959
    One-Electron Energy =                -528.1332309533155467
    Two-Electron Energy =                 200.7264284822318814
    DFT Exchange-Correlation Energy =       0.0000000000000000
    Empirical Dispersion Energy =           0.0000000000000000
    PCM Polarization Energy =               0.0000000000000000
    EFP Energy =                            0.0000000000000000
    Total Energy =                       -193.1033783882897978

    Alert: EFP and PCM quantities not currently incorporated into SCF psivars.

Properties will be evaluated at   0.000000,   0.000000,   0.000000 Bohr
  ==> Properties <==


Properties computed using the SCF density matrix

  Nuclear Dipole Moment: (a.u.)
     X:     3.5628      Y:     0.3573      Z:     0.1239

  Electronic Dipole Moment: (a.u.)
     X:    -3.0205      Y:    -0.3777      Z:     0.2866

  Dipole Moment: (a.u.)
     X:     0.5423      Y:    -0.0203      Z:     0.4106     Total:     0.6805

  Dipole Moment: (Debye)
     X:     1.3783      Y:    -0.0517      Z:     1.0436     Total:     1.7296


  Saving occupied orbitals to File 180.

*** tstop() called on cx1-1-3-4.cx1.hpc.ic.ac.uk at Tue Jul  5 16:24:42 2016
Module time:
	user time   =       3.09 seconds =       0.05 minutes
	system time =       0.03 seconds =       0.00 minutes
	total time  =          3 seconds =       0.05 minutes
Total time:
	user time   =       3.09 seconds =       0.05 minutes
	system time =       0.03 seconds =       0.00 minutes
	total time  =          3 seconds =       0.05 minutes


Properties will be evaluated at   0.000000,   0.000000,   0.000000 Bohr

Properties computed using the  density matrix

  Nuclear Dipole Moment: (a.u.)
     X:     3.5628      Y:     0.3573      Z:     0.1239

  Electronic Dipole Moment: (a.u.)
     X:    -3.0205      Y:    -0.3777      Z:     0.2866

  Dipole Moment: (a.u.)
     X:     0.5423      Y:    -0.0203      Z:     0.4106     Total:     0.6805

  Dipole Moment: (Debye)
     X:     1.3783      Y:    -0.0517      Z:     1.0436     Total:     1.7296

  Quadrupole Moment: (Debye Ang)
    XX:   -30.3698     YY:   -23.9795     ZZ:   -26.0331
    XY:    -0.5477     XZ:    -0.9159     YZ:    -1.0869

  Traceless Quadrupole Moment: (Debye Ang)
    XX:    -3.5757     YY:     2.8146     ZZ:     0.7610
    XY:    -0.5477     XZ:    -0.9159     YZ:    -1.0869

  Mulliken Charges: (a.u.)
   Center  Symbol    Alpha    Beta     Spin     Total
       1     H     0.28005  0.28005  0.00000  0.43991
       2     O     4.36936  4.36936  0.00000 -0.73872
       3     C     2.99739  2.99739  0.00000  0.00522
       4     C     3.16893  3.16893  0.00000 -0.33787
       5     H     0.41394  0.41394  0.00000  0.17213
       6     H     0.43029  0.43029  0.00000  0.13941
       7     C     3.24633  3.24633  0.00000 -0.49267
       8     H     0.41667  0.41667  0.00000  0.16667
       9     H     0.42153  0.42153  0.00000  0.15693
      10     H     0.40739  0.40739  0.00000  0.18522
      11     H     0.41746  0.41746  0.00000  0.16507
      12     H     0.43065  0.43065  0.00000  0.13870

   Total alpha = 17.00000, Total beta = 17.00000, Total charge =  0.00000


*** PSI4 exiting successfully. Buy a developer a beer!
