    -----------------------------------------------------------------------
          Psi4: An Open-Source Ab Initio Electronic Structure Package
                              Psi4 (no tag) Driver

                          Git: Rev {detached?}  

    J. M. Turney, A. C. Simmonett, R. M. Parrish, E. G. Hohenstein,
    F. A. Evangelista, J. T. Fermann, B. J. Mintz, L. A. Burns, J. J. Wilke,
    M. L. Abrams, N. J. Russ, M. L. Leininger, C. L. Janssen, E. T. Seidl,
    W. D. Allen, H. F. Schaefer, R. A. King, E. F. Valeev, C. D. Sherrill,
    and T. D. Crawford, WIREs Comput. Mol. Sci. 2, 556-565 (2012)
    (doi: 10.1002/wcms.93)

                         Additional Contributions by
    A. E. DePrince, M. Saitow, U. Bozkaya, A. Yu. Sokolov
    -----------------------------------------------------------------------


    Psi4 started on: Tue Jul  5 16:54:40 2016

    Process ID:  26170
    PSI4DATADIR: /export131/home/mjharvey/miniconda3/share
    Memory level set to 256.000 MB

  ==> Input File <==

--------------------------------------------------------------------------
set {
	reference rhf
	basis 6-31G*
}


set_num_threads( 1 )
memory 2 gb

molecule MOL {
0 1

O	 -0.389695	 0.092980	 2.453461
C	 -0.833093	 0.610524	 1.479901
C	 -1.689737	 1.847648	 1.474314
O	 -0.632575	 0.154573	 0.251549
H	 -2.647636	 1.627754	 1.017121
H	 -1.833848	 2.193421	 2.486988
H	 -1.213112	 2.620317	 0.882227
C	 0.160891	 -1.019931	 0.106212
C	 1.589627	 -0.672828	 0.480843
H	 0.089836	 -1.367806	 -0.916050
H	 -0.238459	 -1.792301	 0.749618
C	 2.223022	 -1.642952	 1.479877
H	 1.582619	 0.330897	 0.900865
H	 2.189269	 -0.629016	 -0.424567
C	 2.023110	 -3.105298	 1.084177
H	 3.287613	 -1.431889	 1.558609
H	 1.799972	 -1.471451	 2.464242
H	 2.479942	 -3.772621	 1.808068
H	 2.466519	 -3.315360	 0.114878
H	 0.967414	 -3.354520	 1.025259

	symmetry c1
}
set optking {
	frozen_dihedral = ("
		16 12 9 8,
		2 4 8 10,
		1 2 4 8
	")
}

ee = energy('scf')
oeprop('DIPOLE', 'QUADRUPOLE', 'MULLIKEN_CHARGES')
f=open( 'psi4out.xyz', 'w' )
f.write( "20  " )
f.write( str(ee) + "\n" )
f.write( MOL.save_string_xyz() )
f.close()
--------------------------------------------------------------------------

  Memory set to   2.000 GiB by Python script.

*** tstart() called on cx1-1-1-1.cx1.hpc.ic.ac.uk
*** at Tue Jul  5 16:54:41 2016


         ---------------------------------------------------------
                                   SCF
            by Justin Turney, Rob Parrish, and Andy Simmonett
                              RHF Reference
                        1 Threads,   2000 MiB Core
         ---------------------------------------------------------

  ==> Geometry <==

    Molecular point group: c1
    Full point group: C1

    Geometry (in Angstrom), charge = 0, multiplicity = 1:

       Center              X                  Y                   Z               Mass       
    ------------   -----------------  -----------------  -----------------  -----------------
           O         -0.685470525898     0.560557304405     1.348320365058    15.994914619560
           C         -1.128868525898     1.078101304405     0.374760365058    12.000000000000
           C         -1.985512525898     2.315225304405     0.369173365058    12.000000000000
           O         -0.928350525898     0.622150304405    -0.853591634942    15.994914619560
           H         -2.943411525898     2.095331304405    -0.088019634942     1.007825032070
           H         -2.129623525898     2.660998304405     1.381847365058     1.007825032070
           H         -1.508887525898     3.087894304405    -0.222913634942     1.007825032070
           C         -0.134884525898    -0.552353695595    -0.998928634942    12.000000000000
           C          1.293851474102    -0.205250695595    -0.624297634942    12.000000000000
           H         -0.205939525898    -0.900228695595    -2.021190634942     1.007825032070
           H         -0.534234525898    -1.324723695595    -0.355522634942     1.007825032070
           C          1.927246474102    -1.175374695595     0.374736365058    12.000000000000
           H          1.286843474102     0.798474304405    -0.204275634942     1.007825032070
           H          1.893493474102    -0.161438695595    -1.529707634942     1.007825032070
           C          1.727334474102    -2.637720695595    -0.020963634942    12.000000000000
           H          2.991837474102    -0.964311695595     0.453468365058     1.007825032070
           H          1.504196474102    -1.003873695595     1.359101365058     1.007825032070
           H          2.184166474102    -3.305043695595     0.702927365058     1.007825032070
           H          2.170743474102    -2.847782695595    -0.990262634942     1.007825032070
           H          0.671638474102    -2.886942695595    -0.079881634942     1.007825032070

  Running in c1 symmetry.

  Rotational constants: A =      0.16078  B =      0.03535  C =      0.03260 [cm^-1]
  Rotational constants: A =   4820.19440  B =   1059.90325  C =    977.36928 [MHz]
  Nuclear repulsion =  399.525563784433757

  Charge       = 0
  Multiplicity = 1
  Electrons    = 64
  Nalpha       = 32
  Nbeta        = 32

  ==> Algorithm <==

  SCF Algorithm Type is DF.
  DIIS enabled.
  MOM disabled.
  Fractional occupation disabled.
  Guess Type is CORE.
  Energy threshold   = 1.00e-06
  Density threshold  = 1.00e-06
  Integral threshold = 0.00e+00

  ==> Primary Basis <==

  Basis Set: 6-31G*
    Number of shells: 72
    Number of basis function: 144
    Number of Cartesian functions: 144
    Spherical Harmonics?: false
    Max angular momentum: 2

  ==> Pre-Iterations <==

   -------------------------------------------------------
    Irrep   Nso     Nmo     Nalpha   Nbeta   Ndocc  Nsocc
   -------------------------------------------------------
     A        144     144       0       0       0       0
   -------------------------------------------------------
    Total     144     144      32      32      32       0
   -------------------------------------------------------

 OEINTS: Overlap, kinetic, potential, dipole, and quadrupole integrals
         stored in file 35.

  ==> Integral Setup <==

  ==> DFJK: Density-Fitted J/K Matrices <==

    J tasked:                  Yes
    K tasked:                  Yes
    wK tasked:                  No
    OpenMP threads:              1
    Integrals threads:           1
    Memory (MB):              1430
    Algorithm:                Core
    Integral Cache:           NONE
    Schwarz Cutoff:          1E-12
    Fitting Condition:       1E-12

   => Auxiliary Basis Set <=

  Basis Set: 
    Number of shells: 300
    Number of basis function: 948
    Number of Cartesian functions: 948
    Spherical Harmonics?: false
    Max angular momentum: 3

  Minimum eigenvalue in the overlap matrix is 3.5990683410E-03.
  Using Symmetric Orthogonalization.
  SCF Guess: Core (One-Electron) Hamiltonian.

  ==> Iterations <==

                           Total Energy        Delta E     RMS |[F,P]|

   @DF-RHF iter   1:  -279.64769372652665   -2.79648e+02   7.29732e-02 
   @DF-RHF iter   2:  -199.25814176887570    8.03896e+01   7.45732e-02 DIIS
   @DF-RHF iter   3:  -335.67394117990409   -1.36416e+02   3.80788e-02 DIIS
   @DF-RHF iter   4:  -235.32432267654292    1.00350e+02   7.96946e-02 DIIS
   @DF-RHF iter   5:  -328.92371632759921   -9.35994e+01   4.61524e-02 DIIS
   @DF-RHF iter   6:  -383.66664834110009   -5.47429e+01   4.70701e-03 DIIS
   @DF-RHF iter   7:  -383.90031267822792   -2.33664e-01   1.75035e-03 DIIS
   @DF-RHF iter   8:  -383.92455360734573   -2.42409e-02   7.29013e-04 DIIS
   @DF-RHF iter   9:  -383.93110185764920   -6.54825e-03   2.07458e-04 DIIS
   @DF-RHF iter  10:  -383.93160291856327   -5.01061e-04   7.73709e-05 DIIS
   @DF-RHF iter  11:  -383.93170191293927   -9.89944e-05   2.52407e-05 DIIS
   @DF-RHF iter  12:  -383.93171295647687   -1.10435e-05   9.51450e-06 DIIS
   @DF-RHF iter  13:  -383.93171411448009   -1.15800e-06   3.59845e-06 DIIS
   @DF-RHF iter  14:  -383.93171439736841   -2.82888e-07   8.60475e-07 DIIS

  ==> Post-Iterations <==

    Orbital Energies (a.u.)
    -----------------------

    Doubly Occupied:                                                      

       1A    -20.600162     2A    -20.545913     3A    -11.376492  
       4A    -11.281249     5A    -11.234282     6A    -11.214924  
       7A    -11.211558     8A    -11.208905     9A     -1.469502  
      10A     -1.363649    11A     -1.082368    12A     -1.026232  
      13A     -0.971317    14A     -0.896306    15A     -0.802829  
      16A     -0.761189    17A     -0.702190    18A     -0.684914  
      19A     -0.658020    20A     -0.624896    21A     -0.598281  
      22A     -0.586780    23A     -0.577213    24A     -0.566389  
      25A     -0.543743    26A     -0.519502    27A     -0.512413  
      28A     -0.486313    29A     -0.470151    30A     -0.458713  
      31A     -0.441347    32A     -0.436361  

    Virtual:                                                              

      33A      0.195971    34A      0.235095    35A      0.253298  
      36A      0.260947    37A      0.269605    38A      0.301494  
      39A      0.311328    40A      0.319202    41A      0.327834  
      42A      0.336751    43A      0.340672    44A      0.344985  
      45A      0.362933    46A      0.390615    47A      0.410772  
      48A      0.426337    49A      0.455467    50A      0.484256  
      51A      0.535481    52A      0.562120    53A      0.711903  
      54A      0.725996    55A      0.740935    56A      0.748896  
      57A      0.766102    58A      0.781781    59A      0.786010  
      60A      0.816081    61A      0.834181    62A      0.859432  
      63A      0.873147    64A      0.922754    65A      0.957141  
      66A      0.969657    67A      0.986811    68A      1.004951  
      69A      1.028198    70A      1.084053    71A      1.103294  
      72A      1.116115    73A      1.134152    74A      1.139228  
      75A      1.158758    76A      1.173339    77A      1.187166  
      78A      1.192397    79A      1.207008    80A      1.218472  
      81A      1.229166    82A      1.233382    83A      1.247991  
      84A      1.278581    85A      1.289111    86A      1.322387  
      87A      1.348475    88A      1.414617    89A      1.447955  
      90A      1.466491    91A      1.613452    92A      1.633073  
      93A      1.655934    94A      1.704460    95A      1.738939  
      96A      1.768092    97A      1.812190    98A      1.870433  
      99A      1.915370   100A      1.976856   101A      1.989622  
     102A      2.020924   103A      2.061268   104A      2.097790  
     105A      2.152863   106A      2.180428   107A      2.206495  
     108A      2.224076   109A      2.260794   110A      2.284822  
     111A      2.312846   112A      2.321642   113A      2.363483  
     114A      2.390621   115A      2.414477   116A      2.459396  
     117A      2.533155   118A      2.553470   119A      2.582893  
     120A      2.604366   121A      2.677305   122A      2.705292  
     123A      2.715467   124A      2.748738   125A      2.772106  
     126A      2.801859   127A      2.864348   128A      2.922622  
     129A      2.965667   130A      3.036252   131A      3.062232  
     132A      3.132372   133A      3.160174   134A      3.369492  
     135A      3.426994   136A      3.554058   137A      4.453356  
     138A      4.540407   139A      4.590725   140A      4.621367  
     141A      4.754330   142A      4.845171   143A      4.892825  
     144A      5.000075  

    Final Occupation by Irrep:
              A 
    DOCC [    32 ]

  Energy converged.

  @DF-RHF Final Energy:  -383.93171439736841

   => Energetics <=

    Nuclear Repulsion Energy =            399.5255637844337571
    One-Electron Energy =               -1315.0864823331503430
    Two-Electron Energy =                 531.6292041513487447
    DFT Exchange-Correlation Energy =       0.0000000000000000
    Empirical Dispersion Energy =           0.0000000000000000
    PCM Polarization Energy =               0.0000000000000000
    EFP Energy =                            0.0000000000000000
    Total Energy =                       -383.9317143973678412

    Alert: EFP and PCM quantities not currently incorporated into SCF psivars.

Properties will be evaluated at   0.000000,   0.000000,   0.000000 Bohr
  ==> Properties <==


Properties computed using the SCF density matrix

  Nuclear Dipole Moment: (a.u.)
     X:     5.0366      Y:    -4.4488      Z:    -1.4924

  Electronic Dipole Moment: (a.u.)
     X:    -5.1699      Y:     4.6230      Z:     0.8500

  Dipole Moment: (a.u.)
     X:    -0.1333      Y:     0.1741      Z:    -0.6423     Total:     0.6787

  Dipole Moment: (Debye)
     X:    -0.3389      Y:     0.4426      Z:    -1.6326     Total:     1.7252


  Saving occupied orbitals to File 180.

*** tstop() called on cx1-1-1-1.cx1.hpc.ic.ac.uk at Tue Jul  5 16:54:57 2016
Module time:
	user time   =      15.48 seconds =       0.26 minutes
	system time =       0.17 seconds =       0.00 minutes
	total time  =         16 seconds =       0.27 minutes
Total time:
	user time   =      15.48 seconds =       0.26 minutes
	system time =       0.17 seconds =       0.00 minutes
	total time  =         16 seconds =       0.27 minutes


Properties will be evaluated at   0.000000,   0.000000,   0.000000 Bohr

Properties computed using the  density matrix

  Nuclear Dipole Moment: (a.u.)
     X:     5.0366      Y:    -4.4488      Z:    -1.4924

  Electronic Dipole Moment: (a.u.)
     X:    -5.1699      Y:     4.6230      Z:     0.8500

  Dipole Moment: (a.u.)
     X:    -0.1333      Y:     0.1741      Z:    -0.6423     Total:     0.6787

  Dipole Moment: (Debye)
     X:    -0.3389      Y:     0.4426      Z:    -1.6326     Total:     1.7252

  Quadrupole Moment: (Debye Ang)
    XX:   -47.3191     YY:   -46.0116     ZZ:   -53.9991
    XY:    -2.3322     XZ:    -0.3874     YZ:     1.1594

  Traceless Quadrupole Moment: (Debye Ang)
    XX:     1.7908     YY:     3.0983     ZZ:    -4.8892
    XY:    -2.3322     XZ:    -0.3874     YZ:     1.1594

  Mulliken Charges: (a.u.)
   Center  Symbol    Alpha    Beta     Spin     Total
       1     O     4.28408  4.28408  0.00000 -0.56817
       2     C     2.62086  2.62086  0.00000  0.75829
       3     C     3.28196  3.28196  0.00000 -0.56391
       4     O     4.31074  4.31074  0.00000 -0.62148
       5     H     0.39957  0.39957  0.00000  0.20085
       6     H     0.39715  0.39715  0.00000  0.20570
       7     H     0.40044  0.40044  0.00000  0.19911
       8     C     3.00444  3.00444  0.00000 -0.00888
       9     C     3.17024  3.17024  0.00000 -0.34048
      10     H     0.40516  0.40516  0.00000  0.18969
      11     H     0.40617  0.40617  0.00000  0.18765
      12     C     3.15860  3.15860  0.00000 -0.31721
      13     H     0.40761  0.40761  0.00000  0.18478
      14     H     0.42062  0.42062  0.00000  0.15876
      15     C     3.24683  3.24683  0.00000 -0.49365
      16     H     0.42178  0.42178  0.00000  0.15644
      17     H     0.40216  0.40216  0.00000  0.19569
      18     H     0.41600  0.41600  0.00000  0.16799
      19     H     0.42370  0.42370  0.00000  0.15259
      20     H     0.42188  0.42188  0.00000  0.15624

   Total alpha = 32.00000, Total beta = 32.00000, Total charge = -0.00000


*** PSI4 exiting successfully. Buy a developer a beer!
