    -----------------------------------------------------------------------
          Psi4: An Open-Source Ab Initio Electronic Structure Package
                              Psi4 (no tag) Driver

                          Git: Rev {detached?}  

    J. M. Turney, A. C. Simmonett, R. M. Parrish, E. G. Hohenstein,
    F. A. Evangelista, J. T. Fermann, B. J. Mintz, L. A. Burns, J. J. Wilke,
    M. L. Abrams, N. J. Russ, M. L. Leininger, C. L. Janssen, E. T. Seidl,
    W. D. Allen, H. F. Schaefer, R. A. King, E. F. Valeev, C. D. Sherrill,
    and T. D. Crawford, WIREs Comput. Mol. Sci. 2, 556-565 (2012)
    (doi: 10.1002/wcms.93)

                         Additional Contributions by
    A. E. DePrince, M. Saitow, U. Bozkaya, A. Yu. Sokolov
    -----------------------------------------------------------------------


    Psi4 started on: Tue Jul  5 16:38:14 2016

    Process ID:  30295
    PSI4DATADIR: /export131/home/mjharvey/miniconda3/share
    Memory level set to 256.000 MB

  ==> Input File <==

--------------------------------------------------------------------------
set {
	reference rhf
	basis 6-31G*
}


set_num_threads( 1 )
memory 2 gb

molecule MOL {
0 1

H	 -3.418149	 0.987034	 1.529755
O	 -2.558754	 1.269833	 1.251833
C	 -2.026376	 0.340750	 0.341611
C	 -0.673256	 0.843270	 -0.132153
H	 -1.910917	 -0.631921	 0.816498
H	 -2.694500	 0.213447	 -0.509305
C	 0.486613	 -0.083066	 0.235839
H	 -0.715586	 0.970948	 -1.210718
H	 -0.508072	 1.829858	 0.297090
C	 0.765248	 -0.120712	 1.739421
H	 1.378736	 0.236967	 -0.292564
H	 0.264762	 -1.091045	 -0.112873
C	 1.446297	 1.148314	 2.250711
H	 -0.170518	 -0.267562	 2.274673
H	 1.387866	 -0.982475	 1.972133
H	 0.831797	 2.024275	 2.063706
H	 1.629342	 1.094331	 3.319601
H	 2.402341	 1.305563	 1.759016

	symmetry c1
}
set optking {
	frozen_dihedral = ("
		14 10 7 11,
		10 7 4 8,
		1 2 3 4
	")
}

ee = energy('scf')
oeprop('DIPOLE', 'QUADRUPOLE', 'MULLIKEN_CHARGES')
f=open( 'psi4out.xyz', 'w' )
f.write( "18  " )
f.write( str(ee) + "\n" )
f.write( MOL.save_string_xyz() )
f.close()
--------------------------------------------------------------------------

  Memory set to   2.000 GiB by Python script.

*** tstart() called on cx1-3-2-3.cx1.hpc.ic.ac.uk
*** at Tue Jul  5 16:38:14 2016


         ---------------------------------------------------------
                                   SCF
            by Justin Turney, Rob Parrish, and Andy Simmonett
                              RHF Reference
                        1 Threads,   2000 MiB Core
         ---------------------------------------------------------

  ==> Geometry <==

    Molecular point group: c1
    Full point group: C1

    Geometry (in Angstrom), charge = 0, multiplicity = 1:

       Center              X                  Y                   Z               Mass       
    ------------   -----------------  -----------------  -----------------  -----------------
           H         -2.935913491598     0.401403664214     0.562001095041     1.007825032070
           O         -2.076518491598     0.684202664214     0.284079095041    15.994914619560
           C         -1.544140491598    -0.244880335786    -0.626142904959    12.000000000000
           C         -0.191020491598     0.257639664214    -1.099906904959    12.000000000000
           H         -1.428681491598    -1.217551335786    -0.151255904959     1.007825032070
           H         -2.212264491598    -0.372183335786    -1.477058904959     1.007825032070
           C          0.968848508402    -0.668696335786    -0.731914904959    12.000000000000
           H         -0.233350491598     0.385317664214    -2.178471904959     1.007825032070
           H         -0.025836491598     1.244227664214    -0.670663904959     1.007825032070
           C          1.247483508402    -0.706342335786     0.771667095041    12.000000000000
           H          1.860971508402    -0.348663335786    -1.260317904959     1.007825032070
           H          0.746997508402    -1.676675335786    -1.080626904959     1.007825032070
           C          1.928532508402     0.562683664214     1.282957095041    12.000000000000
           H          0.311717508402    -0.853192335786     1.306919095041     1.007825032070
           H          1.870101508402    -1.568105335786     1.004379095041     1.007825032070
           H          1.314032508402     1.438644664214     1.095952095041     1.007825032070
           H          2.111577508402     0.508700664214     2.351847095041     1.007825032070
           H          2.884576508402     0.719932664214     0.791262095041     1.007825032070

  Running in c1 symmetry.

  Rotational constants: A =      0.17852  B =      0.06667  C =      0.05687 [cm^-1]
  Rotational constants: A =   5352.04182  B =   1998.69137  C =   1704.82532 [MHz]
  Nuclear repulsion =  256.621487303485367

  Charge       = 0
  Multiplicity = 1
  Electrons    = 50
  Nalpha       = 25
  Nbeta        = 25

  ==> Algorithm <==

  SCF Algorithm Type is DF.
  DIIS enabled.
  MOM disabled.
  Fractional occupation disabled.
  Guess Type is CORE.
  Energy threshold   = 1.00e-06
  Density threshold  = 1.00e-06
  Integral threshold = 0.00e+00

  ==> Primary Basis <==

  Basis Set: 6-31G*
    Number of shells: 60
    Number of basis function: 114
    Number of Cartesian functions: 114
    Spherical Harmonics?: false
    Max angular momentum: 2

  ==> Pre-Iterations <==

   -------------------------------------------------------
    Irrep   Nso     Nmo     Nalpha   Nbeta   Ndocc  Nsocc
   -------------------------------------------------------
     A        114     114       0       0       0       0
   -------------------------------------------------------
    Total     114     114      25      25      25       0
   -------------------------------------------------------

 OEINTS: Overlap, kinetic, potential, dipole, and quadrupole integrals
         stored in file 35.

  ==> Integral Setup <==

  ==> DFJK: Density-Fitted J/K Matrices <==

    J tasked:                  Yes
    K tasked:                  Yes
    wK tasked:                  No
    OpenMP threads:              1
    Integrals threads:           1
    Memory (MB):              1430
    Algorithm:                Core
    Integral Cache:           NONE
    Schwarz Cutoff:          1E-12
    Fitting Condition:       1E-12

   => Auxiliary Basis Set <=

  Basis Set: 
    Number of shells: 252
    Number of basis function: 786
    Number of Cartesian functions: 786
    Spherical Harmonics?: false
    Max angular momentum: 3

  Minimum eigenvalue in the overlap matrix is 4.3782341575E-03.
  Using Symmetric Orthogonalization.
  SCF Guess: Core (One-Electron) Hamiltonian.

  ==> Iterations <==

                           Total Energy        Delta E     RMS |[F,P]|

   @DF-RHF iter   1:  -208.97173329696955   -2.08972e+02   7.39308e-02 
   @DF-RHF iter   2:  -110.33350930989258    9.86382e+01   8.99813e-02 DIIS
   @DF-RHF iter   3:  -230.57102691315521   -1.20238e+02   4.05580e-02 DIIS
   @DF-RHF iter   4:  -174.81528760191662    5.57557e+01   7.15362e-02 DIIS
   @DF-RHF iter   5:  -235.69656690823172   -6.08813e+01   4.64643e-02 DIIS
   @DF-RHF iter   6:  -270.27359751454134   -3.45770e+01   1.10479e-02 DIIS
   @DF-RHF iter   7:  -271.00972645372957   -7.36129e-01   5.13578e-03 DIIS
   @DF-RHF iter   8:  -271.13731686796808   -1.27590e-01   1.82066e-03 DIIS
   @DF-RHF iter   9:  -271.16735531076932   -3.00384e-02   5.21439e-04 DIIS
   @DF-RHF iter  10:  -271.17035190507141   -2.99659e-03   1.73992e-04 DIIS
   @DF-RHF iter  11:  -271.17063855882992   -2.86654e-04   5.95100e-05 DIIS
   @DF-RHF iter  12:  -271.17068088954960   -4.23307e-05   1.38741e-05 DIIS
   @DF-RHF iter  13:  -271.17068279437757   -1.90483e-06   3.62609e-06 DIIS
   @DF-RHF iter  14:  -271.17068294023028   -1.45853e-07   8.89235e-07 DIIS

  ==> Post-Iterations <==

    Orbital Energies (a.u.)
    -----------------------

    Doubly Occupied:                                                      

       1A    -20.552639     2A    -11.266148     3A    -11.212403  
       4A    -11.210541     5A    -11.208821     6A    -11.202549  
       7A     -1.359207     8A     -1.079952     9A     -1.002842  
      10A     -0.912541    11A     -0.837117    12A     -0.768117  
      13A     -0.699758    14A     -0.654315    15A     -0.616903  
      16A     -0.593515    17A     -0.573170    18A     -0.537845  
      19A     -0.525366    20A     -0.515750    21A     -0.486199  
      22A     -0.461294    23A     -0.453611    24A     -0.453220  
      25A     -0.426483  

    Virtual:                                                              

      26A      0.224998    27A      0.240810    28A      0.269105  
      29A      0.277772    30A      0.293390    31A      0.306048  
      32A      0.313953    33A      0.336684    34A      0.345596  
      35A      0.352597    36A      0.365631    37A      0.390378  
      38A      0.401442    39A      0.427483    40A      0.442399  
      41A      0.453718    42A      0.516151    43A      0.716947  
      44A      0.731381    45A      0.733945    46A      0.752449  
      47A      0.782579    48A      0.819218    49A      0.842175  
      50A      0.889529    51A      0.935308    52A      0.958371  
      53A      0.970647    54A      1.015838    55A      1.039240  
      56A      1.069192    57A      1.116500    58A      1.125627  
      59A      1.146396    60A      1.148761    61A      1.160681  
      62A      1.176211    63A      1.191271    64A      1.195862  
      65A      1.226247    66A      1.234367    67A      1.250075  
      68A      1.262339    69A      1.263736    70A      1.275531  
      71A      1.306269    72A      1.353922    73A      1.390243  
      74A      1.504251    75A      1.614995    76A      1.671099  
      77A      1.752112    78A      1.827517    79A      1.838991  
      80A      1.906348    81A      1.966799    82A      2.021840  
      83A      2.038190    84A      2.083704    85A      2.105925  
      86A      2.194782    87A      2.242561    88A      2.283784  
      89A      2.296138    90A      2.326477    91A      2.379915  
      92A      2.425531    93A      2.435197    94A      2.486297  
      95A      2.581347    96A      2.613511    97A      2.681529  
      98A      2.691881    99A      2.752968   100A      2.753817  
     101A      2.812427   102A      2.840368   103A      2.908005  
     104A      2.948255   105A      2.979110   106A      3.047219  
     107A      3.106520   108A      3.229745   109A      4.178679  
     110A      4.562705   111A      4.659016   112A      4.815956  
     113A      4.922778   114A      4.983290  

    Final Occupation by Irrep:
              A 
    DOCC [    25 ]

  Energy converged.

  @DF-RHF Final Energy:  -271.17068294023028

   => Energetics <=

    Nuclear Repulsion Energy =            256.6214873034853667
    One-Electron Energy =                -876.3636327307957572
    Two-Electron Energy =                 348.5714624870810212
    DFT Exchange-Correlation Energy =       0.0000000000000000
    Empirical Dispersion Energy =           0.0000000000000000
    PCM Polarization Energy =               0.0000000000000000
    EFP Energy =                            0.0000000000000000
    Total Energy =                       -271.1706829402293124

    Alert: EFP and PCM quantities not currently incorporated into SCF psivars.

Properties will be evaluated at   0.000000,   0.000000,   0.000000 Bohr
  ==> Properties <==


Properties computed using the SCF density matrix

  Nuclear Dipole Moment: (a.u.)
     X:     3.9873      Y:    -1.2512      Z:     0.2769

  Electronic Dipole Moment: (a.u.)
     X:    -4.3164      Y:     0.7145      Z:    -0.4676

  Dipole Moment: (a.u.)
     X:    -0.3291      Y:    -0.5367      Z:    -0.1907     Total:     0.6578

  Dipole Moment: (Debye)
     X:    -0.8364      Y:    -1.3641      Z:    -0.4847     Total:     1.6719


  Saving occupied orbitals to File 180.

*** tstop() called on cx1-3-2-3.cx1.hpc.ic.ac.uk at Tue Jul  5 16:38:23 2016
Module time:
	user time   =       8.58 seconds =       0.14 minutes
	system time =       0.06 seconds =       0.00 minutes
	total time  =          9 seconds =       0.15 minutes
Total time:
	user time   =       8.58 seconds =       0.14 minutes
	system time =       0.06 seconds =       0.00 minutes
	total time  =          9 seconds =       0.15 minutes


Properties will be evaluated at   0.000000,   0.000000,   0.000000 Bohr

Properties computed using the  density matrix

  Nuclear Dipole Moment: (a.u.)
     X:     3.9873      Y:    -1.2512      Z:     0.2769

  Electronic Dipole Moment: (a.u.)
     X:    -4.3164      Y:     0.7145      Z:    -0.4676

  Dipole Moment: (a.u.)
     X:    -0.3291      Y:    -0.5367      Z:    -0.1907     Total:     0.6578

  Dipole Moment: (Debye)
     X:    -0.8364      Y:    -1.3641      Z:    -0.4847     Total:     1.6719

  Quadrupole Moment: (Debye Ang)
    XX:   -34.9263     YY:   -41.7331     ZZ:   -39.7594
    XY:     2.5282     XZ:    -0.4644     YZ:    -0.4430

  Traceless Quadrupole Moment: (Debye Ang)
    XX:     3.8799     YY:    -2.9268     ZZ:    -0.9531
    XY:     2.5282     XZ:    -0.4644     YZ:    -0.4430

  Mulliken Charges: (a.u.)
   Center  Symbol    Alpha    Beta     Spin     Total
       1     H     0.28205  0.28205  0.00000  0.43589
       2     O     4.37158  4.37158  0.00000 -0.74316
       3     C     2.99694  2.99694  0.00000  0.00613
       4     C     3.16893  3.16893  0.00000 -0.33785
       5     H     0.42970  0.42970  0.00000  0.14061
       6     H     0.42909  0.42909  0.00000  0.14182
       7     C     3.16152  3.16152  0.00000 -0.32303
       8     H     0.41892  0.41892  0.00000  0.16215
       9     H     0.40221  0.40221  0.00000  0.19559
      10     C     3.15520  3.15520  0.00000 -0.31039
      11     H     0.42077  0.42077  0.00000  0.15846
      12     H     0.42398  0.42398  0.00000  0.15204
      13     C     3.24088  3.24088  0.00000 -0.48175
      14     H     0.41664  0.41664  0.00000  0.16672
      15     H     0.42222  0.42222  0.00000  0.15555
      16     H     0.41583  0.41583  0.00000  0.16834
      17     H     0.41975  0.41975  0.00000  0.16049
      18     H     0.42380  0.42380  0.00000  0.15241

   Total alpha = 25.00000, Total beta = 25.00000, Total charge = -0.00000


*** PSI4 exiting successfully. Buy a developer a beer!
