    -----------------------------------------------------------------------
          Psi4: An Open-Source Ab Initio Electronic Structure Package
                              Psi4 (no tag) Driver

                          Git: Rev {detached?}  

    J. M. Turney, A. C. Simmonett, R. M. Parrish, E. G. Hohenstein,
    F. A. Evangelista, J. T. Fermann, B. J. Mintz, L. A. Burns, J. J. Wilke,
    M. L. Abrams, N. J. Russ, M. L. Leininger, C. L. Janssen, E. T. Seidl,
    W. D. Allen, H. F. Schaefer, R. A. King, E. F. Valeev, C. D. Sherrill,
    and T. D. Crawford, WIREs Comput. Mol. Sci. 2, 556-565 (2012)
    (doi: 10.1002/wcms.93)

                         Additional Contributions by
    A. E. DePrince, M. Saitow, U. Bozkaya, A. Yu. Sokolov
    -----------------------------------------------------------------------


    Psi4 started on: Tue Jul  5 16:35:00 2016

    Process ID:  22745
    PSI4DATADIR: /export131/home/mjharvey/miniconda3/share
    Memory level set to 256.000 MB

  ==> Input File <==

--------------------------------------------------------------------------
set {
	reference rhf
	basis 6-31G*
}


set_num_threads( 1 )
memory 2 gb

molecule MOL {
0 1

H	 0.971572	 -0.894200	 2.029153
C	 0.030571	 -0.984041	 1.504033
O	 0.000000	 0.000000	 0.521119
H	 -0.037968	 -1.981289	 1.072189
H	 -0.783557	 -0.861303	 2.216648
C	 -1.165642	 0.000000	 -0.238270
H	 -1.228672	 0.883184	 -0.872070
H	 -2.003012	 0.000000	 0.445920
H	 -1.228672	 -0.883184	 -0.872070

	symmetry c1
}
ee = energy('scf')
oeprop('DIPOLE', 'QUADRUPOLE', 'MULLIKEN_CHARGES')
f=open( 'psi4out.xyz', 'w' )
f.write( "9  " )
f.write( str(ee) + "\n" )
f.write( MOL.save_string_xyz() )
f.close()
--------------------------------------------------------------------------

  Memory set to   2.000 GiB by Python script.

*** tstart() called on cx1-3-15-2.cx1.hpc.ic.ac.uk
*** at Tue Jul  5 16:35:00 2016


         ---------------------------------------------------------
                                   SCF
            by Justin Turney, Rob Parrish, and Andy Simmonett
                              RHF Reference
                        1 Threads,   2000 MiB Core
         ---------------------------------------------------------

  ==> Geometry <==

    Molecular point group: c1
    Full point group: C1

    Geometry (in Angstrom), charge = 0, multiplicity = 1:

       Center              X                  Y                   Z               Mass       
    ------------   -----------------  -----------------  -----------------  -----------------
           H          1.361757961831    -0.555931240017     1.430227764165     1.007825032070
           C          0.420756961831    -0.645772240017     0.905107764165    12.000000000000
           O          0.390185961831     0.338268759983    -0.077806235835    15.994914619560
           H          0.352217961831    -1.643020240017     0.473263764165     1.007825032070
           H         -0.393371038169    -0.523034240017     1.617722764165     1.007825032070
           C         -0.775456038169     0.338268759983    -0.837195235835    12.000000000000
           H         -0.838486038169     1.221452759983    -1.470995235835     1.007825032070
           H         -1.612826038169     0.338268759983    -0.153005235835     1.007825032070
           H         -0.838486038169    -0.544915240017    -1.470995235835     1.007825032070

  Running in c1 symmetry.

  Rotational constants: A =      1.37576  B =      0.33760  C =      0.30154 [cm^-1]
  Rotational constants: A =  41244.25377  B =  10120.96543  C =   9040.03171 [MHz]
  Nuclear repulsion =   84.808229595346731

  Charge       = 0
  Multiplicity = 1
  Electrons    = 26
  Nalpha       = 13
  Nbeta        = 13

  ==> Algorithm <==

  SCF Algorithm Type is DF.
  DIIS enabled.
  MOM disabled.
  Fractional occupation disabled.
  Guess Type is CORE.
  Energy threshold   = 1.00e-06
  Density threshold  = 1.00e-06
  Integral threshold = 0.00e+00

  ==> Primary Basis <==

  Basis Set: 6-31G*
    Number of shells: 30
    Number of basis function: 57
    Number of Cartesian functions: 57
    Spherical Harmonics?: false
    Max angular momentum: 2

  ==> Pre-Iterations <==

   -------------------------------------------------------
    Irrep   Nso     Nmo     Nalpha   Nbeta   Ndocc  Nsocc
   -------------------------------------------------------
     A         57      57       0       0       0       0
   -------------------------------------------------------
    Total      57      57      13      13      13       0
   -------------------------------------------------------

 OEINTS: Overlap, kinetic, potential, dipole, and quadrupole integrals
         stored in file 35.

  ==> Integral Setup <==

  ==> DFJK: Density-Fitted J/K Matrices <==

    J tasked:                  Yes
    K tasked:                  Yes
    wK tasked:                  No
    OpenMP threads:              1
    Integrals threads:           1
    Memory (MB):              1430
    Algorithm:                Core
    Integral Cache:           NONE
    Schwarz Cutoff:          1E-12
    Fitting Condition:       1E-12

   => Auxiliary Basis Set <=

  Basis Set: 
    Number of shells: 126
    Number of basis function: 393
    Number of Cartesian functions: 393
    Spherical Harmonics?: false
    Max angular momentum: 3

  Minimum eigenvalue in the overlap matrix is 7.6529644081E-03.
  Using Symmetric Orthogonalization.
  SCF Guess: Core (One-Electron) Hamiltonian.

  ==> Iterations <==

                           Total Energy        Delta E     RMS |[F,P]|

   @DF-RHF iter   1:  -129.87741594789748   -1.29877e+02   9.38259e-02 
   @DF-RHF iter   2:  -129.94403957118698   -6.66236e-02   6.10522e-02 DIIS
   @DF-RHF iter   3:  -149.58922661228871   -1.96452e+01   5.55631e-02 DIIS
   @DF-RHF iter   4:  -152.18271783886985   -2.59349e+00   3.59650e-02 DIIS
   @DF-RHF iter   5:  -153.72828586317439   -1.54557e+00   1.53142e-02 DIIS
   @DF-RHF iter   6:  -154.04133124624633   -3.13045e-01   4.39638e-03 DIIS
   @DF-RHF iter   7:  -154.06268352137857   -2.13523e-02   4.22323e-04 DIIS
   @DF-RHF iter   8:  -154.06320294612487   -5.19425e-04   9.55119e-05 DIIS
   @DF-RHF iter   9:  -154.06322697868580   -2.40326e-05   1.74686e-05 DIIS
   @DF-RHF iter  10:  -154.06322812267820   -1.14399e-06   5.89192e-06 DIIS
   @DF-RHF iter  11:  -154.06322821262080   -8.99426e-08   1.48203e-06 DIIS
   @DF-RHF iter  12:  -154.06322822058132   -7.96052e-09   3.72067e-07 DIIS

  ==> Post-Iterations <==

    Orbital Energies (a.u.)
    -----------------------

    Doubly Occupied:                                                      

       1A    -20.555105     2A    -11.265945     3A    -11.265621  
       4A     -1.379184     5A     -0.974109     6A     -0.873928  
       7A     -0.663570     8A     -0.654717     9A     -0.642709  
      10A     -0.552457    11A     -0.532228    12A     -0.472461  
      13A     -0.416555  

    Virtual:                                                              

      14A      0.236215    15A      0.299393    16A      0.301193  
      17A      0.317899    18A      0.321542    19A      0.346667  
      20A      0.354503    21A      0.433071    22A      0.723954  
      23A      0.766133    24A      0.781675    25A      0.789307  
      26A      0.808638    27A      0.962469    28A      1.091579  
      29A      1.118913    30A      1.133047    31A      1.142818  
      32A      1.164486    33A      1.204396    34A      1.241987  
      35A      1.327381    36A      1.358744    37A      1.386739  
      38A      1.672900    39A      1.692638    40A      1.766988  
      41A      1.788202    42A      1.916462    43A      2.197137  
      44A      2.402878    45A      2.422639    46A      2.452671  
      47A      2.481729    48A      2.545288    49A      2.570000  
      50A      2.666036    51A      2.871645    52A      2.903707  
      53A      3.096648    54A      3.282163    55A      4.329569  
      56A      4.633517    57A      4.706797  

    Final Occupation by Irrep:
              A 
    DOCC [    13 ]

  Energy converged.

  @DF-RHF Final Energy:  -154.06322822058132

   => Energetics <=

    Nuclear Repulsion Energy =             84.8082295953467309
    One-Electron Energy =                -377.2458270660243898
    Two-Electron Energy =                 138.3743692500963505
    DFT Exchange-Correlation Energy =       0.0000000000000000
    Empirical Dispersion Energy =           0.0000000000000000
    PCM Polarization Energy =               0.0000000000000000
    EFP Energy =                            0.0000000000000000
    Total Energy =                       -154.0632282205812942

    Alert: EFP and PCM quantities not currently incorporated into SCF psivars.

Properties will be evaluated at   0.000000,   0.000000,   0.000000 Bohr
  ==> Properties <==


Properties computed using the SCF density matrix

  Nuclear Dipole Moment: (a.u.)
     X:    -1.8442      Y:    -1.5988      Z:     0.3992

  Electronic Dipole Moment: (a.u.)
     X:     1.4023      Y:     1.2246      Z:    -0.3084

  Dipole Moment: (a.u.)
     X:    -0.4419      Y:    -0.3742      Z:     0.0908     Total:     0.5861

  Dipole Moment: (Debye)
     X:    -1.1231      Y:    -0.9512      Z:     0.2309     Total:     1.4898


  Saving occupied orbitals to File 180.

*** tstop() called on cx1-3-15-2.cx1.hpc.ic.ac.uk at Tue Jul  5 16:35:03 2016
Module time:
	user time   =       1.89 seconds =       0.03 minutes
	system time =       0.03 seconds =       0.00 minutes
	total time  =          3 seconds =       0.05 minutes
Total time:
	user time   =       1.89 seconds =       0.03 minutes
	system time =       0.03 seconds =       0.00 minutes
	total time  =          3 seconds =       0.05 minutes


Properties will be evaluated at   0.000000,   0.000000,   0.000000 Bohr

Properties computed using the  density matrix

  Nuclear Dipole Moment: (a.u.)
     X:    -1.8442      Y:    -1.5988      Z:     0.3992

  Electronic Dipole Moment: (a.u.)
     X:     1.4023      Y:     1.2246      Z:    -0.3084

  Dipole Moment: (a.u.)
     X:    -0.4419      Y:    -0.3742      Z:     0.0908     Total:     0.5861

  Dipole Moment: (Debye)
     X:    -1.1231      Y:    -0.9512      Z:     0.2309     Total:     1.4898

  Quadrupole Moment: (Debye Ang)
    XX:   -19.7913     YY:   -19.8883     ZZ:   -18.3025
    XY:    -1.1810     XZ:     1.4108     YZ:    -0.9865

  Traceless Quadrupole Moment: (Debye Ang)
    XX:    -0.4639     YY:    -0.5610     ZZ:     1.0249
    XY:    -1.1810     XZ:     1.4108     YZ:    -0.9865

  Mulliken Charges: (a.u.)
   Center  Symbol    Alpha    Beta     Spin     Total
       1     H     0.41126  0.41126  0.00000  0.17748
       2     C     3.08041  3.08041  0.00000 -0.16083
       3     O     4.29602  4.29602  0.00000 -0.59205
       4     H     0.43019  0.43019  0.00000  0.13963
       5     H     0.43011  0.43011  0.00000  0.13978
       6     C     3.07936  3.07936  0.00000 -0.15871
       7     H     0.41226  0.41226  0.00000  0.17547
       8     H     0.43099  0.43099  0.00000  0.13801
       9     H     0.42939  0.42939  0.00000  0.14122

   Total alpha = 13.00000, Total beta = 13.00000, Total charge = -0.00000


*** PSI4 exiting successfully. Buy a developer a beer!
