    -----------------------------------------------------------------------
          Psi4: An Open-Source Ab Initio Electronic Structure Package
                              Psi4 (no tag) Driver

                          Git: Rev {detached?}  

    J. M. Turney, A. C. Simmonett, R. M. Parrish, E. G. Hohenstein,
    F. A. Evangelista, J. T. Fermann, B. J. Mintz, L. A. Burns, J. J. Wilke,
    M. L. Abrams, N. J. Russ, M. L. Leininger, C. L. Janssen, E. T. Seidl,
    W. D. Allen, H. F. Schaefer, R. A. King, E. F. Valeev, C. D. Sherrill,
    and T. D. Crawford, WIREs Comput. Mol. Sci. 2, 556-565 (2012)
    (doi: 10.1002/wcms.93)

                         Additional Contributions by
    A. E. DePrince, M. Saitow, U. Bozkaya, A. Yu. Sokolov
    -----------------------------------------------------------------------


    Psi4 started on: Tue Jul  5 16:54:22 2016

    Process ID:   4220
    PSI4DATADIR: /export131/home/mjharvey/miniconda3/share
    Memory level set to 256.000 MB

  ==> Input File <==

--------------------------------------------------------------------------
set {
	reference rhf
	basis 6-31G*
}


set_num_threads( 1 )
memory 2 gb

molecule MOL {
0 1

H	 1.256382	 1.796778	 2.940040
O	 1.869911	 1.708877	 2.223412
C	 1.291011	 1.128167	 1.153445
C	 2.081835	 0.936955	 0.024739
C	 -0.031307	 0.728692	 1.148428
H	 3.106642	 1.256016	 0.053530
C	 1.546918	 0.347837	 -1.102146
H	 -0.663394	 0.863765	 2.003851
C	 -0.536158	 0.140425	 0.000000
H	 2.164607	 0.204045	 -1.969119
C	 0.220734	 -0.062266	 -1.132068
N	 -1.935604	 -0.280333	 0.000000
H	 -0.208425	 -0.520681	 -1.998718
O	 -2.161694	 -1.452901	 0.000000
O	 -2.770341	 0.571417	 0.000000

	symmetry c1
}
set optking {
	frozen_dihedral = ("
		4 3 2 1
	")
}

ee = energy('scf')
oeprop('DIPOLE', 'QUADRUPOLE', 'MULLIKEN_CHARGES')
f=open( 'psi4out.xyz', 'w' )
f.write( "15  " )
f.write( str(ee) + "\n" )
f.write( MOL.save_string_xyz() )
f.close()
--------------------------------------------------------------------------

  Memory set to   2.000 GiB by Python script.

*** tstart() called on cx1-1-4-3.cx1.hpc.ic.ac.uk
*** at Tue Jul  5 16:54:23 2016


         ---------------------------------------------------------
                                   SCF
            by Justin Turney, Rob Parrish, and Andy Simmonett
                              RHF Reference
                        1 Threads,   2000 MiB Core
         ---------------------------------------------------------

  ==> Geometry <==

    Molecular point group: c1
    Full point group: C1

    Geometry (in Angstrom), charge = 0, multiplicity = 1:

       Center              X                  Y                   Z               Mass       
    ------------   -----------------  -----------------  -----------------  -----------------
           H          1.367916877650     1.425811279176     2.668799758276     1.007825032070
           O          1.981445877650     1.337910279176     1.952171758276    15.994914619560
           C          1.402545877650     0.757200279176     0.882204758276    12.000000000000
           C          2.193369877650     0.565988279176    -0.246501241724    12.000000000000
           C          0.080227877650     0.357725279176     0.877187758276    12.000000000000
           H          3.218176877650     0.885049279176    -0.217710241724     1.007825032070
           C          1.658452877650    -0.023129720824    -1.373386241724    12.000000000000
           H         -0.551859122350     0.492798279176     1.732610758276     1.007825032070
           C         -0.424623122350    -0.230541720824    -0.271240241724    12.000000000000
           H          2.276141877650    -0.166921720824    -2.240359241724     1.007825032070
           C          0.332268877650    -0.433232720824    -1.403308241724    12.000000000000
           N         -1.824069122350    -0.651299720824    -0.271240241724    14.003074004780
           H         -0.096890122350    -0.891647720824    -2.269958241724     1.007825032070
           O         -2.050159122350    -1.823867720824    -0.271240241724    15.994914619560
           O         -2.658806122350     0.200450279176    -0.271240241724    15.994914619560

  Running in c1 symmetry.

  Rotational constants: A =      0.09218  B =      0.03169  C =      0.02579 [cm^-1]
  Rotational constants: A =   2763.35303  B =    950.18146  C =    773.07960 [MHz]
  Nuclear repulsion =  501.970617578799761

  Charge       = 0
  Multiplicity = 1
  Electrons    = 72
  Nalpha       = 36
  Nbeta        = 36

  ==> Algorithm <==

  SCF Algorithm Type is DF.
  DIIS enabled.
  MOM disabled.
  Fractional occupation disabled.
  Guess Type is CORE.
  Energy threshold   = 1.00e-06
  Density threshold  = 1.00e-06
  Integral threshold = 0.00e+00

  ==> Primary Basis <==

  Basis Set: 6-31G*
    Number of shells: 70
    Number of basis function: 160
    Number of Cartesian functions: 160
    Spherical Harmonics?: false
    Max angular momentum: 2

  ==> Pre-Iterations <==

   -------------------------------------------------------
    Irrep   Nso     Nmo     Nalpha   Nbeta   Ndocc  Nsocc
   -------------------------------------------------------
     A        160     160       0       0       0       0
   -------------------------------------------------------
    Total     160     160      36      36      36       0
   -------------------------------------------------------

 OEINTS: Overlap, kinetic, potential, dipole, and quadrupole integrals
         stored in file 35.

  ==> Integral Setup <==

  ==> DFJK: Density-Fitted J/K Matrices <==

    J tasked:                  Yes
    K tasked:                  Yes
    wK tasked:                  No
    OpenMP threads:              1
    Integrals threads:           1
    Memory (MB):              1430
    Algorithm:                Core
    Integral Cache:           NONE
    Schwarz Cutoff:          1E-12
    Fitting Condition:       1E-12

   => Auxiliary Basis Set <=

  Basis Set: 
    Number of shells: 285
    Number of basis function: 935
    Number of Cartesian functions: 935
    Spherical Harmonics?: false
    Max angular momentum: 3

  Minimum eigenvalue in the overlap matrix is 4.1895616132E-04.
  Using Symmetric Orthogonalization.
  SCF Guess: Core (One-Electron) Hamiltonian.

  ==> Iterations <==

                           Total Energy        Delta E     RMS |[F,P]|

   @DF-RHF iter   1:  -421.52753804760619   -4.21528e+02   6.03783e-02 
   @DF-RHF iter   2:  -312.70587962959223    1.08822e+02   5.65578e-02 DIIS
   @DF-RHF iter   3:  -322.00839201898157   -9.30251e+00   7.26059e-02 DIIS
   @DF-RHF iter   4:  -494.18835113450666   -1.72180e+02   2.46658e-02 DIIS
   @DF-RHF iter   5:  -500.67369455548862   -6.48534e+00   2.25036e-02 DIIS
   @DF-RHF iter   6:  -508.16404556582313   -7.49035e+00   7.74084e-03 DIIS
   @DF-RHF iter   7:  -508.83563054532488   -6.71585e-01   3.23274e-03 DIIS
   @DF-RHF iter   8:  -508.96898986752558   -1.33359e-01   1.57647e-03 DIIS
   @DF-RHF iter   9:  -509.01338904430588   -4.43992e-02   4.92681e-04 DIIS
   @DF-RHF iter  10:  -509.01701049379028   -3.62145e-03   1.82613e-04 DIIS
   @DF-RHF iter  11:  -509.01771660158386   -7.06108e-04   8.65088e-05 DIIS
   @DF-RHF iter  12:  -509.01788225684743   -1.65655e-04   4.32175e-05 DIIS
   @DF-RHF iter  13:  -509.01794532720157   -6.30704e-05   1.67831e-05 DIIS
   @DF-RHF iter  14:  -509.01795669313174   -1.13659e-05   6.80384e-06 DIIS
   @DF-RHF iter  15:  -509.01795948315123   -2.79002e-06   3.14453e-06 DIIS
   @DF-RHF iter  16:  -509.01796008709960   -6.03948e-07   1.33619e-06 DIIS
   @DF-RHF iter  17:  -509.01796018102584   -9.39262e-08   4.16667e-07 DIIS

  ==> Post-Iterations <==

    Orbital Energies (a.u.)
    -----------------------

    Doubly Occupied:                                                      

       1A    -20.618211     2A    -20.609525     3A    -20.609022  
       4A    -15.859362     5A    -11.333832     6A    -11.318603  
       7A    -11.269691     8A    -11.269304     9A    -11.264278  
      10A    -11.255881    11A     -1.640597    12A     -1.438554  
      13A     -1.422366    14A     -1.202531    15A     -1.096562  
      16A     -1.049373    17A     -0.966905    18A     -0.884111  
      19A     -0.830580    20A     -0.788776    21A     -0.763003  
      22A     -0.733409    23A     -0.721347    24A     -0.710962  
      25A     -0.668427    26A     -0.636231    27A     -0.618083  
      28A     -0.593418    29A     -0.563742    30A     -0.549188  
      31A     -0.531041    32A     -0.489687    33A     -0.488037  
      34A     -0.453757    35A     -0.374338    36A     -0.344053  

    Virtual:                                                              

      37A      0.092697    38A      0.122423    39A      0.136427  
      40A      0.200886    41A      0.222125    42A      0.279840  
      43A      0.292990    44A      0.314706    45A      0.344935  
      46A      0.374025    47A      0.408013    48A      0.437857  
      49A      0.449358    50A      0.511125    51A      0.561244  
      52A      0.565643    53A      0.601152    54A      0.631425  
      55A      0.671504    56A      0.703991    57A      0.714665  
      58A      0.747038    59A      0.791684    60A      0.796957  
      61A      0.797571    62A      0.804890    63A      0.818050  
      64A      0.862593    65A      0.871784    66A      0.879647  
      67A      0.889513    68A      0.918106    69A      0.943576  
      70A      0.978667    71A      0.995393    72A      1.038787  
      73A      1.048734    74A      1.086276    75A      1.091767  
      76A      1.096601    77A      1.102386    78A      1.114277  
      79A      1.141949    80A      1.161602    81A      1.180639  
      82A      1.212703    83A      1.218201    84A      1.241611  
      85A      1.251702    86A      1.285668    87A      1.292654  
      88A      1.315624    89A      1.341731    90A      1.365863  
      91A      1.380613    92A      1.429923    93A      1.434472  
      94A      1.462772    95A      1.546787    96A      1.595159  
      97A      1.597768    98A      1.664402    99A      1.668116  
     100A      1.692698   101A      1.726426   102A      1.732605  
     103A      1.771267   104A      1.810361   105A      1.939253  
     106A      1.966102   107A      2.001211   108A      2.010760  
     109A      2.037206   110A      2.069303   111A      2.074878  
     112A      2.109592   113A      2.140838   114A      2.151921  
     115A      2.173569   116A      2.221549   117A      2.255744  
     118A      2.262932   119A      2.278937   120A      2.317200  
     121A      2.373381   122A      2.379003   123A      2.415039  
     124A      2.430078   125A      2.440866   126A      2.460282  
     127A      2.528515   128A      2.552297   129A      2.607868  
     130A      2.621662   131A      2.727984   132A      2.773850  
     133A      2.782935   134A      2.818886   135A      2.863740  
     136A      2.915275   137A      2.962939   138A      2.997208  
     139A      3.061157   140A      3.069568   141A      3.092318  
     142A      3.136566   143A      3.201216   144A      3.229872  
     145A      3.277118   146A      3.282315   147A      3.348574  
     148A      3.478375   149A      3.514670   150A      3.816273  
     151A      4.219392   152A      4.234479   153A      4.302649  
     154A      4.370442   155A      4.507308   156A      4.536273  
     157A      4.613179   158A      4.763134   159A      4.868867  
     160A      5.160958  

    Final Occupation by Irrep:
              A 
    DOCC [    36 ]

  Energy converged.

  @DF-RHF Final Energy:  -509.01796018102584

   => Energetics <=

    Nuclear Repulsion Energy =            501.9706175787997608
    One-Electron Energy =               -1690.0434945891161078
    Two-Electron Energy =                 679.0549168292910736
    DFT Exchange-Correlation Energy =       0.0000000000000000
    Empirical Dispersion Energy =           0.0000000000000000
    PCM Polarization Energy =               0.0000000000000000
    EFP Energy =                            0.0000000000000000
    Total Energy =                       -509.0179601810253871

    Alert: EFP and PCM quantities not currently incorporated into SCF psivars.

Properties will be evaluated at   0.000000,   0.000000,   0.000000 Bohr
  ==> Properties <==


Properties computed using the SCF density matrix

  Nuclear Dipole Moment: (a.u.)
     X:     5.8171      Y:     1.6365      Z:    -0.2986

  Electronic Dipole Moment: (a.u.)
     X:    -4.5331      Y:    -1.1631      Z:     0.5269

  Dipole Moment: (a.u.)
     X:     1.2841      Y:     0.4734      Z:     0.2283     Total:     1.3875

  Dipole Moment: (Debye)
     X:     3.2638      Y:     1.2032      Z:     0.5802     Total:     3.5266


  Saving occupied orbitals to File 180.

*** tstop() called on cx1-1-4-3.cx1.hpc.ic.ac.uk at Tue Jul  5 16:54:44 2016
Module time:
	user time   =      20.50 seconds =       0.34 minutes
	system time =       0.23 seconds =       0.00 minutes
	total time  =         21 seconds =       0.35 minutes
Total time:
	user time   =      20.50 seconds =       0.34 minutes
	system time =       0.23 seconds =       0.00 minutes
	total time  =         21 seconds =       0.35 minutes


Properties will be evaluated at   0.000000,   0.000000,   0.000000 Bohr

Properties computed using the  density matrix

  Nuclear Dipole Moment: (a.u.)
     X:     5.8171      Y:     1.6365      Z:    -0.2986

  Electronic Dipole Moment: (a.u.)
     X:    -4.5331      Y:    -1.1631      Z:     0.5269

  Dipole Moment: (a.u.)
     X:     1.2841      Y:     0.4734      Z:     0.2283     Total:     1.3875

  Dipole Moment: (Debye)
     X:     3.2638      Y:     1.2032      Z:     0.5802     Total:     3.5266

  Quadrupole Moment: (Debye Ang)
    XX:   -66.7291     YY:   -62.7963     ZZ:   -45.1410
    XY:    -2.9812     XZ:    -5.0353     YZ:     3.3897

  Traceless Quadrupole Moment: (Debye Ang)
    XX:    -8.5070     YY:    -4.5742     ZZ:    13.0811
    XY:    -2.9812     XZ:    -5.0353     YZ:     3.3897

  Mulliken Charges: (a.u.)
   Center  Symbol    Alpha    Beta     Spin     Total
       1     H     0.26747  0.26747  0.00000  0.46506
       2     O     4.37447  4.37447  0.00000 -0.74894
       3     C     2.79068  2.79068  0.00000  0.41863
       4     C     3.11539  3.11539  0.00000 -0.23078
       5     C     3.13384  3.13384  0.00000 -0.26768
       6     H     0.38202  0.38202  0.00000  0.23595
       7     C     3.09569  3.09569  0.00000 -0.19137
       8     H     0.38085  0.38085  0.00000  0.23830
       9     C     2.88816  2.88816  0.00000  0.22369
      10     H     0.38628  0.38628  0.00000  0.22743
      11     C     3.10015  3.10015  0.00000 -0.20031
      12     N     3.26115  3.26115  0.00000  0.47771
      13     H     0.37715  0.37715  0.00000  0.24571
      14     O     4.22320  4.22320  0.00000 -0.44640
      15     O     4.22350  4.22350  0.00000 -0.44701

   Total alpha = 36.00000, Total beta = 36.00000, Total charge =  0.00000


*** PSI4 exiting successfully. Buy a developer a beer!
