    -----------------------------------------------------------------------
          Psi4: An Open-Source Ab Initio Electronic Structure Package
                              Psi4 (no tag) Driver

                          Git: Rev {detached?}  

    J. M. Turney, A. C. Simmonett, R. M. Parrish, E. G. Hohenstein,
    F. A. Evangelista, J. T. Fermann, B. J. Mintz, L. A. Burns, J. J. Wilke,
    M. L. Abrams, N. J. Russ, M. L. Leininger, C. L. Janssen, E. T. Seidl,
    W. D. Allen, H. F. Schaefer, R. A. King, E. F. Valeev, C. D. Sherrill,
    and T. D. Crawford, WIREs Comput. Mol. Sci. 2, 556-565 (2012)
    (doi: 10.1002/wcms.93)

                         Additional Contributions by
    A. E. DePrince, M. Saitow, U. Bozkaya, A. Yu. Sokolov
    -----------------------------------------------------------------------


    Psi4 started on: Tue Jul  5 16:40:54 2016

    Process ID:  26321
    PSI4DATADIR: /export131/home/mjharvey/miniconda3/share
    Memory level set to 256.000 MB

  ==> Input File <==

--------------------------------------------------------------------------
set {
	reference rhf
	basis 6-31G*
}


set_num_threads( 1 )
memory 2 gb

molecule MOL {
0 1

O	 -1.276010	 1.052711	 -0.768302
C	 -1.204840	 0.067374	 -0.106123
C	 -2.388195	 -0.672128	 0.458071
O	 -0.067104	 -0.527208	 0.221609
H	 -2.388023	 -1.694060	 0.097175
H	 -3.300579	 -0.174919	 0.164318
H	 -2.315377	 -0.706351	 1.539059
C	 1.050447	 -0.434088	 -0.673006
C	 1.227333	 1.045134	 -0.966610
C	 0.780174	 -1.260761	 -1.920488
H	 1.919056	 -0.820003	 -0.160078
H	 1.401567	 1.599049	 -0.051150
H	 2.075886	 1.196510	 -1.625682
H	 0.342923	 1.449044	 -1.447576
H	 1.612542	 -1.175987	 -2.611859
H	 0.655584	 -2.306259	 -1.668721
H	 -0.116858	 -0.909983	 -2.420783

	symmetry c1
}
set optking {
	frozen_dihedral = ("
		11 8 4 2
	")
}

ee = energy('scf')
oeprop('DIPOLE', 'QUADRUPOLE', 'MULLIKEN_CHARGES')
f=open( 'psi4out.xyz', 'w' )
f.write( "17  " )
f.write( str(ee) + "\n" )
f.write( MOL.save_string_xyz() )
f.close()
--------------------------------------------------------------------------

  Memory set to   2.000 GiB by Python script.

*** tstart() called on cx1-1-3-4.cx1.hpc.ic.ac.uk
*** at Tue Jul  5 16:40:54 2016


         ---------------------------------------------------------
                                   SCF
            by Justin Turney, Rob Parrish, and Andy Simmonett
                              RHF Reference
                        1 Threads,   2000 MiB Core
         ---------------------------------------------------------

  ==> Geometry <==

    Molecular point group: c1
    Full point group: C1

    Geometry (in Angstrom), charge = 0, multiplicity = 1:

       Center              X                  Y                   Z               Mass       
    ------------   -----------------  -----------------  -----------------  -----------------
           O         -1.001505656556     1.152829814761    -0.224630292754    15.994914619560
           C         -0.930335656556     0.167492814761     0.437548707246    12.000000000000
           C         -2.113690656556    -0.572009185239     1.001742707246    12.000000000000
           O          0.207400343444    -0.427089185239     0.765280707246    15.994914619560
           H         -2.113518656556    -1.593941185239     0.640846707246     1.007825032070
           H         -3.026074656556    -0.074800185239     0.707989707246     1.007825032070
           H         -2.040872656556    -0.606232185239     2.082730707246     1.007825032070
           C          1.324951343444    -0.333969185239    -0.129334292754    12.000000000000
           C          1.501837343444     1.145252814761    -0.422938292754    12.000000000000
           C          1.054678343444    -1.160642185239    -1.376816292754    12.000000000000
           H          2.193560343444    -0.719884185239     0.383593707246     1.007825032070
           H          1.676071343444     1.699167814761     0.492521707246     1.007825032070
           H          2.350390343444     1.296628814761    -1.082010292754     1.007825032070
           H          0.617427343444     1.549162814761    -0.903904292754     1.007825032070
           H          1.887046343444    -1.075868185239    -2.068187292754     1.007825032070
           H          0.930088343444    -2.206140185239    -1.125049292754     1.007825032070
           H          0.157646343444    -0.809864185239    -1.877111292754     1.007825032070

  Running in c1 symmetry.

  Rotational constants: A =      0.14673  B =      0.06889  C =      0.05862 [cm^-1]
  Rotational constants: A =   4398.80971  B =   2065.36195  C =   1757.30955 [MHz]
  Nuclear repulsion =  332.407654256002445

  Charge       = 0
  Multiplicity = 1
  Electrons    = 56
  Nalpha       = 28
  Nbeta        = 28

  ==> Algorithm <==

  SCF Algorithm Type is DF.
  DIIS enabled.
  MOM disabled.
  Fractional occupation disabled.
  Guess Type is CORE.
  Energy threshold   = 1.00e-06
  Density threshold  = 1.00e-06
  Integral threshold = 0.00e+00

  ==> Primary Basis <==

  Basis Set: 6-31G*
    Number of shells: 62
    Number of basis function: 125
    Number of Cartesian functions: 125
    Spherical Harmonics?: false
    Max angular momentum: 2

  ==> Pre-Iterations <==

   -------------------------------------------------------
    Irrep   Nso     Nmo     Nalpha   Nbeta   Ndocc  Nsocc
   -------------------------------------------------------
     A        125     125       0       0       0       0
   -------------------------------------------------------
    Total     125     125      28      28      28       0
   -------------------------------------------------------

 OEINTS: Overlap, kinetic, potential, dipole, and quadrupole integrals
         stored in file 35.

  ==> Integral Setup <==

  ==> DFJK: Density-Fitted J/K Matrices <==

    J tasked:                  Yes
    K tasked:                  Yes
    wK tasked:                  No
    OpenMP threads:              1
    Integrals threads:           1
    Memory (MB):              1430
    Algorithm:                Core
    Integral Cache:           NONE
    Schwarz Cutoff:          1E-12
    Fitting Condition:       1E-12

   => Auxiliary Basis Set <=

  Basis Set: 
    Number of shells: 258
    Number of basis function: 817
    Number of Cartesian functions: 817
    Spherical Harmonics?: false
    Max angular momentum: 3

  Minimum eigenvalue in the overlap matrix is 3.6668411841E-03.
  Using Symmetric Orthogonalization.
  SCF Guess: Core (One-Electron) Hamiltonian.

  ==> Iterations <==

                           Total Energy        Delta E     RMS |[F,P]|

   @DF-RHF iter   1:  -252.06029850553267   -2.52060e+02   7.96092e-02 
   @DF-RHF iter   2:  -261.02064883222414   -8.96035e+00   5.49235e-02 DIIS
   @DF-RHF iter   3:  -302.88896181733190   -4.18683e+01   5.74439e-02 DIIS
   @DF-RHF iter   4:  -337.69032802384464   -3.48014e+01   2.73266e-02 DIIS
   @DF-RHF iter   5:  -341.77275298025023   -4.08242e+00   1.59237e-02 DIIS
   @DF-RHF iter   6:  -344.54654975900854   -2.77380e+00   6.38272e-03 DIIS
   @DF-RHF iter   7:  -344.86772145961055   -3.21172e-01   1.33637e-03 DIIS
   @DF-RHF iter   8:  -344.88221462410348   -1.44932e-02   5.94302e-04 DIIS
   @DF-RHF iter   9:  -344.88486062117641   -2.64600e-03   1.96877e-04 DIIS
   @DF-RHF iter  10:  -344.88518565104249   -3.25030e-04   6.67428e-05 DIIS
   @DF-RHF iter  11:  -344.88523538408157   -4.97330e-05   2.34841e-05 DIIS
   @DF-RHF iter  12:  -344.88524135841720   -5.97434e-06   8.50573e-06 DIIS
   @DF-RHF iter  13:  -344.88524209784720   -7.39430e-07   2.33737e-06 DIIS
   @DF-RHF iter  14:  -344.88524217277524   -7.49280e-08   5.77400e-07 DIIS

  ==> Post-Iterations <==

    Orbital Energies (a.u.)
    -----------------------

    Doubly Occupied:                                                      

       1A    -20.594442     2A    -20.544065     3A    -11.379800  
       4A    -11.292564     5A    -11.233747     6A    -11.221087  
       7A    -11.190165     8A     -1.468916     9A     -1.366347  
      10A     -1.075218    11A     -1.005702    12A     -0.941087  
      13A     -0.861949    14A     -0.744295    15A     -0.700691  
      16A     -0.672806    17A     -0.668874    18A     -0.609824  
      19A     -0.587900    20A     -0.579192    21A     -0.571649  
      22A     -0.542790    23A     -0.533953    24A     -0.522883  
      25A     -0.504931    26A     -0.477494    27A     -0.443248  
      28A     -0.410614  

    Virtual:                                                              

      29A      0.188670    30A      0.232488    31A      0.262576  
      32A      0.285428    33A      0.295138    34A      0.310402  
      35A      0.315412    36A      0.325426    37A      0.327789  
      38A      0.353165    39A      0.361262    40A      0.369938  
      41A      0.402250    42A      0.426901    43A      0.464372  
      44A      0.511384    45A      0.567601    46A      0.696096  
      47A      0.713234    48A      0.726673    49A      0.749686  
      50A      0.784503    51A      0.791109    52A      0.814944  
      53A      0.836599    54A      0.890501    55A      0.913132  
      56A      0.940147    57A      0.955430    58A      0.969175  
      59A      0.997608    60A      1.057261    61A      1.088583  
      62A      1.121645    63A      1.137581    64A      1.158982  
      65A      1.171085    66A      1.174654    67A      1.187966  
      68A      1.198219    69A      1.213428    70A      1.226150  
      71A      1.237083    72A      1.278660    73A      1.297281  
      74A      1.310350    75A      1.358286    76A      1.427582  
      77A      1.456827    78A      1.524467    79A      1.614990  
      80A      1.636248    81A      1.699987    82A      1.735529  
      83A      1.774651    84A      1.843512    85A      1.881881  
      86A      1.927238    87A      1.977025    88A      2.033644  
      89A      2.061081    90A      2.102891    91A      2.127382  
      92A      2.135161    93A      2.208629    94A      2.212766  
      95A      2.229109    96A      2.317386    97A      2.333507  
      98A      2.373336    99A      2.413506   100A      2.452270  
     101A      2.532439   102A      2.551015   103A      2.569734  
     104A      2.596071   105A      2.607440   106A      2.649437  
     107A      2.741222   108A      2.755654   109A      2.816993  
     110A      2.866532   111A      2.877607   112A      2.978011  
     113A      3.060261   114A      3.160449   115A      3.184780  
     116A      3.369856   117A      3.408270   118A      3.547881  
     119A      4.460642   120A      4.530716   121A      4.626100  
     122A      4.666232   123A      4.767920   124A      4.868467  
     125A      4.992830  

    Final Occupation by Irrep:
              A 
    DOCC [    28 ]

  Energy converged.

  @DF-RHF Final Energy:  -344.88524217277524

   => Energetics <=

    Nuclear Repulsion Energy =            332.4076542560024450
    One-Electron Energy =               -1129.0932059225247031
    Two-Electron Energy =                 451.8003094937466813
    DFT Exchange-Correlation Energy =       0.0000000000000000
    Empirical Dispersion Energy =           0.0000000000000000
    PCM Polarization Energy =               0.0000000000000000
    EFP Energy =                            0.0000000000000000
    Total Energy =                       -344.8852421727756337

    Alert: EFP and PCM quantities not currently incorporated into SCF psivars.

Properties will be evaluated at   0.000000,   0.000000,   0.000000 Bohr
  ==> Properties <==


Properties computed using the SCF density matrix

  Nuclear Dipole Moment: (a.u.)
     X:     2.4634      Y:    -2.3793      Z:    -2.5741

  Electronic Dipole Moment: (a.u.)
     X:    -2.3363      Y:     1.5566      Z:     2.6826

  Dipole Moment: (a.u.)
     X:     0.1271      Y:    -0.8228      Z:     0.1085     Total:     0.8396

  Dipole Moment: (Debye)
     X:     0.3230      Y:    -2.0913      Z:     0.2757     Total:     2.1340


  Saving occupied orbitals to File 180.

*** tstop() called on cx1-1-3-4.cx1.hpc.ic.ac.uk at Tue Jul  5 16:41:07 2016
Module time:
	user time   =      12.24 seconds =       0.20 minutes
	system time =       0.05 seconds =       0.00 minutes
	total time  =         13 seconds =       0.22 minutes
Total time:
	user time   =      12.24 seconds =       0.20 minutes
	system time =       0.05 seconds =       0.00 minutes
	total time  =         13 seconds =       0.22 minutes


Properties will be evaluated at   0.000000,   0.000000,   0.000000 Bohr

Properties computed using the  density matrix

  Nuclear Dipole Moment: (a.u.)
     X:     2.4634      Y:    -2.3793      Z:    -2.5741

  Electronic Dipole Moment: (a.u.)
     X:    -2.3363      Y:     1.5566      Z:     2.6826

  Dipole Moment: (a.u.)
     X:     0.1271      Y:    -0.8228      Z:     0.1085     Total:     0.8396

  Dipole Moment: (Debye)
     X:     0.3230      Y:    -2.0913      Z:     0.2757     Total:     2.1340

  Quadrupole Moment: (Debye Ang)
    XX:   -40.0181     YY:   -46.0614     ZZ:   -42.9559
    XY:     2.0246     XZ:    -2.7856     YZ:     1.6792

  Traceless Quadrupole Moment: (Debye Ang)
    XX:     2.9937     YY:    -3.0496     ZZ:     0.0559
    XY:     2.0246     XZ:    -2.7856     YZ:     1.6792

  Mulliken Charges: (a.u.)
   Center  Symbol    Alpha    Beta     Spin     Total
       1     O     4.28502  4.28502  0.00000 -0.57004
       2     C     2.61200  2.61200  0.00000  0.77600
       3     C     3.28084  3.28084  0.00000 -0.56168
       4     O     4.31654  4.31654  0.00000 -0.63308
       5     H     0.40201  0.40201  0.00000  0.19597
       6     H     0.39823  0.39823  0.00000  0.20354
       7     H     0.39909  0.39909  0.00000  0.20182
       8     C     2.92847  2.92847  0.00000  0.14306
       9     C     3.26267  3.26267  0.00000 -0.52533
      10     C     3.25264  3.25264  0.00000 -0.50527
      11     H     0.40653  0.40653  0.00000  0.18694
      12     H     0.41765  0.41765  0.00000  0.16471
      13     H     0.42984  0.42984  0.00000  0.14033
      14     H     0.37055  0.37055  0.00000  0.25891
      15     H     0.41376  0.41376  0.00000  0.17249
      16     H     0.41339  0.41339  0.00000  0.17322
      17     H     0.41079  0.41079  0.00000  0.17842

   Total alpha = 28.00000, Total beta = 28.00000, Total charge =  0.00000


*** PSI4 exiting successfully. Buy a developer a beer!
