    -----------------------------------------------------------------------
          Psi4: An Open-Source Ab Initio Electronic Structure Package
                              Psi4 (no tag) Driver

                          Git: Rev {detached?}  

    J. M. Turney, A. C. Simmonett, R. M. Parrish, E. G. Hohenstein,
    F. A. Evangelista, J. T. Fermann, B. J. Mintz, L. A. Burns, J. J. Wilke,
    M. L. Abrams, N. J. Russ, M. L. Leininger, C. L. Janssen, E. T. Seidl,
    W. D. Allen, H. F. Schaefer, R. A. King, E. F. Valeev, C. D. Sherrill,
    and T. D. Crawford, WIREs Comput. Mol. Sci. 2, 556-565 (2012)
    (doi: 10.1002/wcms.93)

                         Additional Contributions by
    A. E. DePrince, M. Saitow, U. Bozkaya, A. Yu. Sokolov
    -----------------------------------------------------------------------


    Psi4 started on: Tue Jul  5 16:21:15 2016

    Process ID:  25317
    PSI4DATADIR: /export131/home/mjharvey/miniconda3/share
    Memory level set to 256.000 MB

  ==> Input File <==

--------------------------------------------------------------------------
set {
	reference rhf
	basis 6-31G*
}


set_num_threads( 1 )
memory 2 gb

molecule MOL {
0 1

H	 -0.367348	 2.047014	 -0.308205
C	 0.352277	 1.337084	 0.083769
N	 -0.000016	 0.000074	 -0.335546
H	 1.328359	 1.600444	 -0.307950
H	 0.381933	 1.450534	 1.172486
C	 -0.470285	 -0.805547	 0.768126
C	 -0.936887	 0.008290	 -1.435710
H	 -0.656509	 -1.818828	 0.430582
H	 0.286946	 -0.845754	 1.543011
H	 -1.393198	 -0.422092	 1.215425
H	 -0.520312	 0.561954	 -2.269554
H	 -1.122339	 -1.006732	 -1.768541
H	 -1.899249	 0.461029	 -1.175301

	symmetry c1
}
ee = energy('scf')
oeprop('DIPOLE', 'QUADRUPOLE', 'MULLIKEN_CHARGES')
f=open( 'psi4out.xyz', 'w' )
f.write( "13  " )
f.write( str(ee) + "\n" )
f.write( MOL.save_string_xyz() )
f.close()
--------------------------------------------------------------------------

  Memory set to   2.000 GiB by Python script.

*** tstart() called on cx1-3-1-3.cx1.hpc.ic.ac.uk
*** at Tue Jul  5 16:21:15 2016


         ---------------------------------------------------------
                                   SCF
            by Justin Turney, Rob Parrish, and Andy Simmonett
                              RHF Reference
                        1 Threads,   2000 MiB Core
         ---------------------------------------------------------

  ==> Geometry <==

    Molecular point group: c1
    Full point group: C1

    Geometry (in Angstrom), charge = 0, multiplicity = 1:

       Center              X                  Y                   Z               Mass       
    ------------   -----------------  -----------------  -----------------  -----------------
           H         -0.085467261413     1.902746348314    -0.085025568570     1.007825032070
           C          0.634157738587     1.192816348314     0.306948431430    12.000000000000
           N          0.281864738587    -0.144193651686    -0.112366568570    14.003074004780
           H          1.610239738587     1.456176348314    -0.084770568570     1.007825032070
           H          0.663813738587     1.306266348314     1.395665431430     1.007825032070
           C         -0.188404261413    -0.949814651686     0.991305431430    12.000000000000
           C         -0.655006261413    -0.135977651686    -1.212530568570    12.000000000000
           H         -0.374628261413    -1.963095651686     0.653761431430     1.007825032070
           H          0.568826738587    -0.990021651686     1.766190431430     1.007825032070
           H         -1.111317261413    -0.566359651686     1.438604431430     1.007825032070
           H         -0.238431261413     0.417686348314    -2.046374568570     1.007825032070
           H         -0.840458261413    -1.150999651686    -1.545361568570     1.007825032070
           H         -1.617368261413     0.316761348314    -0.952121568570     1.007825032070

  Running in c1 symmetry.

  Rotational constants: A =      0.29359  B =      0.29343  C =      0.16557 [cm^-1]
  Rotational constants: A =   8801.72166  B =   8796.94450  C =   4963.67123 [MHz]
  Nuclear repulsion =  139.337419500448902

  Charge       = 0
  Multiplicity = 1
  Electrons    = 34
  Nalpha       = 17
  Nbeta        = 17

  ==> Algorithm <==

  SCF Algorithm Type is DF.
  DIIS enabled.
  MOM disabled.
  Fractional occupation disabled.
  Guess Type is CORE.
  Energy threshold   = 1.00e-06
  Density threshold  = 1.00e-06
  Integral threshold = 0.00e+00

  ==> Primary Basis <==

  Basis Set: 6-31G*
    Number of shells: 42
    Number of basis function: 78
    Number of Cartesian functions: 78
    Spherical Harmonics?: false
    Max angular momentum: 2

  ==> Pre-Iterations <==

   -------------------------------------------------------
    Irrep   Nso     Nmo     Nalpha   Nbeta   Ndocc  Nsocc
   -------------------------------------------------------
     A         78      78       0       0       0       0
   -------------------------------------------------------
    Total      78      78      17      17      17       0
   -------------------------------------------------------

 OEINTS: Overlap, kinetic, potential, dipole, and quadrupole integrals
         stored in file 35.

  ==> Integral Setup <==

  ==> DFJK: Density-Fitted J/K Matrices <==

    J tasked:                  Yes
    K tasked:                  Yes
    wK tasked:                  No
    OpenMP threads:              1
    Integrals threads:           1
    Memory (MB):              1430
    Algorithm:                Core
    Integral Cache:           NONE
    Schwarz Cutoff:          1E-12
    Fitting Condition:       1E-12

   => Auxiliary Basis Set <=

  Basis Set: 
    Number of shells: 177
    Number of basis function: 549
    Number of Cartesian functions: 549
    Spherical Harmonics?: false
    Max angular momentum: 3

  Minimum eigenvalue in the overlap matrix is 6.1121771495E-03.
  Using Symmetric Orthogonalization.
  SCF Guess: Core (One-Electron) Hamiltonian.

  ==> Iterations <==

                           Total Energy        Delta E     RMS |[F,P]|

   @DF-RHF iter   1:  -136.62694242827746   -1.36627e+02   8.44310e-02 
   @DF-RHF iter   2:  -146.71532048445152   -1.00884e+01   5.28105e-02 DIIS
   @DF-RHF iter   3:  -169.41766858618604   -2.27023e+01   3.70989e-02 DIIS
   @DF-RHF iter   4:  -172.17449385054653   -2.75683e+00   1.92255e-02 DIIS
   @DF-RHF iter   5:  -173.22397180572347   -1.04948e+00   3.36716e-03 DIIS
   @DF-RHF iter   6:  -173.26000408266685   -3.60323e-02   9.36013e-04 DIIS
   @DF-RHF iter   7:  -173.26224277362564   -2.23869e-03   1.03983e-04 DIIS
   @DF-RHF iter   8:  -173.26230825392605   -6.54803e-05   3.92731e-05 DIIS
   @DF-RHF iter   9:  -173.26231490554909   -6.65162e-06   8.02910e-06 DIIS
   @DF-RHF iter  10:  -173.26231535381231   -4.48263e-07   2.07746e-06 DIIS
   @DF-RHF iter  11:  -173.26231537659140   -2.27791e-08   6.75251e-07 DIIS

  ==> Post-Iterations <==

    Orbital Energies (a.u.)
    -----------------------

    Doubly Occupied:                                                      

       1A    -15.540159     2A    -11.235950     3A    -11.235087  
       4A    -11.234254     5A     -1.224421     6A     -0.951574  
       7A     -0.950584     8A     -0.806735     9A     -0.640196  
      10A     -0.628982    11A     -0.628038    12A     -0.550598  
      13A     -0.547539    14A     -0.514257    15A     -0.500734  
      16A     -0.496519    17A     -0.342848  

    Virtual:                                                              

      18A      0.228219    19A      0.295401    20A      0.302377  
      21A      0.303156    22A      0.309971    23A      0.318645  
      24A      0.336726    25A      0.342655    26A      0.356481  
      27A      0.367826    28A      0.435445    29A      0.465648  
      30A      0.722687    31A      0.754537    32A      0.764144  
      33A      0.787552    34A      0.820717    35A      0.857923  
      36A      0.909836    37A      0.927158    38A      1.003460  
      39A      1.095341    40A      1.106919    41A      1.133603  
      42A      1.145887    43A      1.154834    44A      1.157703  
      45A      1.188631    46A      1.206992    47A      1.245867  
      48A      1.260711    49A      1.263010    50A      1.279382  
      51A      1.293012    52A      1.588882    53A      1.620096  
      54A      1.644317    55A      1.737708    56A      1.750178  
      57A      2.084392    58A      2.207497    59A      2.249024  
      60A      2.285785    61A      2.349100    62A      2.356533  
      63A      2.454308    64A      2.468601    65A      2.485142  
      66A      2.568672    67A      2.598709    68A      2.614634  
      69A      2.646941    70A      2.882285    71A      2.955837  
      72A      2.966492    73A      3.153235    74A      3.175892  
      75A      4.478185    76A      4.667567    77A      4.686822  
      78A      4.794510  

    Final Occupation by Irrep:
              A 
    DOCC [    17 ]

  Energy converged.

  @DF-RHF Final Energy:  -173.26231537659140

   => Energetics <=

    Nuclear Repulsion Energy =            139.3374195004489025
    One-Electron Energy =                -509.1426596748305542
    Two-Electron Energy =                 196.5429247977901639
    DFT Exchange-Correlation Energy =       0.0000000000000000
    Empirical Dispersion Energy =           0.0000000000000000
    PCM Polarization Energy =               0.0000000000000000
    EFP Energy =                            0.0000000000000000
    Total Energy =                       -173.2623153765914878

    Alert: EFP and PCM quantities not currently incorporated into SCF psivars.

Properties will be evaluated at   0.000000,   0.000000,   0.000000 Bohr
  ==> Properties <==


Properties computed using the SCF density matrix

  Nuclear Dipole Moment: (a.u.)
     X:    -1.3365      Y:     0.6840      Z:     0.5071

  Electronic Dipole Moment: (a.u.)
     X:     1.0587      Y:    -0.5289      Z:    -0.3800

  Dipole Moment: (a.u.)
     X:    -0.2778      Y:     0.1550      Z:     0.1271     Total:     0.3426

  Dipole Moment: (Debye)
     X:    -0.7061      Y:     0.3941      Z:     0.3231     Total:     0.8708


  Saving occupied orbitals to File 180.

*** tstop() called on cx1-3-1-3.cx1.hpc.ic.ac.uk at Tue Jul  5 16:21:18 2016
Module time:
	user time   =       3.11 seconds =       0.05 minutes
	system time =       0.02 seconds =       0.00 minutes
	total time  =          3 seconds =       0.05 minutes
Total time:
	user time   =       3.11 seconds =       0.05 minutes
	system time =       0.02 seconds =       0.00 minutes
	total time  =          3 seconds =       0.05 minutes


Properties will be evaluated at   0.000000,   0.000000,   0.000000 Bohr

Properties computed using the  density matrix

  Nuclear Dipole Moment: (a.u.)
     X:    -1.3365      Y:     0.6840      Z:     0.5071

  Electronic Dipole Moment: (a.u.)
     X:     1.0587      Y:    -0.5289      Z:    -0.3800

  Dipole Moment: (a.u.)
     X:    -0.2778      Y:     0.1550      Z:     0.1271     Total:     0.3426

  Dipole Moment: (Debye)
     X:    -0.7061      Y:     0.3941      Z:     0.3231     Total:     0.8708

  Quadrupole Moment: (Debye Ang)
    XX:   -28.6535     YY:   -26.8491     ZZ:   -26.4801
    XY:     1.0586     XZ:     0.9360     YZ:    -0.2589

  Traceless Quadrupole Moment: (Debye Ang)
    XX:    -1.3260     YY:     0.4785     ZZ:     0.8474
    XY:     1.0586     XZ:     0.9360     YZ:    -0.2589

  Mulliken Charges: (a.u.)
   Center  Symbol    Alpha    Beta     Spin     Total
       1     H     0.42653  0.42653  0.00000  0.14694
       2     C     3.14587  3.14587  0.00000 -0.29174
       3     N     3.76536  3.76536  0.00000 -0.53073
       4     H     0.41521  0.41521  0.00000  0.16958
       5     H     0.42077  0.42077  0.00000  0.15846
       6     C     3.14352  3.14352  0.00000 -0.28704
       7     C     3.14476  3.14476  0.00000 -0.28952
       8     H     0.41814  0.41814  0.00000  0.16372
       9     H     0.41618  0.41618  0.00000  0.16763
      10     H     0.43592  0.43592  0.00000  0.12815
      11     H     0.41570  0.41570  0.00000  0.16860
      12     H     0.41702  0.41702  0.00000  0.16596
      13     H     0.43501  0.43501  0.00000  0.12998

   Total alpha = 17.00000, Total beta = 17.00000, Total charge = -0.00000


*** PSI4 exiting successfully. Buy a developer a beer!
