    -----------------------------------------------------------------------
          Psi4: An Open-Source Ab Initio Electronic Structure Package
                              Psi4 (no tag) Driver

                          Git: Rev {detached?}  

    J. M. Turney, A. C. Simmonett, R. M. Parrish, E. G. Hohenstein,
    F. A. Evangelista, J. T. Fermann, B. J. Mintz, L. A. Burns, J. J. Wilke,
    M. L. Abrams, N. J. Russ, M. L. Leininger, C. L. Janssen, E. T. Seidl,
    W. D. Allen, H. F. Schaefer, R. A. King, E. F. Valeev, C. D. Sherrill,
    and T. D. Crawford, WIREs Comput. Mol. Sci. 2, 556-565 (2012)
    (doi: 10.1002/wcms.93)

                         Additional Contributions by
    A. E. DePrince, M. Saitow, U. Bozkaya, A. Yu. Sokolov
    -----------------------------------------------------------------------


    Psi4 started on: Tue Jul  5 16:27:47 2016

    Process ID:  23358
    PSI4DATADIR: /export131/home/mjharvey/miniconda3/share
    Memory level set to 256.000 MB

  ==> Input File <==

--------------------------------------------------------------------------
set {
	reference rhf
	basis 6-31G*
}


set_num_threads( 1 )
memory 2 gb

molecule MOL {
0 1

H	 2.581689	 0.613737	 0.260126
O	 2.064459	 -0.086912	 -0.111827
C	 0.745630	 0.005118	 0.354752
H	 0.739005	 0.037656	 1.444976
C	 -0.064159	 -1.194875	 -0.122754
C	 -0.046302	 1.193543	 -0.190431
H	 0.197384	 -1.376065	 -1.160690
H	 0.162855	 -2.097978	 0.431858
C	 -1.535782	 -0.752177	 0.006642
H	 0.154512	 1.271315	 -1.255561
H	 0.226209	 2.140461	 0.267302
C	 -1.509193	 0.801505	 0.065617
H	 -2.127797	 -1.112194	 -0.826847
H	 -1.986849	 -1.158408	 0.905561
H	 -2.183670	 1.254107	 -0.651985
H	 -1.821727	 1.144320	 1.047089

	symmetry c1
}
ee = energy('scf')
oeprop('DIPOLE', 'QUADRUPOLE', 'MULLIKEN_CHARGES')
f=open( 'psi4out.xyz', 'w' )
f.write( "16  " )
f.write( str(ee) + "\n" )
f.write( MOL.save_string_xyz() )
f.close()
--------------------------------------------------------------------------

  Memory set to   2.000 GiB by Python script.

*** tstart() called on cx1-3-2-2.cx1.hpc.ic.ac.uk
*** at Tue Jul  5 16:27:47 2016


         ---------------------------------------------------------
                                   SCF
            by Justin Turney, Rob Parrish, and Andy Simmonett
                              RHF Reference
                        1 Threads,   2000 MiB Core
         ---------------------------------------------------------

  ==> Geometry <==

    Molecular point group: c1
    Full point group: C1

    Geometry (in Angstrom), charge = 0, multiplicity = 1:

       Center              X                  Y                   Z               Mass       
    ------------   -----------------  -----------------  -----------------  -----------------
           H          2.581537647177     0.614088106583     0.259630009065     1.007825032070
           O          2.064307647177    -0.086560893417    -0.112322990935    15.994914619560
           C          0.745478647177     0.005469106583     0.354256009065    12.000000000000
           H          0.738853647177     0.038007106583     1.444480009065     1.007825032070
           C         -0.064310352823    -1.194523893417    -0.123249990935    12.000000000000
           C         -0.046453352823     1.193894106583    -0.190926990935    12.000000000000
           H          0.197232647177    -1.375713893417    -1.161185990935     1.007825032070
           H          0.162703647177    -2.097626893417     0.431362009065     1.007825032070
           C         -1.535933352823    -0.751825893417     0.006146009065    12.000000000000
           H          0.154360647177     1.271666106583    -1.256056990935     1.007825032070
           H          0.226057647177     2.140812106583     0.266806009065     1.007825032070
           C         -1.509344352823     0.801856106583     0.065121009065    12.000000000000
           H         -2.127948352823    -1.111842893417    -0.827342990935     1.007825032070
           H         -1.987000352823    -1.158056893417     0.905065009065     1.007825032070
           H         -2.183821352823     1.254458106583    -0.652480990935     1.007825032070
           H         -1.821878352823     1.144671106583     1.046593009065     1.007825032070

  Running in c1 symmetry.

  Rotational constants: A =      0.21587  B =      0.10186  C =      0.07594 [cm^-1]
  Rotational constants: A =   6471.54512  B =   3053.79808  C =   2276.69642 [MHz]
  Nuclear repulsion =  255.151500144691795

  Charge       = 0
  Multiplicity = 1
  Electrons    = 48
  Nalpha       = 24
  Nbeta        = 24

  ==> Algorithm <==

  SCF Algorithm Type is DF.
  DIIS enabled.
  MOM disabled.
  Fractional occupation disabled.
  Guess Type is CORE.
  Energy threshold   = 1.00e-06
  Density threshold  = 1.00e-06
  Integral threshold = 0.00e+00

  ==> Primary Basis <==

  Basis Set: 6-31G*
    Number of shells: 56
    Number of basis function: 110
    Number of Cartesian functions: 110
    Spherical Harmonics?: false
    Max angular momentum: 2

  ==> Pre-Iterations <==

   -------------------------------------------------------
    Irrep   Nso     Nmo     Nalpha   Nbeta   Ndocc  Nsocc
   -------------------------------------------------------
     A        110     110       0       0       0       0
   -------------------------------------------------------
    Total     110     110      24      24      24       0
   -------------------------------------------------------

 OEINTS: Overlap, kinetic, potential, dipole, and quadrupole integrals
         stored in file 35.

  ==> Integral Setup <==

  ==> DFJK: Density-Fitted J/K Matrices <==

    J tasked:                  Yes
    K tasked:                  Yes
    wK tasked:                  No
    OpenMP threads:              1
    Integrals threads:           1
    Memory (MB):              1430
    Algorithm:                Core
    Integral Cache:           NONE
    Schwarz Cutoff:          1E-12
    Fitting Condition:       1E-12

   => Auxiliary Basis Set <=

  Basis Set: 
    Number of shells: 234
    Number of basis function: 736
    Number of Cartesian functions: 736
    Spherical Harmonics?: false
    Max angular momentum: 3

  Minimum eigenvalue in the overlap matrix is 2.9435071285E-03.
  Using Symmetric Orthogonalization.
  SCF Guess: Core (One-Electron) Hamiltonian.

  ==> Iterations <==

                           Total Energy        Delta E     RMS |[F,P]|

   @DF-RHF iter   1:  -217.30189466073688   -2.17302e+02   7.21225e-02 
   @DF-RHF iter   2:  -186.32103828224103    3.09809e+01   6.37233e-02 DIIS
   @DF-RHF iter   3:  -214.15582653991828   -2.78348e+01   7.02179e-02 DIIS
   @DF-RHF iter   4:  -269.08181797396878   -5.49260e+01   1.15200e-02 DIIS
   @DF-RHF iter   5:  -269.93072455110564   -8.48907e-01   3.71977e-03 DIIS
   @DF-RHF iter   6:  -270.00993104637143   -7.92065e-02   6.98614e-04 DIIS
   @DF-RHF iter   7:  -270.01401521189484   -4.08417e-03   2.21760e-04 DIIS
   @DF-RHF iter   8:  -270.01443944009804   -4.24228e-04   7.49360e-05 DIIS
   @DF-RHF iter   9:  -270.01449287637593   -5.34363e-05   1.91528e-05 DIIS
   @DF-RHF iter  10:  -270.01449594285384   -3.06648e-06   7.61088e-06 DIIS
   @DF-RHF iter  11:  -270.01449636721907   -4.24365e-07   2.28912e-06 DIIS
   @DF-RHF iter  12:  -270.01449642069383   -5.34748e-08   3.95988e-07 DIIS

  ==> Post-Iterations <==

    Orbital Energies (a.u.)
    -----------------------

    Doubly Occupied:                                                      

       1A    -20.552336     2A    -11.268576     3A    -11.216603  
       4A    -11.214835     5A    -11.211087     6A    -11.208095  
       7A     -1.361268     8A     -1.112957     9A     -0.965290  
      10A     -0.947828    11A     -0.787429    12A     -0.776013  
      13A     -0.704445    14A     -0.655653    15A     -0.617781  
      16A     -0.585963    17A     -0.565541    18A     -0.523140  
      19A     -0.506696    20A     -0.481364    21A     -0.470073  
      22A     -0.456494    23A     -0.448996    24A     -0.417571  

    Virtual:                                                              

      25A      0.219404    26A      0.232067    27A      0.255526  
      28A      0.293501    29A      0.310119    30A      0.318363  
      31A      0.332017    32A      0.342455    33A      0.350714  
      34A      0.366790    35A      0.377235    36A      0.411105  
      37A      0.429513    38A      0.486487    39A      0.492717  
      40A      0.501504    41A      0.724067    42A      0.742471  
      43A      0.768965    44A      0.804342    45A      0.813832  
      46A      0.829847    47A      0.910728    48A      0.922923  
      49A      0.936468    50A      0.942807    51A      0.962876  
      52A      0.971791    53A      1.016757    54A      1.042521  
      55A      1.120541    56A      1.141213    57A      1.147593  
      58A      1.156237    59A      1.161030    60A      1.171601  
      61A      1.198977    62A      1.219351    63A      1.222714  
      64A      1.228061    65A      1.259017    66A      1.308719  
      67A      1.321921    68A      1.441785    69A      1.466017  
      70A      1.543957    71A      1.579105    72A      1.668686  
      73A      1.768194    74A      1.876913    75A      1.934252  
      76A      1.976229    77A      2.044704    78A      2.069047  
      79A      2.085329    80A      2.122162    81A      2.155681  
      82A      2.220531    83A      2.245143    84A      2.274497  
      85A      2.311930    86A      2.335288    87A      2.369414  
      88A      2.431102    89A      2.454527    90A      2.481321  
      91A      2.520738    92A      2.577625    93A      2.676592  
      94A      2.723271    95A      2.754948    96A      2.833110  
      97A      2.864217    98A      2.878963    99A      2.935947  
     100A      2.987239   101A      3.017895   102A      3.075490  
     103A      3.236061   104A      3.299497   105A      4.245954  
     106A      4.610675   107A      4.719699   108A      4.728475  
     109A      5.022037   110A      5.060546  

    Final Occupation by Irrep:
              A 
    DOCC [    24 ]

  Energy converged.

  @DF-RHF Final Energy:  -270.01449642069383

   => Energetics <=

    Nuclear Repulsion Energy =            255.1515001446917950
    One-Electron Energy =                -872.2200399742415584
    Two-Electron Energy =                 347.0540434088565576
    DFT Exchange-Correlation Energy =       0.0000000000000000
    Empirical Dispersion Energy =           0.0000000000000000
    PCM Polarization Energy =               0.0000000000000000
    EFP Energy =                            0.0000000000000000
    Total Energy =                       -270.0144964206932059

    Alert: EFP and PCM quantities not currently incorporated into SCF psivars.

Properties will be evaluated at   0.000000,   0.000000,   0.000000 Bohr
  ==> Properties <==


Properties computed using the SCF density matrix

  Nuclear Dipole Moment: (a.u.)
     X:    -3.7961      Y:     0.6750      Z:     0.4278

  Electronic Dipole Moment: (a.u.)
     X:     3.5616      Y:    -0.2031      Z:    -0.0352

  Dipole Moment: (a.u.)
     X:    -0.2345      Y:     0.4718      Z:     0.3926     Total:     0.6571

  Dipole Moment: (Debye)
     X:    -0.5960      Y:     1.1993      Z:     0.9978     Total:     1.6701


  Saving occupied orbitals to File 180.

*** tstop() called on cx1-3-2-2.cx1.hpc.ic.ac.uk at Tue Jul  5 16:27:55 2016
Module time:
	user time   =       7.30 seconds =       0.12 minutes
	system time =       0.05 seconds =       0.00 minutes
	total time  =          8 seconds =       0.13 minutes
Total time:
	user time   =       7.30 seconds =       0.12 minutes
	system time =       0.05 seconds =       0.00 minutes
	total time  =          8 seconds =       0.13 minutes


Properties will be evaluated at   0.000000,   0.000000,   0.000000 Bohr

Properties computed using the  density matrix

  Nuclear Dipole Moment: (a.u.)
     X:    -3.7961      Y:     0.6750      Z:     0.4278

  Electronic Dipole Moment: (a.u.)
     X:     3.5616      Y:    -0.2031      Z:    -0.0352

  Dipole Moment: (a.u.)
     X:    -0.2345      Y:     0.4718      Z:     0.3926     Total:     0.6571

  Dipole Moment: (Debye)
     X:    -0.5960      Y:     1.1993      Z:     0.9978     Total:     1.6701

  Quadrupole Moment: (Debye Ang)
    XX:   -38.9504     YY:   -37.8395     ZZ:   -37.6269
    XY:     3.7287     XZ:     2.5965     YZ:     0.3859

  Traceless Quadrupole Moment: (Debye Ang)
    XX:    -0.8115     YY:     0.2994     ZZ:     0.5120
    XY:     3.7287     XZ:     2.5965     YZ:     0.3859

  Mulliken Charges: (a.u.)
   Center  Symbol    Alpha    Beta     Spin     Total
       1     H     0.28193  0.28193  0.00000  0.43614
       2     O     4.37594  4.37594  0.00000 -0.75189
       3     C     2.90796  2.90796  0.00000  0.18409
       4     H     0.43116  0.43116  0.00000  0.13768
       5     C     3.16697  3.16697  0.00000 -0.33394
       6     C     3.17486  3.17486  0.00000 -0.34972
       7     H     0.41097  0.41097  0.00000  0.17805
       8     H     0.41293  0.41293  0.00000  0.17415
       9     C     3.16897  3.16897  0.00000 -0.33794
      10     H     0.41390  0.41390  0.00000  0.17221
      11     H     0.42132  0.42132  0.00000  0.15737
      12     C     3.16910  3.16910  0.00000 -0.33819
      13     H     0.41461  0.41461  0.00000  0.17078
      14     H     0.41709  0.41709  0.00000  0.16582
      15     H     0.41399  0.41399  0.00000  0.17202
      16     H     0.41832  0.41832  0.00000  0.16336

   Total alpha = 24.00000, Total beta = 24.00000, Total charge = -0.00000


*** PSI4 exiting successfully. Buy a developer a beer!
