
    -----------------------------------------------------------------------
          Psi4: An Open-Source Ab Initio Electronic Structure Package
                               Psi4 1.1 release

                         Git: Rev {HEAD} add49b9 


    R. M. Parrish, L. A. Burns, D. G. A. Smith, A. C. Simmonett,
    A. E. DePrince III, E. G. Hohenstein, U. Bozkaya, A. Yu. Sokolov,
    R. Di Remigio, R. M. Richard, J. F. Gonthier, A. M. James,
    H. R. McAlexander, A. Kumar, M. Saitow, X. Wang, B. P. Pritchard,
    P. Verma, H. F. Schaefer III, K. Patkowski, R. A. King, E. F. Valeev,
    F. A. Evangelista, J. M. Turney, T. D. Crawford, and C. D. Sherrill,
    J. Chem. Theory Comput. in press (2017).
    (doi: 10.1021/acs.jctc.7b00174)

    -----------------------------------------------------------------------


    Psi4 started on: Monday, 11 December 2017 04:33PM

    Process ID:  15556
    PSIDATADIR: /shared/raimis/opt/miniconda/envs/htmd/share/psi4
    Memory:     500.0 MiB
    Threads:    1
    
  ==> Input File <==

--------------------------------------------------------------------------
set_num_threads(1)
set_memory(4203741184)

set { reference rks }
set { basis cc-pVDZ }

molecule MOL {
    0 1
    noreorient
    nocom
    symmetry c1
    C    0.940800  -0.041500  -0.056200
    C    2.276600  -0.041500  -0.056200
    H    0.380900   0.578300  -0.749400
    H    0.380900  -0.661400   0.637000
    H    2.836500   0.878875  -0.188822
    H    2.836500  -0.961951   0.076358
}

set optking { frozen_dihedral = (" 3 1 2 5 ") }

energy, wfn = energy('B3LYP-D3', return_wfn=True)

import os
os.chdir(os.environ['HTMD_PSI4_WORKDIR'])

oeprop(wfn, 'DIPOLE', 'QUADRUPOLE', 'MULLIKEN_CHARGES')

with open('psi4out.xyz', 'w') as f:
    f.write('6 ' )
    f.write('%.12f\n' % energy)
    f.write(MOL.save_string_xyz())
--------------------------------------------------------------------------
  Threads set to 1 by Python driver.

  Memory set to   3.915 GiB by Python driver.

*** tstart() called on computer06
*** at Mon Dec 11 16:33:04 2017

   => Loading Basis Set <=

    Name: CC-PVDZ
    Role: ORBITAL
    Keyword: BASIS
    atoms 1-2 entry C          line   130 file /shared/raimis/opt/miniconda/envs/htmd/share/psi4/basis/cc-pvdz.gbs 
    atoms 3-6 entry H          line    20 file /shared/raimis/opt/miniconda/envs/htmd/share/psi4/basis/cc-pvdz.gbs 


         ---------------------------------------------------------
                                   SCF
            by Justin Turney, Rob Parrish, and Andy Simmonett
                              RKS Reference
                        1 Threads,   4009 MiB Core
         ---------------------------------------------------------

  ==> Geometry <==

    Molecular point group: c1
    Full point group: C1

    Geometry (in Angstrom), charge = 0, multiplicity = 1:

       Center              X                  Y                   Z               Mass       
    ------------   -----------------  -----------------  -----------------  -----------------
           C          0.940800000000    -0.041500000000    -0.056200000000    12.000000000000
           C          2.276600000000    -0.041500000000    -0.056200000000    12.000000000000
           H          0.380900000000     0.578300000000    -0.749400000000     1.007825032070
           H          0.380900000000    -0.661400000000     0.637000000000     1.007825032070
           H          2.836500000000     0.878875000000    -0.188822000000     1.007825032070
           H          2.836500000000    -0.961951000000     0.076358000000     1.007825032070

  Running in c1 symmetry.

  Rotational constants: A =      4.80121  B =      0.18758  C =      0.18221 [cm^-1]
  Rotational constants: A = 143936.63724  B =   5623.43643  C =   5462.58838 [MHz]
  Nuclear repulsion =   33.313958785967628

  Charge       = 0
  Multiplicity = 1
  Electrons    = 16
  Nalpha       = 8
  Nbeta        = 8

  ==> Algorithm <==

  SCF Algorithm Type is DF.
  DIIS enabled.
  MOM disabled.
  Fractional occupation disabled.
  Guess Type is SAD.
  Energy threshold   = 1.00e-06
  Density threshold  = 1.00e-06
  Integral threshold = 0.00e+00

  ==> Primary Basis <==

  Basis Set: CC-PVDZ
    Blend: CC-PVDZ
    Number of shells: 24
    Number of basis function: 48
    Number of Cartesian functions: 50
    Spherical Harmonics?: true
    Max angular momentum: 2

  ==> DFT Potential <==

   => B3LYP Composite Functional <= 

    B3LYP Hybrid-GGA Exchange-Correlation Functional (VWN1-RPA)

    P.J. Stephens et. al., J. Phys. Chem., 98, 11623-11627, 1994

    Points   =           5000
    Deriv    =              1
    GGA      =           TRUE
    Meta     =          FALSE

    X_LRC        =          FALSE
    X_Hybrid     =           TRUE
    X_Alpha      =   2.000000E-01
    X_Omega      =   0.000000E+00
    C_LRC        =          FALSE
    C_Hybrid     =          FALSE
    C_Alpha      =   0.000000E+00
    C_Omega      =   0.000000E+00

   => Exchange Functionals <=

    0.8000    B3_X
    0.2000      HF 

   => Correlation Functionals <=

    0.1900 VWN3RPA_C
    0.8100   LYP_C

   => Molecular Quadrature <=

    Radial Scheme    =       TREUTLER
    Pruning Scheme   =           FLAT
    Nuclear Scheme   =       TREUTLER

    BS radius alpha  =              1
    Pruning alpha    =              1
    Radial Points    =             75
    Spherical Points =            302
    Total Points     =         133244
    Total Blocks     =            121
    Max Points       =           4957
    Max Functions    =             48

   => -D3ZERO: Empirical Dispersion <=

    Grimme's -D3 (zero-damping) Dispersion Correction
    Grimme S.; Antony J.; Ehrlich S.; Krieg H. (2010), J. Chem. Phys., 132: 154104

        S6 =   1.000000E+00
        S8 =   1.703000E+00
       SR6 =   1.261000E+00
    ALPHA6 =   1.400000E+01

   => Loading Basis Set <=

    Name: (CC-PVDZ AUX)
    Role: JKFIT
    Keyword: DF_BASIS_SCF
    atoms 1-2 entry C          line   120 file /shared/raimis/opt/miniconda/envs/htmd/share/psi4/basis/cc-pvdz-jkfit.gbs 
    atoms 3-6 entry H          line    50 file /shared/raimis/opt/miniconda/envs/htmd/share/psi4/basis/cc-pvdz-jkfit.gbs 

  ==> Pre-Iterations <==

   -------------------------------------------------------
    Irrep   Nso     Nmo     Nalpha   Nbeta   Ndocc  Nsocc
   -------------------------------------------------------
     A         48      48       0       0       0       0
   -------------------------------------------------------
    Total      48      48       8       8       8       0
   -------------------------------------------------------

  ==> Integral Setup <==

  ==> DFJK: Density-Fitted J/K Matrices <==

    J tasked:                  Yes
    K tasked:                  Yes
    wK tasked:                  No
    OpenMP threads:              1
    Integrals threads:           1
    Memory (MB):              3006
    Algorithm:                Core
    Integral Cache:           NONE
    Schwarz Cutoff:          1E-12
    Fitting Condition:       1E-12

   => Auxiliary Basis Set <=

  Basis Set: (CC-PVDZ AUX)
    Blend: CC-PVDZ-JKFIT
    Number of shells: 84
    Number of basis function: 232
    Number of Cartesian functions: 262
    Spherical Harmonics?: true
    Max angular momentum: 3

  Minimum eigenvalue in the overlap matrix is 4.9393913916E-03.
  Using Symmetric Orthogonalization.

  SCF Guess: Superposition of Atomic Densities via on-the-fly atomic UHF.

  ==> Iterations <==

                           Total Energy        Delta E     RMS |[F,P]|

   @DF-RKS iter   0:   -78.84716126600257   -7.88472e+01   4.98171e-02 
   @DF-RKS iter   1:   -78.52290189600954    3.24259e-01   5.01723e-03 
   @DF-RKS iter   2:   -78.52169928580615    1.20261e-03   5.34289e-03 DIIS
   @DF-RKS iter   3:   -78.55922599390887   -3.75267e-02   5.74395e-04 DIIS
   @DF-RKS iter   4:   -78.55925843392221   -3.24400e-05   5.64606e-04 DIIS
   @DF-RKS iter   5:   -78.55965662587590   -3.98192e-04   1.81614e-05 DIIS
   @DF-RKS iter   6:   -78.55965714887577   -5.23000e-07   8.36686e-06 DIIS
   @DF-RKS iter   7:   -78.55965723947094   -9.05952e-08   1.35579e-06 DIIS
   @DF-RKS iter   8:   -78.55965724174190   -2.27097e-09   2.27467e-07 DIIS

  ==> Post-Iterations <==

    Orbital Energies (a.u.)
    -----------------------

    Doubly Occupied:                                                      

       1A    -10.188582     2A    -10.187800     3A     -0.761513  
       4A     -0.579171     5A     -0.462092     6A     -0.417178  
       7A     -0.383819     8A     -0.239339  

    Virtual:                                                              

       9A     -0.022453    10A      0.084912    11A      0.108890  
      12A      0.117544    13A      0.174787    14A      0.296958  
      15A      0.406739    16A      0.461792    17A      0.487160  
      18A      0.500836    19A      0.549783    20A      0.555790  
      21A      0.655603    22A      0.672557    23A      0.711123  
      24A      0.814610    25A      0.814727    26A      0.935524  
      27A      0.987037    28A      1.027128    29A      1.195334  
      30A      1.434347    31A      1.440634    32A      1.480670  
      33A      1.487860    34A      1.493573    35A      1.596914  
      36A      1.662704    37A      1.695822    38A      1.785085  
      39A      1.953692    40A      1.975111    41A      1.978489  
      42A      2.107457    43A      2.193931    44A      2.319080  
      45A      2.479328    46A      2.480411    47A      2.653475  
      48A      2.894389  

    Final Occupation by Irrep:
              A 
    DOCC [     8 ]

  Energy converged.

  @DF-RKS Final Energy:   -78.55965724174190

   => Energetics <=

    Nuclear Repulsion Energy =             33.3139587859676283
    One-Electron Energy =                -170.1482131865052452
    Two-Electron Energy =                  68.2243488298721985
    DFT Exchange-Correlation Energy =      -9.9489003710764923
    Empirical Dispersion Energy =          -0.0008513000000000
    PCM Polarization Energy =               0.0000000000000000
    EFP Energy =                            0.0000000000000000
    Total Energy =                        -78.5596572417419026



Properties will be evaluated at   0.000000,   0.000000,   0.000000 Bohr

Properties computed using the SCF density matrix

  Nuclear Dipole Moment: (a.u.)
     X:    48.6400      Y:    -1.2551      Z:    -1.6994

  Electronic Dipole Moment: (a.u.)
     X:   -48.6400      Y:     1.2551      Z:     1.6993

  Dipole Moment: (a.u.)
     X:     0.0000      Y:    -0.0000      Z:    -0.0000     Total:     0.0000

  Dipole Moment: (Debye)
     X:     0.0000      Y:    -0.0000      Z:    -0.0001     Total:     0.0001


*** tstop() called on computer06 at Mon Dec 11 16:33:12 2017
Module time:
	user time   =       7.86 seconds =       0.13 minutes
	system time =       0.09 seconds =       0.00 minutes
	total time  =          8 seconds =       0.13 minutes
Total time:
	user time   =       7.86 seconds =       0.13 minutes
	system time =       0.09 seconds =       0.00 minutes
	total time  =          8 seconds =       0.13 minutes


Properties will be evaluated at   0.000000,   0.000000,   0.000000 Bohr

Properties computed using the  density matrix

  Nuclear Dipole Moment: (a.u.)
     X:    48.6400      Y:    -1.2551      Z:    -1.6994

  Electronic Dipole Moment: (a.u.)
     X:   -48.6400      Y:     1.2551      Z:     1.6993

  Dipole Moment: (a.u.)
     X:     0.0000      Y:    -0.0000      Z:    -0.0000     Total:     0.0000

  Dipole Moment: (Debye)
     X:     0.0000      Y:    -0.0000      Z:    -0.0001     Total:     0.0001

  Quadrupole Moment: (Debye Ang)
    XX:   -12.5040     YY:   -13.1914     ZZ:   -14.2044
    XY:     0.0000     XZ:    -0.0002     YZ:    -0.7622

  Traceless Quadrupole Moment: (Debye Ang)
    XX:     0.7959     YY:     0.1086     ZZ:    -0.9045
    XY:     0.0000     XZ:    -0.0002     YZ:    -0.7622

  Mulliken Charges: (a.u.)
   Center  Symbol    Alpha    Beta     Spin     Total
       1     C     3.02758  3.02758  0.00000 -0.05517
       2     C     3.02758  3.02758  0.00000 -0.05517
       3     H     0.48621  0.48621  0.00000  0.02758
       4     H     0.48621  0.48621  0.00000  0.02759
       5     H     0.48621  0.48621  0.00000  0.02758
       6     H     0.48620  0.48620  0.00000  0.02759

   Total alpha =  8.00000, Total beta =  8.00000, Total charge = -0.00000


*** Psi4 exiting successfully. Buy a developer a beer!
