    -----------------------------------------------------------------------
          Psi4: An Open-Source Ab Initio Electronic Structure Package
                              Psi4 (no tag) Driver

                          Git: Rev {detached?}  

    J. M. Turney, A. C. Simmonett, R. M. Parrish, E. G. Hohenstein,
    F. A. Evangelista, J. T. Fermann, B. J. Mintz, L. A. Burns, J. J. Wilke,
    M. L. Abrams, N. J. Russ, M. L. Leininger, C. L. Janssen, E. T. Seidl,
    W. D. Allen, H. F. Schaefer, R. A. King, E. F. Valeev, C. D. Sherrill,
    and T. D. Crawford, WIREs Comput. Mol. Sci. 2, 556-565 (2012)
    (doi: 10.1002/wcms.93)

                         Additional Contributions by
    A. E. DePrince, M. Saitow, U. Bozkaya, A. Yu. Sokolov
    -----------------------------------------------------------------------


    Psi4 started on: Tue Jul  5 16:19:53 2016

    Process ID:  24975
    PSI4DATADIR: /export131/home/mjharvey/miniconda3/share
    Memory level set to 256.000 MB

  ==> Input File <==

--------------------------------------------------------------------------
set {
	reference rhf
	basis 6-31G*
}


set_num_threads( 1 )
memory 2 gb

molecule MOL {
0 1

H	 4.618000	 0.383000	 -0.075000
C	 3.758000	 -0.277000	 -0.017000
C	 2.453000	 0.516000	 -0.048000
H	 3.817000	 -0.969000	 -0.852000
H	 3.848000	 -0.856000	 0.898000
C	 1.217000	 -0.374000	 0.034000
H	 2.394000	 1.106000	 -0.957000
H	 2.441000	 1.223000	 0.781000
N	 0.000000	 0.410000	 -0.029000
H	 1.215000	 -1.063000	 -0.806000
H	 1.269000	 -0.991000	 0.938000
C	 -1.217000	 -0.374000	 0.034000
H	 0.000000	 1.085000	 0.713000
C	 -2.453000	 0.516000	 -0.048000
H	 -1.215000	 -1.063000	 -0.806000
H	 -1.270000	 -0.991000	 0.938000
C	 -3.758000	 -0.277000	 -0.017000
H	 -2.394000	 1.106000	 -0.958000
H	 -2.441000	 1.223000	 0.780000
H	 -3.817000	 -0.969000	 -0.852000
H	 -4.618000	 0.383000	 -0.075000
H	 -3.848000	 -0.856000	 0.898000

	symmetry c1
}
ee = optimize('scf')
oeprop('DIPOLE', 'QUADRUPOLE', 'MULLIKEN_CHARGES')
f=open( 'psi4out.xyz', 'w' )
f.write( "22  " )
f.write( str(ee) + "\n" )
f.write( MOL.save_string_xyz() )
f.close()
--------------------------------------------------------------------------

  Memory set to   2.000 GiB by Python script.
gradient() will perform analytic gradient computation.

*** tstart() called on cx1-3-1-3.cx1.hpc.ic.ac.uk
*** at Tue Jul  5 16:19:53 2016


         ---------------------------------------------------------
                                   SCF
            by Justin Turney, Rob Parrish, and Andy Simmonett
                              RHF Reference
                        1 Threads,   2000 MiB Core
         ---------------------------------------------------------

  ==> Geometry <==

    Molecular point group: c1
    Full point group: C1

    Geometry (in Angstrom), charge = 0, multiplicity = 1:

       Center              X                  Y                   Z               Mass       
    ------------   -----------------  -----------------  -----------------  -----------------
           H          4.618009966580     0.370712803066    -0.069257659989     1.007825032070
           C          3.758009966580    -0.289287196934    -0.011257659989    12.000000000000
           C          2.453009966580     0.503712803066    -0.042257659989    12.000000000000
           H          3.817009966580    -0.981287196934    -0.846257659989     1.007825032070
           H          3.848009966580    -0.868287196934     0.903742340011     1.007825032070
           C          1.217009966580    -0.386287196934     0.039742340011    12.000000000000
           H          2.394009966580     1.093712803066    -0.951257659989     1.007825032070
           H          2.441009966580     1.210712803066     0.786742340011     1.007825032070
           N          0.000009966580     0.397712803066    -0.023257659989    14.003074004780
           H          1.215009966580    -1.075287196934    -0.800257659989     1.007825032070
           H          1.269009966580    -1.003287196934     0.943742340011     1.007825032070
           C         -1.216990033420    -0.386287196934     0.039742340011    12.000000000000
           H          0.000009966580     1.072712803066     0.718742340011     1.007825032070
           C         -2.452990033420     0.503712803066    -0.042257659989    12.000000000000
           H         -1.214990033420    -1.075287196934    -0.800257659989     1.007825032070
           H         -1.269990033420    -1.003287196934     0.943742340011     1.007825032070
           C         -3.757990033420    -0.289287196934    -0.011257659989    12.000000000000
           H         -2.393990033420     1.093712803066    -0.952257659989     1.007825032070
           H         -2.440990033420     1.210712803066     0.785742340011     1.007825032070
           H         -3.816990033420    -0.981287196934    -0.846257659989     1.007825032070
           H         -4.617990033420     0.370712803066    -0.069257659989     1.007825032070
           H         -3.847990033420    -0.868287196934     0.903742340011     1.007825032070

  Running in c1 symmetry.

  Rotational constants: A =      0.43916  B =      0.02551  C =      0.02481 [cm^-1]
  Rotational constants: A =  13165.68806  B =    764.86424  C =    743.84552 [MHz]
  Nuclear repulsion =  313.186810174305322

  Charge       = 0
  Multiplicity = 1
  Electrons    = 58
  Nalpha       = 29
  Nbeta        = 29

  ==> Algorithm <==

  SCF Algorithm Type is DF.
  DIIS enabled.
  MOM disabled.
  Fractional occupation disabled.
  Guess Type is CORE.
  Energy threshold   = 1.00e-08
  Density threshold  = 1.00e-08
  Integral threshold = 0.00e+00

  ==> Primary Basis <==

  Basis Set: 6-31G*
    Number of shells: 72
    Number of basis function: 135
    Number of Cartesian functions: 135
    Spherical Harmonics?: false
    Max angular momentum: 2

  ==> Pre-Iterations <==

   -------------------------------------------------------
    Irrep   Nso     Nmo     Nalpha   Nbeta   Ndocc  Nsocc
   -------------------------------------------------------
     A        135     135       0       0       0       0
   -------------------------------------------------------
    Total     135     135      29      29      29       0
   -------------------------------------------------------

 OEINTS: Overlap, kinetic, potential, dipole, and quadrupole integrals
         stored in file 35.

  ==> Integral Setup <==

  ==> DFJK: Density-Fitted J/K Matrices <==

    J tasked:                  Yes
    K tasked:                  Yes
    wK tasked:                  No
    OpenMP threads:              1
    Integrals threads:           1
    Memory (MB):              1430
    Algorithm:                Core
    Integral Cache:           NONE
    Schwarz Cutoff:          1E-12
    Fitting Condition:       1E-12

   => Auxiliary Basis Set <=

  Basis Set: 
    Number of shells: 303
    Number of basis function: 942
    Number of Cartesian functions: 942
    Spherical Harmonics?: false
    Max angular momentum: 3

  Minimum eigenvalue in the overlap matrix is 3.2601769310E-03.
  Using Symmetric Orthogonalization.
  SCF Guess: Core (One-Electron) Hamiltonian.

  ==> Iterations <==

                           Total Energy        Delta E     RMS |[F,P]|

   @DF-RHF iter   1:  -194.65498940571615   -1.94655e+02   7.11930e-02 
   @DF-RHF iter   2:  -156.67351088111013    3.79815e+01   5.94865e-02 DIIS
   @DF-RHF iter   3:  -246.75529193945039   -9.00818e+01   4.45083e-02 DIIS
   @DF-RHF iter   4:  -280.26093577079661   -3.35056e+01   2.90966e-02 DIIS
   @DF-RHF iter   5:  -289.51899940769096   -9.25806e+00   1.03890e-02 DIIS
   @DF-RHF iter   6:  -290.30256366918996   -7.83564e-01   2.77198e-03 DIIS
   @DF-RHF iter   7:  -290.36384382959960   -6.12802e-02   1.34873e-03 DIIS
   @DF-RHF iter   8:  -290.38140476476673   -1.75609e-02   3.78545e-04 DIIS
   @DF-RHF iter   9:  -290.38305862119824   -1.65386e-03   1.22976e-04 DIIS
   @DF-RHF iter  10:  -290.38323356458392   -1.74943e-04   2.82593e-05 DIIS
   @DF-RHF iter  11:  -290.38324557067955   -1.20061e-05   7.05553e-06 DIIS
   @DF-RHF iter  12:  -290.38324629230198   -7.21622e-07   9.83582e-07 DIIS
   @DF-RHF iter  13:  -290.38324630942799   -1.71260e-08   2.43570e-07 DIIS
   @DF-RHF iter  14:  -290.38324631067127   -1.24328e-09   5.56273e-08 DIIS
   @DF-RHF iter  15:  -290.38324631073823   -6.69615e-11   1.10259e-08 DIIS
   @DF-RHF iter  16:  -290.38324631073982   -1.59162e-12   2.84375e-09 DIIS

  ==> Post-Iterations <==

    Orbital Energies (a.u.)
    -----------------------

    Doubly Occupied:                                                      

       1A    -15.533727     2A    -11.237965     3A    -11.237947  
       4A    -11.213564     5A    -11.213549     6A    -11.209722  
       7A    -11.209714     8A     -1.205819     9A     -1.059324  
      10A     -1.026029    11A     -0.928250    12A     -0.868276  
      13A     -0.811147    14A     -0.793667    15A     -0.668812  
      16A     -0.626213    17A     -0.614781    18A     -0.613064  
      19A     -0.574042    20A     -0.563236    21A     -0.529412  
      22A     -0.528196    23A     -0.515763    24A     -0.485331  
      25A     -0.482860    26A     -0.474331    27A     -0.465755  
      28A     -0.450726    29A     -0.358948  

    Virtual:                                                              

      30A      0.230056    31A      0.241735    32A      0.251368  
      33A      0.266467    34A      0.292891    35A      0.303306  
      36A      0.308015    37A      0.319476    38A      0.325721  
      39A      0.341778    40A      0.343628    41A      0.348501  
      42A      0.353522    43A      0.363298    44A      0.372753  
      45A      0.400185    46A      0.415438    47A      0.419458  
      48A      0.455824    49A      0.467632    50A      0.498944  
      51A      0.705954    52A      0.717187    53A      0.719273  
      54A      0.749942    55A      0.754546    56A      0.778278  
      57A      0.820687    58A      0.829311    59A      0.837750  
      60A      0.856869    61A      0.895903    62A      0.954811  
      63A      0.958785    64A      0.973141    65A      0.980326  
      66A      0.995657    67A      1.079932    68A      1.098659  
      69A      1.114829    70A      1.118087    71A      1.151593  
      72A      1.171816    73A      1.175266    74A      1.183210  
      75A      1.200385    76A      1.201648    77A      1.207924  
      78A      1.219825    79A      1.227951    80A      1.236527  
      81A      1.237748    82A      1.247954    83A      1.263201  
      84A      1.264456    85A      1.287151    86A      1.349713  
      87A      1.417033    88A      1.571183    89A      1.591418  
      90A      1.669651    91A      1.674522    92A      1.702605  
      93A      1.727400    94A      1.824617    95A      1.856829  
      96A      1.874410    97A      1.994398    98A      2.075121  
      99A      2.085270   100A      2.146637   101A      2.216754  
     102A      2.257911   103A      2.268960   104A      2.273987  
     105A      2.289494   106A      2.289600   107A      2.297739  
     108A      2.374563   109A      2.416634   110A      2.432137  
     111A      2.461505   112A      2.481430   113A      2.545633  
     114A      2.626390   115A      2.634057   116A      2.657358  
     117A      2.697123   118A      2.701218   119A      2.728181  
     120A      2.794491   121A      2.851738   122A      2.868859  
     123A      2.906562   124A      2.954616   125A      3.043595  
     126A      3.065200   127A      3.234533   128A      3.299392  
     129A      4.386617   130A      4.605736   131A      4.606098  
     132A      4.748673   133A      4.753914   134A      4.897652  
     135A      4.965778  

    Final Occupation by Irrep:
              A 
    DOCC [    29 ]

  Energy converged.

  @DF-RHF Final Energy:  -290.38324631073982

   => Energetics <=

    Nuclear Repulsion Energy =            313.1868101743053217
    One-Electron Energy =               -1012.1397769831963842
    Two-Electron Energy =                 408.5697204981503319
    DFT Exchange-Correlation Energy =       0.0000000000000000
    Empirical Dispersion Energy =           0.0000000000000000
    PCM Polarization Energy =               0.0000000000000000
    EFP Energy =                            0.0000000000000000
    Total Energy =                       -290.3832463107406738

    Alert: EFP and PCM quantities not currently incorporated into SCF psivars.

Properties will be evaluated at   0.000000,   0.000000,   0.000000 Bohr
  ==> Properties <==


Properties computed using the SCF density matrix

  Nuclear Dipole Moment: (a.u.)
     X:    -0.0008      Y:    -1.3448      Z:     0.6105

  Electronic Dipole Moment: (a.u.)
     X:     0.0010      Y:     1.2379      Z:    -0.2644

  Dipole Moment: (a.u.)
     X:     0.0002      Y:    -0.1069      Z:     0.3461     Total:     0.3623

  Dipole Moment: (Debye)
     X:     0.0005      Y:    -0.2718      Z:     0.8798     Total:     0.9208


  Saving occupied orbitals to File 180.

*** tstop() called on cx1-3-1-3.cx1.hpc.ic.ac.uk at Tue Jul  5 16:20:07 2016
Module time:
	user time   =      13.31 seconds =       0.22 minutes
	system time =       0.06 seconds =       0.00 minutes
	total time  =         14 seconds =       0.23 minutes
Total time:
	user time   =      13.31 seconds =       0.22 minutes
	system time =       0.06 seconds =       0.00 minutes
	total time  =         14 seconds =       0.23 minutes

*** tstart() called on cx1-3-1-3.cx1.hpc.ic.ac.uk
*** at Tue Jul  5 16:20:07 2016


         ------------------------------------------------------------
                                   SCF GRAD                          
                          Rob Parrish, Justin Turney,                
                       Andy Simmonett, and Alex Sokolov              
         ------------------------------------------------------------

  ==> Geometry <==

    Molecular point group: c1
    Full point group: C1

    Geometry (in Angstrom), charge = 0, multiplicity = 1:

       Center              X                  Y                   Z               Mass       
    ------------   -----------------  -----------------  -----------------  -----------------
           H          4.618009966580     0.370712803066    -0.069257659989     1.007825032070
           C          3.758009966580    -0.289287196934    -0.011257659989    12.000000000000
           C          2.453009966580     0.503712803066    -0.042257659989    12.000000000000
           H          3.817009966580    -0.981287196934    -0.846257659989     1.007825032070
           H          3.848009966580    -0.868287196934     0.903742340011     1.007825032070
           C          1.217009966580    -0.386287196934     0.039742340011    12.000000000000
           H          2.394009966580     1.093712803066    -0.951257659989     1.007825032070
           H          2.441009966580     1.210712803066     0.786742340011     1.007825032070
           N          0.000009966580     0.397712803066    -0.023257659989    14.003074004780
           H          1.215009966580    -1.075287196934    -0.800257659989     1.007825032070
           H          1.269009966580    -1.003287196934     0.943742340011     1.007825032070
           C         -1.216990033420    -0.386287196934     0.039742340011    12.000000000000
           H          0.000009966580     1.072712803066     0.718742340011     1.007825032070
           C         -2.452990033420     0.503712803066    -0.042257659989    12.000000000000
           H         -1.214990033420    -1.075287196934    -0.800257659989     1.007825032070
           H         -1.269990033420    -1.003287196934     0.943742340011     1.007825032070
           C         -3.757990033420    -0.289287196934    -0.011257659989    12.000000000000
           H         -2.393990033420     1.093712803066    -0.952257659989     1.007825032070
           H         -2.440990033420     1.210712803066     0.785742340011     1.007825032070
           H         -3.816990033420    -0.981287196934    -0.846257659989     1.007825032070
           H         -4.617990033420     0.370712803066    -0.069257659989     1.007825032070
           H         -3.847990033420    -0.868287196934     0.903742340011     1.007825032070

  Nuclear repulsion =  313.186810174305322

  ==> Basis Set <==

  Basis Set: 6-31G*
    Number of shells: 72
    Number of basis function: 135
    Number of Cartesian functions: 135
    Spherical Harmonics?: false
    Max angular momentum: 2

  ==> DFJKGrad: Density-Fitted SCF Gradients <==

    Gradient:                    1
    J tasked:                  Yes
    K tasked:                  Yes
    wK tasked:                  No
    OpenMP threads:              1
    Integrals threads:           1
    Memory (MB):              1430
    Schwarz Cutoff:          0E+00
    Fitting Condition:       1E-12

   => Auxiliary Basis Set <=

  Basis Set: 
    Number of shells: 303
    Number of basis function: 942
    Number of Cartesian functions: 942
    Spherical Harmonics?: false
    Max angular momentum: 3


  -Total Gradient:
     Atom            X                  Y                   Z
    ------   -----------------  -----------------  -----------------
       1        0.000216985690     0.000133999920     0.000003395429
       2       -0.000455151524     0.000078333802    -0.000235214172
       3        0.000494315989    -0.000657353456    -0.000565927304
       4        0.000003550422     0.000098849765     0.000187656919
       5        0.000032355833    -0.000085291286     0.000042458270
       6       -0.000349812239     0.000662614424    -0.000444587127
       7       -0.000029631343    -0.000052598082     0.000173500007
       8       -0.000062593421     0.000349767234     0.000367916174
       9        0.000026288899    -0.000888598073    -0.000385841699
      10        0.000008381156     0.000052081424     0.000252777504
      11       -0.000024551768    -0.000255424560     0.000190569108
      12        0.000458484883     0.000649931926    -0.000444239241
      13       -0.000003551048     0.000295084662     0.000377437578
      14       -0.000513512481    -0.000676850971     0.000401781460
      15       -0.000008214305     0.000051615709     0.000244588514
      16       -0.000113054012    -0.000268611731     0.000196681084
      17        0.000451683919     0.000076913296    -0.000241856379
      18        0.000066277607     0.000243774650    -0.000310314270
      19        0.000053195786     0.000043268326    -0.000032967422
      20       -0.000004765114     0.000097084095     0.000182944192
      21       -0.000217337403     0.000134158489     0.000002847440
      22       -0.000029345528    -0.000082749562     0.000036393935


*** tstop() called on cx1-3-1-3.cx1.hpc.ic.ac.uk at Tue Jul  5 16:20:25 2016
Module time:
	user time   =      18.74 seconds =       0.31 minutes
	system time =       0.07 seconds =       0.00 minutes
	total time  =         18 seconds =       0.30 minutes
Total time:
	user time   =      32.06 seconds =       0.53 minutes
	system time =       0.13 seconds =       0.00 minutes
	total time  =         32 seconds =       0.53 minutes
CURRENT ENERGY: -290.3832463107

			-----------------------------------------
			 OPTKING 2.0: for geometry optimizations 
			  - R.A. King,  Bethel University        
			-----------------------------------------

	Internal coordinates to be generated automatically.
	Detected frag with atoms:  1 2 3 4 5 6 7 8 9 10 11 12 13 14 15 16 17 18 19 20
	 21 22
	---Fragment 1 Bond Connectivity---
	 1 : 2
	 2 : 1 3 4 5
	 3 : 2 6 7 8
	 4 : 2
	 5 : 2
	 6 : 3 9 10 11
	 7 : 3
	 8 : 3
	 9 : 6 12 13
	 10 : 6
	 11 : 6
	 12 : 9 14 15 16
	 13 : 9
	 14 : 12 17 18 19
	 15 : 12
	 16 : 12
	 17 : 14 20 21 22
	 18 : 14
	 19 : 14
	 20 : 17
	 21 : 17
	 22 : 17

	---Fragment 1 Geometry and Gradient---
	 H           8.7267741158        0.7005456717       -0.1308780100
	 C           7.1016096415       -0.5466735760       -0.0212738943
	 C           4.6355170381        0.9518792474       -0.0798554044
	 H           7.2131034833       -1.8543640599       -1.5991952152
	 H           7.2716849935       -1.6408250069        1.7078255173
	 C           2.2998155378       -0.7299770108        0.0751021385
	 H           4.5240231962        2.0668176658       -1.7976164592
	 H           4.6128403245        2.2879156234        1.4867275598
	 N           0.0000188341        0.7515682773       -0.0439506079
	 H           2.2960360856       -2.0319983164       -1.5122678131
	 H           2.3980812967       -1.8959380348        1.7834145626
	 C          -2.2997778696       -0.7299770108        0.0751021385
	 H           0.0000188341        2.0271334170        1.3582261827
	 C          -4.6354793699        0.9518792474       -0.0798554044
	 H          -2.2959984173       -2.0319983164       -1.5122678131
	 H          -2.3999333547       -1.8959380348        1.7834145626
	 C          -7.1015719733       -0.5466735760       -0.0212738943
	 H          -4.5239855280        2.0668176658       -1.7995061853
	 H          -4.6128026563        2.2879156234        1.4848378336
	 H          -7.2130658151       -1.8543640599       -1.5991952152
	 H          -8.7267364476        0.7005456717       -0.1308780100
	 H          -7.2716473252       -1.6408250069        1.7078255173
	             0.0002169857        0.0001339999        0.0000033954
	            -0.0004551515        0.0000783338       -0.0002352142
	             0.0004943160       -0.0006573535       -0.0005659273
	             0.0000035504        0.0000988498        0.0001876569
	             0.0000323558       -0.0000852913        0.0000424583
	            -0.0003498122        0.0006626144       -0.0004445871
	            -0.0000296313       -0.0000525981        0.0001735000
	            -0.0000625934        0.0003497672        0.0003679162
	             0.0000262889       -0.0008885981       -0.0003858417
	             0.0000083812        0.0000520814        0.0002527775
	            -0.0000245518       -0.0002554246        0.0001905691
	             0.0004584849        0.0006499319       -0.0004442392
	            -0.0000035510        0.0002950847        0.0003774376
	            -0.0005135125       -0.0006768510        0.0004017815
	            -0.0000082143        0.0000516157        0.0002445885
	            -0.0001130540       -0.0002686117        0.0001966811
	             0.0004516839        0.0000769133       -0.0002418564
	             0.0000662776        0.0002437746       -0.0003103143
	             0.0000531958        0.0000432683       -0.0000329674
	            -0.0000047651        0.0000970841        0.0001829442
	            -0.0002173374        0.0001341585        0.0000028474
	            -0.0000293455       -0.0000827496        0.0000363939

	Previous optimization step data not found.  Starting new optimization.

	---Fragment 1 Intrafragment Coordinates---
	 - Coordinate -           - BOHR/RAD -       - ANG/DEG -
	 R(1,2)           =         2.051519	       1.085617
	 R(2,3)           =         2.886296	       1.527362
	 R(2,4)           =         2.052394	       1.086080
	 R(2,5)           =         2.053260	       1.086539
	 R(3,6)           =         2.882387	       1.525294
	 R(3,7)           =         2.050908	       1.085294
	 R(3,8)           =         2.059051	       1.089603
	 R(6,9)           =         2.738287	       1.449039
	 R(6,10)          =         2.053051	       1.086428
	 R(6,11)          =         2.070616	       1.095723
	 R(9,12)          =         2.738287	       1.449039
	 R(9,13)          =         1.895565	       1.003090
	 R(12,14)         =         2.882387	       1.525294
	 R(12,15)         =         2.053051	       1.086428
	 R(12,16)         =         2.070707	       1.095771
	 R(14,17)         =         2.886296	       1.527362
	 R(14,18)         =         2.052491	       1.086131
	 R(14,19)         =         2.057613	       1.088842
	 R(17,20)         =         2.052394	       1.086080
	 R(17,21)         =         2.051519	       1.085617
	 R(17,22)         =         2.053260	       1.086539
	 B(1,2,3)         =         1.939190	     111.107425
	 B(1,2,4)         =         1.878896	     107.652807
	 B(1,2,5)         =         1.878993	     107.658367
	 B(2,3,6)         =         1.969608	     112.850231
	 B(2,3,7)         =         1.923780	     110.224502
	 B(2,3,8)         =         1.908004	     109.320577
	 B(3,2,4)         =         1.940799	     111.199613
	 B(3,2,5)         =         1.943931	     111.379057
	 B(3,6,9)         =         1.941787	     111.256174
	 B(3,6,10)        =         1.907069	     109.267021
	 B(3,6,11)        =         1.911831	     109.539824
	 B(4,2,5)         =         1.879068	     107.662664
	 B(6,3,7)         =         1.894606	     108.552956
	 B(6,3,8)         =         1.905808	     109.194727
	 B(6,9,12)        =         1.994076	     114.252151
	 B(6,9,13)        =         1.909137	     109.385476
	 B(7,3,8)         =         1.858656	     106.493121
	 B(9,6,10)        =         1.883850	     107.936638
	 B(9,6,11)        =         1.961015	     112.357902
	 B(9,12,14)       =         1.941787	     111.256174
	 B(9,12,15)       =         1.883850	     107.936638
	 B(9,12,16)       =         1.961826	     112.404363
	 B(10,6,11)       =         1.855494	     106.311969
	 B(12,9,13)       =         1.909137	     109.385476
	 B(12,14,17)      =         1.969608	     112.850231
	 B(12,14,18)      =         1.894400	     108.541116
	 B(12,14,19)      =         1.906103	     109.211657
	 B(14,12,15)      =         1.907069	     109.267021
	 B(14,12,16)      =         1.911030	     109.493981
	 B(14,17,20)      =         1.940799	     111.199613
	 B(14,17,21)      =         1.939190	     111.107425
	 B(14,17,22)      =         1.943931	     111.379057
	 B(15,12,16)      =         1.855483	     106.311336
	 B(17,14,18)      =         1.923516	     110.209363
	 B(17,14,19)      =         1.908269	     109.335742
	 B(18,14,19)      =         1.858562	     106.487786
	 B(20,17,21)      =         1.878896	     107.652807
	 B(20,17,22)      =         1.879068	     107.662664
	 B(21,17,22)      =         1.878993	     107.658367
	 D(1,2,3,6)       =        -3.139800	    -179.897296
	 D(1,2,3,7)       =         1.021974	      58.554803
	 D(1,2,3,8)       =        -1.015336	     -58.174476
	 D(2,3,6,9)       =        -3.118638	    -178.684802
	 D(2,3,6,10)      =        -1.040304	     -59.605006
	 D(2,3,6,11)      =         0.985834	      56.484144
	 D(3,6,9,12)      =         3.134242	     179.578862
	 D(3,6,9,13)      =        -1.002410	     -57.433887
	 D(4,2,3,6)       =         1.050865	      60.210153
	 D(4,2,3,7)       =        -1.070546	     -61.337748
	 D(4,2,3,8)       =        -3.107856	    -178.067027
	 D(5,2,3,6)       =        -1.045059	     -59.877462
	 D(5,2,3,7)       =         3.116715	     178.574637
	 D(5,2,3,8)       =         1.079405	      61.845358
	 D(6,9,12,14)     =        -3.134242	    -179.578862
	 D(6,9,12,15)     =        -1.042081	     -59.706835
	 D(6,9,12,16)     =         0.998567	      57.213664
	 D(7,3,6,9)       =        -0.980807	     -56.196088
	 D(7,3,6,10)      =         1.097528	      62.883707
	 D(7,3,6,11)      =         3.123666	     178.972857
	 D(8,3,6,9)       =         1.038844	      59.521350
	 D(8,3,6,10)      =         3.117178	     178.601145
	 D(8,3,6,11)      =        -1.139869	     -65.309705
	 D(9,12,14,17)    =         3.118638	     178.684802
	 D(9,12,14,18)    =         0.981291	      56.223804
	 D(9,12,14,19)    =        -1.038295	     -59.489946
	 D(10,6,9,12)     =         1.042081	      59.706835
	 D(10,6,9,13)     =        -3.094572	    -177.305914
	 D(11,6,9,12)     =        -0.998117	     -57.187863
	 D(11,6,9,13)     =         1.148416	      65.799388
	 D(12,14,17,20)   =        -1.050865	     -60.210153
	 D(12,14,17,21)   =         3.139800	     179.897296
	 D(12,14,17,22)   =         1.045059	      59.877462
	 D(13,9,12,14)    =         1.002410	      57.433887
	 D(13,9,12,15)    =         3.094572	     177.305914
	 D(13,9,12,16)    =        -1.147966	     -65.773587
	 D(15,12,14,17)   =         1.040304	      59.605006
	 D(15,12,14,18)   =        -1.097044	     -62.855991
	 D(15,12,14,19)   =        -3.116630	    -178.569742
	 D(16,12,14,17)   =        -0.985371	     -56.457592
	 D(16,12,14,18)   =        -3.122718	    -178.918589
	 D(16,12,14,19)   =         1.140881	      65.367660
	 D(18,14,17,20)   =         1.070090	      61.311613
	 D(18,14,17,21)   =        -1.022430	     -58.580937
	 D(18,14,17,22)   =        -3.117172	    -178.600772
	 D(19,14,17,20)   =         3.107290	     178.034603
	 D(19,14,17,21)   =         1.014770	      58.142052
	 D(19,14,17,22)   =        -1.079971	     -61.877782

	Current energy   :      -290.3832463107

	Generating empirical Hessian (Schlegel '84) for each fragment.
	Taking RFO optimization step.
	Going to follow RFO solution 1.
	Using RFO vector 1.
	Norm of target step-size    0.01395
	Projected energy change by RFO approximation:        -0.0000121039

	Back-transformation to cartesian coordinates...
	Successfully converged to displaced geometry.

	--- Internal Coordinate Step in ANG or DEG, aJ/ANG or AJ/DEG ---
	 ---------------------------------------------------------------------------
	   Coordinate                Previous        Force       Change         New 
	   ----------                --------       ------       ------       ------
	    1 R(1,2)          =      1.085617    -0.002086    -0.000379     1.085238
	    2 R(2,3)          =      1.527362     0.002390     0.000517     1.527880
	    3 R(2,4)          =      1.086080     0.001706     0.000311     1.086391
	    4 R(2,5)          =      1.086539    -0.000691    -0.000126     1.086413
	    5 R(3,6)          =      1.525294    -0.000700    -0.000151     1.525143
	    6 R(3,7)          =      1.085294     0.001420     0.000258     1.085551
	    7 R(3,8)          =      1.089603    -0.004182    -0.000770     1.088832
	    8 R(6,9)          =      1.449039     0.002608     0.000437     1.449476
	    9 R(6,10)         =      1.086428     0.001882     0.000343     1.086771
	   10 R(6,11)         =      1.095723    -0.002471    -0.000465     1.095259
	   11 R(9,12)         =      1.449039     0.002177     0.000364     1.449403
	   12 R(9,13)         =      1.003090    -0.003936    -0.000536     1.002554
	   13 R(12,14)        =      1.525294    -0.000486    -0.000105     1.525189
	   14 R(12,15)        =      1.086428     0.001828     0.000333     1.086761
	   15 R(12,16)        =      1.095771    -0.002628    -0.000494     1.095277
	   16 R(14,17)        =      1.527362     0.002377     0.000515     1.527877
	   17 R(14,18)        =      1.086131    -0.003263    -0.000594     1.085537
	   18 R(14,19)        =      1.088842    -0.000030    -0.000005     1.088837
	   19 R(17,20)        =      1.086080     0.001666     0.000303     1.086384
	   20 R(17,21)        =      1.085617    -0.002089    -0.000380     1.085237
	   21 R(17,22)        =      1.086539    -0.000636    -0.000116     1.086423
	   22 B(1,2,3)        =    111.107425    -0.000002    -0.015726   111.091699
	   23 B(1,2,4)        =    107.652807     0.000001    -0.001098   107.651709
	   24 B(1,2,5)        =    107.658367     0.000002     0.008107   107.666474
	   25 B(2,3,6)        =    112.850231    -0.000015    -0.061538   112.788693
	   26 B(2,3,7)        =    110.224502     0.000002    -0.015645   110.208857
	   27 B(2,3,8)        =    109.320577     0.000001    -0.006590   109.313986
	   28 B(3,2,4)        =    111.199613    -0.000002    -0.007883   111.191730
	   29 B(3,2,5)        =    111.379057    -0.000003    -0.012419   111.366638
	   30 B(3,6,9)        =    111.256174    -0.000015    -0.072515   111.183659
	   31 B(3,6,10)       =    109.267021     0.000003    -0.003445   109.263576
	   32 B(3,6,11)       =    109.539824     0.000001    -0.010777   109.529047
	   33 B(4,2,5)        =    107.662664     0.000004     0.031206   107.693870
	   34 B(6,3,7)        =    108.552956     0.000005     0.012288   108.565244
	   35 B(6,3,8)        =    109.194727     0.000007     0.041860   109.236587
	   36 B(6,9,12)       =    114.252151    -0.000010    -0.028788   114.223363
	   37 B(6,9,13)       =    109.385476     0.000004     0.021609   109.407084
	   38 B(7,3,8)        =    106.493121    -0.000001     0.035869   106.528990
	   39 B(9,6,10)       =    107.936638     0.000003    -0.005434   107.931204
	   40 B(9,6,11)       =    112.357902     0.000007     0.020498   112.378400
	   41 B(9,12,14)      =    111.256174    -0.000014    -0.067960   111.188214
	   42 B(9,12,15)      =    107.936638     0.000004    -0.002263   107.934375
	   43 B(9,12,16)      =    112.404363    -0.000002    -0.041610   112.362754
	   44 B(10,6,11)      =    106.311969     0.000003     0.078219   106.390188
	   45 B(12,9,13)      =    109.385476     0.000004     0.024833   109.410309
	   46 B(12,14,17)     =    112.850231    -0.000015    -0.062851   112.787380
	   47 B(12,14,18)     =    108.541116     0.000006     0.027880   108.568996
	   48 B(12,14,19)     =    109.211657     0.000006     0.025463   109.237119
	   49 B(14,12,15)     =    109.267021     0.000001     0.000139   109.267160
	   50 B(14,12,16)     =    109.493981     0.000009     0.039278   109.533259
	   51 B(14,17,20)     =    111.199613    -0.000002    -0.007772   111.191842
	   52 B(14,17,21)     =    111.107425    -0.000002    -0.015999   111.091426
	   53 B(14,17,22)     =    111.379057    -0.000003    -0.011744   111.367314
	   54 B(15,12,16)     =    106.311336     0.000003     0.079198   106.390534
	   55 B(17,14,18)     =    110.209363     0.000002    -0.005392   110.203972
	   56 B(17,14,19)     =    109.335742     0.000001    -0.018367   109.317375
	   57 B(18,14,19)     =    106.487786    -0.000000     0.039731   106.527517
	   58 B(20,17,21)     =    107.652807     0.000001    -0.000583   107.652224
	   59 B(20,17,22)     =    107.662664     0.000004     0.031079   107.693743
	   60 B(21,17,22)     =    107.658367     0.000002     0.007174   107.665541
	   61 D(1,2,3,6)      =   -179.897296    -0.000000    -0.158465  -180.055762
	   62 D(1,2,3,7)      =     58.554803     0.000000    -0.120536    58.434266
	   63 D(1,2,3,8)      =    -58.174476    -0.000000    -0.151096   -58.325572
	   64 D(2,3,6,9)      =   -178.684802     0.000000    -0.041710  -178.726512
	   65 D(2,3,6,10)     =    -59.605006    -0.000001    -0.095264   -59.700270
	   66 D(2,3,6,11)     =     56.484144     0.000001    -0.009319    56.474825
	   67 D(3,6,9,12)     =    179.578862     0.000000    -0.015561   179.563302
	   68 D(3,6,9,13)     =    -57.433887     0.000000     0.012951   -57.420936
	   69 D(4,2,3,6)      =     60.210153    -0.000000    -0.141292    60.068861
	   70 D(4,2,3,7)      =    -61.337748     0.000000    -0.103363   -61.441111
	   71 D(4,2,3,8)      =   -178.067027     0.000000    -0.133923  -178.200950
	   72 D(5,2,3,6)      =    -59.877462    -0.000000    -0.167152   -60.044615
	   73 D(5,2,3,7)      =    178.574637     0.000000    -0.129223   178.445414
	   74 D(5,2,3,8)      =     61.845358    -0.000000    -0.159783    61.685575
	   75 D(6,9,12,14)    =   -179.578862     0.000000     0.008491  -179.570371
	   76 D(6,9,12,15)    =    -59.706835    -0.000001    -0.033279   -59.740114
	   77 D(6,9,12,16)    =     57.213664     0.000000     0.038394    57.252057
	   78 D(7,3,6,9)      =    -56.196088    -0.000001    -0.093830   -56.289918
	   79 D(7,3,6,10)     =     62.883707    -0.000002    -0.147384    62.736323
	   80 D(7,3,6,11)     =    178.972857    -0.000000    -0.061438   178.911419
	   81 D(8,3,6,9)      =     59.521350     0.000001    -0.021788    59.499561
	   82 D(8,3,6,10)     =    178.601145    -0.000000    -0.075342   178.525803
	   83 D(8,3,6,11)     =    -65.309705     0.000001     0.010603   -65.299101
	   84 D(9,12,14,17)   =    178.684802     0.000000     0.029620   178.714422
	   85 D(9,12,14,18)   =     56.223804     0.000001     0.058444    56.282248
	   86 D(9,12,14,19)   =    -59.489946    -0.000001    -0.017885   -59.507831
	   87 D(10,6,9,12)    =     59.706835     0.000001     0.035322    59.742157
	   88 D(10,6,9,13)    =   -177.305914     0.000001     0.063833  -177.242081
	   89 D(11,6,9,12)    =    -57.187863    -0.000001    -0.068703   -57.256566
	   90 D(11,6,9,13)    =     65.799388    -0.000001    -0.040191    65.759196
	   91 D(12,14,17,20)  =    -60.210153    -0.000000     0.154150   -60.056003
	   92 D(12,14,17,21)  =    179.897296     0.000000     0.170781   180.068077
	   93 D(12,14,17,22)  =     59.877462     0.000000     0.180380    60.057842
	   94 D(13,9,12,14)   =     57.433887     0.000000    -0.018271    57.415615
	   95 D(13,9,12,15)   =    177.305914    -0.000001    -0.060042   177.245872
	   96 D(13,9,12,16)   =    -65.773587     0.000000     0.011631   -65.761956
	   97 D(15,12,14,17)  =     59.605006     0.000001     0.074170    59.679177
	   98 D(15,12,14,18)  =    -62.855991     0.000002     0.102994   -62.752997
	   99 D(15,12,14,19)  =   -178.569742     0.000000     0.026665  -178.543077
	  100 D(16,12,14,17)  =    -56.457592    -0.000001    -0.043151   -56.500743
	  101 D(16,12,14,18)  =   -178.918589    -0.000000    -0.014328  -178.932917
	  102 D(16,12,14,19)  =     65.367660    -0.000002    -0.090657    65.277003
	  103 D(18,14,17,20)  =     61.311613    -0.000000     0.142763    61.454376
	  104 D(18,14,17,21)  =    -58.580937    -0.000000     0.159394   -58.421544
	  105 D(18,14,17,22)  =   -178.600772     0.000000     0.168993  -178.431778
	  106 D(19,14,17,20)  =    178.034603     0.000000     0.176998   178.211601
	  107 D(19,14,17,21)  =     58.142052     0.000000     0.193629    58.335681
	  108 D(19,14,17,22)  =    -61.877782     0.000000     0.203229   -61.674553
	 ---------------------------------------------------------------------------

  ==> Convergence Check <==

  Measures of convergence in internal coordinates in au.
  Criteria marked as inactive (o), active & met (*), and active & unmet ( ).
  --------------------------------------------------------------------------------------------- ~
   Step     Total Energy     Delta E     MAX Force     RMS Force      MAX Disp      RMS Disp    ~
  --------------------------------------------------------------------------------------------- ~
    Convergence Criteria    1.00e-06 *    3.00e-04 *             o    1.20e-03 *             o  ~
  --------------------------------------------------------------------------------------------- ~
      1    -290.38324631   -2.90e+02      5.08e-04      1.31e-04 o    3.55e-03      1.34e-03 o  ~
  ---------------------------------------------------------------------------------------------

	Writing optimization data to binary file.
	Structure for next step:
	Cartesian Geometry (in Angstrom)
	    H     4.6170159505   0.3705947537  -0.0710988222
	    C     3.7574894136  -0.2891893705  -0.0107672684
	    C     2.4521033929   0.5041664736  -0.0419154345
	    H     3.8154719184  -0.9828492359  -0.8448650546
	    H     3.8483209744  -0.8660504796   0.9053512651
	    C     1.2171086058  -0.3870226764   0.0395141443
	    H     2.3933497291   1.0939718207  -0.9513655729
	    H     2.4400816034   1.2104629676   0.7866715841
	    N    -0.0000383326   0.3976210929  -0.0226727639
	    H     1.2151680444  -1.0748093706  -0.8019231576
	    H     1.2697731262  -1.0040360363   0.9429034890
	    C    -1.2171688539  -0.3869207921   0.0394369736
	    H    -0.0000118338   1.0718528090   0.7193011588
	    C    -2.4522218132   0.5042760475  -0.0418873227
	    H    -1.2152483957  -1.0747483733  -0.8019540946
	    H    -1.2696189749  -1.0038955169   0.9428873215
	    C    -3.7575639572  -0.2891604732  -0.0110987552
	    H    -2.3934887636   1.0942986466  -0.9511806778
	    H    -2.4402892716   1.2103972879   0.7868561123
	    H    -3.8153174931  -0.9827514919  -0.8452602693
	    H    -4.6171136554   0.3705805418  -0.0715607120
	    H    -3.8485821492  -0.8661070625   0.9049593829
			--------------------------
			 OPTKING Finished Execution 
			--------------------------

    Structure for next step:
    Molecular point group: c1
    Full point group: C1

    Geometry (in Angstrom), charge = 0, multiplicity = 1:

    H            4.617055830471     0.370620383994    -0.071264022683
    C            3.757529359263    -0.289163689784    -0.010932473572
    C            2.452143438168     0.504192093686    -0.042080637222
    H            3.815511859642    -0.982823502236    -0.845030195998
    H            3.848360913094    -0.866024754906     0.905185990040
    C            1.217148745473    -0.386996988258     0.039348935346
    H            2.393389778872     1.093997395751    -0.951530706186
    H            2.440121649683     1.210488533704     0.786506318056
    N            0.000001899965     0.397646721134    -0.022837968123
    H            1.215208184161    -1.074783629892    -0.802088302365
    H            1.269813261785    -1.004010301089     0.942738211003
    C           -1.217128528340    -0.386895103954     0.039271764635
    H            0.000028398763     1.071878385719     0.719135897957
    C           -2.452181393381     0.504301667532    -0.042052525492
    H           -1.215208070339    -1.074722632691    -0.802119239280
    H           -1.269578645371    -1.003869781653     0.942722043584
    C           -3.757523437641    -0.289134792509    -0.011263960334
    H           -2.393448348254     1.094324221606    -0.951345811095
    H           -2.440248852645     1.210422854059     0.786690846242
    H           -3.815276969151    -0.982725758253    -0.845425410749
    H           -4.617073070207     0.370606172081    -0.071725912483
    H           -3.848541622721    -0.866081337742     0.904794107794

gradient() will perform analytic gradient computation.

*** tstart() called on cx1-3-1-3.cx1.hpc.ic.ac.uk
*** at Tue Jul  5 16:20:27 2016


         ---------------------------------------------------------
                                   SCF
            by Justin Turney, Rob Parrish, and Andy Simmonett
                              RHF Reference
                        1 Threads,   2000 MiB Core
         ---------------------------------------------------------

  ==> Geometry <==

    Molecular point group: c1
    Full point group: C1

    Geometry (in Angstrom), charge = 0, multiplicity = 1:

       Center              X                  Y                   Z               Mass       
    ------------   -----------------  -----------------  -----------------  -----------------
           H          4.617055830471     0.370620383994    -0.071264022683     1.007825032070
           C          3.757529359263    -0.289163689784    -0.010932473572    12.000000000000
           C          2.452143438168     0.504192093686    -0.042080637222    12.000000000000
           H          3.815511859642    -0.982823502236    -0.845030195998     1.007825032070
           H          3.848360913094    -0.866024754906     0.905185990040     1.007825032070
           C          1.217148745473    -0.386996988258     0.039348935346    12.000000000000
           H          2.393389778872     1.093997395751    -0.951530706186     1.007825032070
           H          2.440121649683     1.210488533704     0.786506318056     1.007825032070
           N          0.000001899965     0.397646721134    -0.022837968123    14.003074004780
           H          1.215208184161    -1.074783629892    -0.802088302365     1.007825032070
           H          1.269813261785    -1.004010301089     0.942738211003     1.007825032070
           C         -1.217128528340    -0.386895103954     0.039271764635    12.000000000000
           H          0.000028398763     1.071878385719     0.719135897957     1.007825032070
           C         -2.452181393381     0.504301667532    -0.042052525492    12.000000000000
           H         -1.215208070339    -1.074722632691    -0.802119239280     1.007825032070
           H         -1.269578645371    -1.003869781653     0.942722043584     1.007825032070
           C         -3.757523437641    -0.289134792509    -0.011263960334    12.000000000000
           H         -2.393448348254     1.094324221606    -0.951345811095     1.007825032070
           H         -2.440248852645     1.210422854059     0.786690846242     1.007825032070
           H         -3.815276969151    -0.982725758253    -0.845425410749     1.007825032070
           H         -4.617073070207     0.370606172081    -0.071725912483     1.007825032070
           H         -3.848541622721    -0.866081337742     0.904794107794     1.007825032070

  Running in c1 symmetry.

  Rotational constants: A =      0.43890  B =      0.02552  C =      0.02482 [cm^-1]
  Rotational constants: A =  13158.02122  B =    765.11828  C =    744.06843 [MHz]
  Nuclear repulsion =  313.200425936852071

  Charge       = 0
  Multiplicity = 1
  Electrons    = 58
  Nalpha       = 29
  Nbeta        = 29

  ==> Algorithm <==

  SCF Algorithm Type is DF.
  DIIS enabled.
  MOM disabled.
  Fractional occupation disabled.
  Guess Type is READ.
  Energy threshold   = 1.00e-08
  Density threshold  = 1.00e-08
  Integral threshold = 0.00e+00

  ==> Primary Basis <==

  Basis Set: 6-31G*
    Number of shells: 72
    Number of basis function: 135
    Number of Cartesian functions: 135
    Spherical Harmonics?: false
    Max angular momentum: 2

  ==> Pre-Iterations <==

   -------------------------------------------------------
    Irrep   Nso     Nmo     Nalpha   Nbeta   Ndocc  Nsocc
   -------------------------------------------------------
     A        135     135       0       0       0       0
   -------------------------------------------------------
    Total     135     135      29      29      29       0
   -------------------------------------------------------

 OEINTS: Overlap, kinetic, potential, dipole, and quadrupole integrals
         stored in file 35.

  ==> Integral Setup <==

  ==> DFJK: Density-Fitted J/K Matrices <==

    J tasked:                  Yes
    K tasked:                  Yes
    wK tasked:                  No
    OpenMP threads:              1
    Integrals threads:           1
    Memory (MB):              1430
    Algorithm:                Core
    Integral Cache:           NONE
    Schwarz Cutoff:          1E-12
    Fitting Condition:       1E-12

   => Auxiliary Basis Set <=

  Basis Set: 
    Number of shells: 303
    Number of basis function: 942
    Number of Cartesian functions: 942
    Spherical Harmonics?: false
    Max angular momentum: 3

  Minimum eigenvalue in the overlap matrix is 3.2589117029E-03.
  Using Symmetric Orthogonalization.
  SCF Guess: Reading in previously saved MOs, projecting if necessary.

  Using orbitals from previous SCF, no projection.
  Recomputing DOCC and SOCC from number of alpha and beta electrons from previous calculation.
              A 
    DOCC [    29 ]

  ==> Iterations <==

                           Total Energy        Delta E     RMS |[F,P]|

   @DF-RHF iter   0:  -290.38365642841518   -2.90384e+02   2.97688e-05 
   @DF-RHF iter   1:  -290.38324927226415    4.07156e-04   5.97743e-06 
   @DF-RHF iter   2:  -290.38324978079117   -5.08527e-07   2.09514e-06 DIIS
   @DF-RHF iter   3:  -290.38324984230303   -6.15119e-08   8.35476e-07 DIIS
   @DF-RHF iter   4:  -290.38324985369627   -1.13932e-08   1.90616e-07 DIIS
   @DF-RHF iter   5:  -290.38324985416011   -4.63842e-10   3.91917e-08 DIIS
   @DF-RHF iter   6:  -290.38324985419683   -3.67208e-11   1.24197e-08 DIIS
   @DF-RHF iter   7:  -290.38324985419831   -1.47793e-12   4.01119e-09 DIIS

  ==> Post-Iterations <==

    Orbital Energies (a.u.)
    -----------------------

    Doubly Occupied:                                                      

       1A    -15.533594     2A    -11.237926     3A    -11.237908  
       4A    -11.213480     5A    -11.213474     6A    -11.209675  
       7A    -11.209674     8A     -1.205667     9A     -1.059285  
      10A     -1.025925    11A     -0.928148    12A     -0.868267  
      13A     -0.811193    14A     -0.793671    15A     -0.668863  
      16A     -0.626292    17A     -0.614585    18A     -0.613068  
      19A     -0.574062    20A     -0.563209    21A     -0.529478  
      22A     -0.528139    23A     -0.515525    24A     -0.485200  
      25A     -0.482951    26A     -0.474480    27A     -0.465927  
      28A     -0.450527    29A     -0.358962  

    Virtual:                                                              

      30A      0.230061    31A      0.241760    32A      0.251390  
      33A      0.266477    34A      0.292949    35A      0.303313  
      36A      0.308111    37A      0.319517    38A      0.325826  
      39A      0.341766    40A      0.343596    41A      0.348524  
      42A      0.353613    43A      0.363387    44A      0.372884  
      45A      0.400215    46A      0.415320    47A      0.419318  
      48A      0.455812    49A      0.467495    50A      0.498856  
      51A      0.705984    52A      0.717145    53A      0.719583  
      54A      0.749980    55A      0.754562    56A      0.778095  
      57A      0.820672    58A      0.829374    59A      0.837758  
      60A      0.856859    61A      0.895755    62A      0.954645  
      63A      0.958835    64A      0.973052    65A      0.980267  
      66A      0.995560    67A      1.080071    68A      1.098869  
      69A      1.114850    70A      1.118224    71A      1.151819  
      72A      1.172062    73A      1.175514    74A      1.183450  
      75A      1.200486    76A      1.201548    77A      1.208147  
      78A      1.219807    79A      1.228069    80A      1.236894  
      81A      1.237947    82A      1.248266    83A      1.263307  
      84A      1.264499    85A      1.287535    86A      1.349413  
      87A      1.417141    88A      1.571524    89A      1.591473  
      90A      1.669943    91A      1.674452    92A      1.702415  
      93A      1.726864    94A      1.824675    95A      1.856944  
      96A      1.874767    97A      1.994526    98A      2.075363  
      99A      2.085465   100A      2.146934   101A      2.217139  
     102A      2.257700   103A      2.268227   104A      2.273712  
     105A      2.289885   106A      2.289922   107A      2.297706  
     108A      2.374557   109A      2.416737   110A      2.431807  
     111A      2.461263   112A      2.481613   113A      2.545933  
     114A      2.626594   115A      2.634584   116A      2.656964  
     117A      2.697372   118A      2.701498   119A      2.727810  
     120A      2.794598   121A      2.851328   122A      2.869272  
     123A      2.906034   124A      2.954046   125A      3.043459  
     126A      3.064963   127A      3.234054   128A      3.299583  
     129A      4.386502   130A      4.605837   131A      4.606124  
     132A      4.748777   133A      4.753954   134A      4.897756  
     135A      4.965922  

    Final Occupation by Irrep:
              A 
    DOCC [    29 ]

  Energy converged.

  @DF-RHF Final Energy:  -290.38324985419831

   => Energetics <=

    Nuclear Repulsion Energy =            313.2004259368520707
    One-Electron Energy =               -1012.1690413222902407
    Two-Electron Energy =                 408.5853655312398018
    DFT Exchange-Correlation Energy =       0.0000000000000000
    Empirical Dispersion Energy =           0.0000000000000000
    PCM Polarization Energy =               0.0000000000000000
    EFP Energy =                            0.0000000000000000
    Total Energy =                       -290.3832498541983682

    Alert: EFP and PCM quantities not currently incorporated into SCF psivars.

Properties will be evaluated at   0.000000,   0.000000,   0.000000 Bohr
  ==> Properties <==


Properties computed using the SCF density matrix

  Nuclear Dipole Moment: (a.u.)
     X:     0.0001      Y:    -1.3443      Z:     0.6068

  Electronic Dipole Moment: (a.u.)
     X:    -0.0001      Y:     1.2373      Z:    -0.2600

  Dipole Moment: (a.u.)
     X:    -0.0000      Y:    -0.1070      Z:     0.3468     Total:     0.3630

  Dipole Moment: (Debye)
     X:    -0.0000      Y:    -0.2720      Z:     0.8815     Total:     0.9225


  Saving occupied orbitals to File 180.

*** tstop() called on cx1-3-1-3.cx1.hpc.ic.ac.uk at Tue Jul  5 16:20:38 2016
Module time:
	user time   =      10.75 seconds =       0.18 minutes
	system time =       0.05 seconds =       0.00 minutes
	total time  =         11 seconds =       0.18 minutes
Total time:
	user time   =      42.94 seconds =       0.72 minutes
	system time =       0.21 seconds =       0.00 minutes
	total time  =         45 seconds =       0.75 minutes

*** tstart() called on cx1-3-1-3.cx1.hpc.ic.ac.uk
*** at Tue Jul  5 16:20:38 2016


         ------------------------------------------------------------
                                   SCF GRAD                          
                          Rob Parrish, Justin Turney,                
                       Andy Simmonett, and Alex Sokolov              
         ------------------------------------------------------------

  ==> Geometry <==

    Molecular point group: c1
    Full point group: C1

    Geometry (in Angstrom), charge = 0, multiplicity = 1:

       Center              X                  Y                   Z               Mass       
    ------------   -----------------  -----------------  -----------------  -----------------
           H          4.617055830471     0.370620383994    -0.071264022683     1.007825032070
           C          3.757529359263    -0.289163689784    -0.010932473572    12.000000000000
           C          2.452143438168     0.504192093686    -0.042080637222    12.000000000000
           H          3.815511859642    -0.982823502236    -0.845030195998     1.007825032070
           H          3.848360913094    -0.866024754906     0.905185990040     1.007825032070
           C          1.217148745473    -0.386996988258     0.039348935346    12.000000000000
           H          2.393389778872     1.093997395751    -0.951530706186     1.007825032070
           H          2.440121649683     1.210488533704     0.786506318056     1.007825032070
           N          0.000001899965     0.397646721134    -0.022837968123    14.003074004780
           H          1.215208184161    -1.074783629892    -0.802088302365     1.007825032070
           H          1.269813261785    -1.004010301089     0.942738211003     1.007825032070
           C         -1.217128528340    -0.386895103954     0.039271764635    12.000000000000
           H          0.000028398763     1.071878385719     0.719135897957     1.007825032070
           C         -2.452181393381     0.504301667532    -0.042052525492    12.000000000000
           H         -1.215208070339    -1.074722632691    -0.802119239280     1.007825032070
           H         -1.269578645371    -1.003869781653     0.942722043584     1.007825032070
           C         -3.757523437641    -0.289134792509    -0.011263960334    12.000000000000
           H         -2.393448348254     1.094324221606    -0.951345811095     1.007825032070
           H         -2.440248852645     1.210422854059     0.786690846242     1.007825032070
           H         -3.815276969151    -0.982725758253    -0.845425410749     1.007825032070
           H         -4.617073070207     0.370606172081    -0.071725912483     1.007825032070
           H         -3.848541622721    -0.866081337742     0.904794107794     1.007825032070

  Nuclear repulsion =  313.200425936852071

  ==> Basis Set <==

  Basis Set: 6-31G*
    Number of shells: 72
    Number of basis function: 135
    Number of Cartesian functions: 135
    Spherical Harmonics?: false
    Max angular momentum: 2

  ==> DFJKGrad: Density-Fitted SCF Gradients <==

    Gradient:                    1
    J tasked:                  Yes
    K tasked:                  Yes
    wK tasked:                  No
    OpenMP threads:              1
    Integrals threads:           1
    Memory (MB):              1430
    Schwarz Cutoff:          0E+00
    Fitting Condition:       1E-12

   => Auxiliary Basis Set <=

  Basis Set: 
    Number of shells: 303
    Number of basis function: 942
    Number of Cartesian functions: 942
    Spherical Harmonics?: false
    Max angular momentum: 3


  -Total Gradient:
     Atom            X                  Y                   Z
    ------   -----------------  -----------------  -----------------
       1       -0.000023355008    -0.000006289477     0.000003491298
       2       -0.000105524455     0.000032814911    -0.000005596676
       3        0.000036671910    -0.000053947228     0.000037944420
       4        0.000016212229    -0.000020494380    -0.000009909688
       5        0.000022556001    -0.000000204107     0.000007287533
       6       -0.000093691548     0.000060630458    -0.000042950868
       7       -0.000013240884     0.000024700358    -0.000010848635
       8       -0.000014834450     0.000017458254    -0.000000727049
       9       -0.000044710097    -0.000030153066     0.000089728462
      10        0.000015810017    -0.000046040018    -0.000029322129
      11        0.000033709303    -0.000024903656     0.000030882841
      12        0.000120259471     0.000078562617    -0.000094501264
      13        0.000003583485     0.000017779896    -0.000021020360
      14       -0.000053609775    -0.000033589327     0.000033853367
      15       -0.000012629071    -0.000048228109    -0.000020502311
      16        0.000003717073    -0.000020269869     0.000047050873
      17        0.000108989316     0.000034406024    -0.000027276679
      18       -0.000000242167     0.000022645125     0.000000498905
      19        0.000017005053     0.000023605871    -0.000000179566
      20       -0.000016419445    -0.000019454409    -0.000005479627
      21        0.000024031282    -0.000006722887     0.000003909620
      22       -0.000024288241    -0.000002306984     0.000013667531


*** tstop() called on cx1-3-1-3.cx1.hpc.ic.ac.uk at Tue Jul  5 16:20:56 2016
Module time:
	user time   =      18.31 seconds =       0.31 minutes
	system time =       0.07 seconds =       0.00 minutes
	total time  =         18 seconds =       0.30 minutes
Total time:
	user time   =      61.26 seconds =       1.02 minutes
	system time =       0.28 seconds =       0.00 minutes
	total time  =         63 seconds =       1.05 minutes
CURRENT ENERGY: -290.3832498542

			-----------------------------------------
			 OPTKING 2.0: for geometry optimizations 
			  - R.A. King,  Bethel University        
			-----------------------------------------

	Previous internal coordinate definitions found.
	---Fragment 1 Geometry and Gradient---
	 H           8.7249710598        0.7003710250       -0.1346694860
	 C           7.1007014253       -0.5464401813       -0.0206593810
	 C           4.6338795367        0.9527849754       -0.0795208798
	 H           7.2102724715       -1.8572672562       -1.5968756445
	 H           7.2723481862       -1.6365496111        1.7105536205
	 C           2.3000777919       -0.7313183221        0.0743587114
	 H           4.5228512113        2.0673554681       -1.7981324417
	 H           4.6111616488        2.2874918157        1.4862815429
	 N           0.0000035904        0.7514434006       -0.0431575052
	 H           2.2964106625       -2.0310467126       -1.5157272259
	 H           2.3995993047       -1.8973045037        1.7815170338
	 C          -2.3000395871       -0.7311257886        0.0742128799
	 H           0.0000536659        2.0255565968        1.3589698995
	 C          -4.6339512616        0.9529920400       -0.0794677564
	 H          -2.2964104474       -2.0309314446       -1.5157856882
	 H          -2.3991559439       -1.8970389604        1.7814864818
	 C          -7.1006902350       -0.5463855733       -0.0212858002
	 H          -4.5229618914        2.0679730794       -1.7977830406
	 H          -4.6114020276        2.2873676992        1.4866302506
	 H          -7.2098285928       -1.8570825468       -1.5976224921
	 H          -8.7250036382        0.7003441684       -0.1355423312
	 H          -7.2726896780       -1.6366565371        1.7098130704
	            -0.0000233550       -0.0000062895        0.0000034913
	            -0.0001055245        0.0000328149       -0.0000055967
	             0.0000366719       -0.0000539472        0.0000379444
	             0.0000162122       -0.0000204944       -0.0000099097
	             0.0000225560       -0.0000002041        0.0000072875
	            -0.0000936915        0.0000606305       -0.0000429509
	            -0.0000132409        0.0000247004       -0.0000108486
	            -0.0000148344        0.0000174583       -0.0000007270
	            -0.0000447101       -0.0000301531        0.0000897285
	             0.0000158100       -0.0000460400       -0.0000293221
	             0.0000337093       -0.0000249037        0.0000308828
	             0.0001202595        0.0000785626       -0.0000945013
	             0.0000035835        0.0000177799       -0.0000210204
	            -0.0000536098       -0.0000335893        0.0000338534
	            -0.0000126291       -0.0000482281       -0.0000205023
	             0.0000037171       -0.0000202699        0.0000470509
	             0.0001089893        0.0000344060       -0.0000272767
	            -0.0000002422        0.0000226451        0.0000004989
	             0.0000170051        0.0000236059       -0.0000001796
	            -0.0000164194       -0.0000194544       -0.0000054796
	             0.0000240313       -0.0000067229        0.0000039096
	            -0.0000242882       -0.0000023070        0.0000136675

	---Fragment 1 Intrafragment Coordinates---
	 - Coordinate -           - BOHR/RAD -       - ANG/DEG -
	 R(1,2)           =         2.050802	       1.085238
	 R(2,3)           =         2.887274	       1.527880
	 R(2,4)           =         2.052981	       1.086391
	 R(2,5)           =         2.053022	       1.086413
	 R(3,6)           =         2.882102	       1.525143
	 R(3,7)           =         2.051395	       1.085551
	 R(3,8)           =         2.057595	       1.088832
	 R(6,9)           =         2.739112	       1.449476
	 R(6,10)          =         2.053699	       1.086771
	 R(6,11)          =         2.069739	       1.095259
	 R(9,12)          =         2.738975	       1.449403
	 R(9,13)          =         1.894552	       1.002554
	 R(12,14)         =         2.882189	       1.525189
	 R(12,15)         =         2.053680	       1.086761
	 R(12,16)         =         2.069773	       1.095277
	 R(14,17)         =         2.887269	       1.527877
	 R(14,18)         =         2.051368	       1.085537
	 R(14,19)         =         2.057603	       1.088837
	 R(17,20)         =         2.052967	       1.086384
	 R(17,21)         =         2.050801	       1.085237
	 R(17,22)         =         2.053041	       1.086423
	 B(1,2,3)         =         1.938916	     111.091699
	 B(1,2,4)         =         1.878877	     107.651709
	 B(1,2,5)         =         1.879134	     107.666474
	 B(2,3,6)         =         1.968534	     112.788693
	 B(2,3,7)         =         1.923507	     110.208857
	 B(2,3,8)         =         1.907889	     109.313986
	 B(3,2,4)         =         1.940662	     111.191730
	 B(3,2,5)         =         1.943715	     111.366638
	 B(3,6,9)         =         1.940521	     111.183659
	 B(3,6,10)        =         1.907009	     109.263576
	 B(3,6,11)        =         1.911642	     109.529047
	 B(4,2,5)         =         1.879613	     107.693870
	 B(6,3,7)         =         1.894821	     108.565244
	 B(6,3,8)         =         1.906538	     109.236587
	 B(6,9,12)        =         1.993574	     114.223363
	 B(6,9,13)        =         1.909514	     109.407084
	 B(7,3,8)         =         1.859282	     106.528990
	 B(9,6,10)        =         1.883755	     107.931204
	 B(9,6,11)        =         1.961373	     112.378400
	 B(9,12,14)       =         1.940600	     111.188214
	 B(9,12,15)       =         1.883810	     107.934375
	 B(9,12,16)       =         1.961100	     112.362754
	 B(10,6,11)       =         1.856859	     106.390188
	 B(12,9,13)       =         1.909570	     109.410309
	 B(12,14,17)      =         1.968511	     112.787380
	 B(12,14,18)      =         1.894886	     108.568996
	 B(12,14,19)      =         1.906547	     109.237119
	 B(14,12,15)      =         1.907072	     109.267160
	 B(14,12,16)      =         1.911716	     109.533259
	 B(14,17,20)      =         1.940664	     111.191842
	 B(14,17,21)      =         1.938911	     111.091426
	 B(14,17,22)      =         1.943726	     111.367314
	 B(15,12,16)      =         1.856865	     106.390534
	 B(17,14,18)      =         1.923422	     110.203972
	 B(17,14,19)      =         1.907948	     109.317375
	 B(18,14,19)      =         1.859256	     106.527517
	 B(20,17,21)      =         1.878886	     107.652224
	 B(20,17,22)      =         1.879610	     107.693743
	 B(21,17,22)      =         1.879118	     107.665541
	 D(1,2,3,6)       =         3.140619	     179.944238
	 D(1,2,3,7)       =         1.019870	      58.434266
	 D(1,2,3,8)       =        -1.017973	     -58.325572
	 D(2,3,6,9)       =        -3.119366	    -178.726512
	 D(2,3,6,10)      =        -1.041966	     -59.700270
	 D(2,3,6,11)      =         0.985672	      56.474825
	 D(3,6,9,12)      =         3.133971	     179.563302
	 D(3,6,9,13)      =        -1.002184	     -57.420936
	 D(4,2,3,6)       =         1.048399	      60.068861
	 D(4,2,3,7)       =        -1.072350	     -61.441111
	 D(4,2,3,8)       =        -3.110193	    -178.200950
	 D(5,2,3,6)       =        -1.047976	     -60.044615
	 D(5,2,3,7)       =         3.114460	     178.445414
	 D(5,2,3,8)       =         1.076616	      61.685575
	 D(6,9,12,14)     =        -3.134094	    -179.570371
	 D(6,9,12,15)     =        -1.042662	     -59.740114
	 D(6,9,12,16)     =         0.999237	      57.252057
	 D(7,3,6,9)       =        -0.982444	     -56.289918
	 D(7,3,6,10)      =         1.094955	      62.736323
	 D(7,3,6,11)      =         3.122593	     178.911419
	 D(8,3,6,9)       =         1.038463	      59.499561
	 D(8,3,6,10)      =         3.115863	     178.525803
	 D(8,3,6,11)      =        -1.139684	     -65.299101
	 D(9,12,14,17)    =         3.119155	     178.714422
	 D(9,12,14,18)    =         0.982311	      56.282248
	 D(9,12,14,19)    =        -1.038608	     -59.507831
	 D(10,6,9,12)     =         1.042697	      59.742157
	 D(10,6,9,13)     =        -3.093458	    -177.242081
	 D(11,6,9,12)     =        -0.999316	     -57.256566
	 D(11,6,9,13)     =         1.147714	      65.759196
	 D(12,14,17,20)   =        -1.048175	     -60.056003
	 D(12,14,17,21)   =        -3.140404	    -179.931923
	 D(12,14,17,22)   =         1.048207	      60.057842
	 D(13,9,12,14)    =         1.002092	      57.415615
	 D(13,9,12,15)    =         3.093524	     177.245872
	 D(13,9,12,16)    =        -1.147763	     -65.761956
	 D(15,12,14,17)   =         1.041598	      59.679177
	 D(15,12,14,18)   =        -1.095246	     -62.752997
	 D(15,12,14,19)   =        -3.116165	    -178.543077
	 D(16,12,14,17)   =        -0.986124	     -56.500743
	 D(16,12,14,18)   =        -3.122969	    -178.932917
	 D(16,12,14,19)   =         1.139299	      65.277003
	 D(18,14,17,20)   =         1.072581	      61.454376
	 D(18,14,17,21)   =        -1.019648	     -58.421544
	 D(18,14,17,22)   =        -3.114222	    -178.431778
	 D(19,14,17,20)   =         3.110379	     178.211601
	 D(19,14,17,21)   =         1.018150	      58.335681
	 D(19,14,17,22)   =        -1.076424	     -61.674553

	Current energy   :      -290.3832498542

	Energy change for the previous step:
		Projected    :        -0.0000121039
		Actual       :        -0.0000035435

	Performing BFGS update.
	Previous computed or guess Hessian on step 1.
	Steps to be used in Hessian update: 1
	Taking RFO optimization step.
	Going to follow RFO solution 1.
	Using RFO vector 1.
	Norm of target step-size    0.00892
	Projected energy change by RFO approximation:        -0.0000012792

	Back-transformation to cartesian coordinates...
	Successfully converged to displaced geometry.

	--- Internal Coordinate Step in ANG or DEG, aJ/ANG or AJ/DEG ---
	 ---------------------------------------------------------------------------
	   Coordinate                Previous        Force       Change         New 
	   ----------                --------       ------       ------       ------
	    1 R(1,2)          =      1.085238     0.000185     0.000004     1.085242
	    2 R(2,3)          =      1.527880     0.000660     0.000179     1.528059
	    3 R(2,4)          =      1.086391    -0.000178    -0.000008     1.086383
	    4 R(2,5)          =      1.086413    -0.000067    -0.000022     1.086391
	    5 R(3,6)          =      1.525143     0.000582     0.000111     1.525254
	    6 R(3,7)          =      1.085551    -0.000191    -0.000014     1.085537
	    7 R(3,8)          =      1.088832    -0.000090    -0.000075     1.088757
	    8 R(6,9)          =      1.449476     0.000804     0.000165     1.449640
	    9 R(6,10)         =      1.086771    -0.000427    -0.000050     1.086721
	   10 R(6,11)         =      1.095259    -0.000339    -0.000098     1.095161
	   11 R(9,12)         =      1.449403     0.001299     0.000240     1.449643
	   12 R(9,13)         =      1.002554     0.000030    -0.000037     1.002517
	   13 R(12,14)        =      1.525189     0.000289     0.000053     1.525242
	   14 R(12,15)        =      1.086761    -0.000382    -0.000043     1.086718
	   15 R(12,16)        =      1.095277    -0.000412    -0.000113     1.095163
	   16 R(14,17)        =      1.527877     0.000678     0.000182     1.528059
	   17 R(14,18)        =      1.085537    -0.000098    -0.000063     1.085474
	   18 R(14,19)        =      1.088837    -0.000127    -0.000023     1.088814
	   19 R(17,20)        =      1.086384    -0.000144    -0.000002     1.086381
	   20 R(17,21)        =      1.085237     0.000192     0.000005     1.085242
	   21 R(17,22)        =      1.086423    -0.000122    -0.000031     1.086392
	   22 B(1,2,3)        =    111.091699     0.000002     0.010363   111.102061
	   23 B(1,2,4)        =    107.651709     0.000000     0.001791   107.653499
	   24 B(1,2,5)        =    107.666474     0.000001     0.008178   107.674652
	   25 B(2,3,6)        =    112.788693     0.000002     0.002334   112.791027
	   26 B(2,3,7)        =    110.208857    -0.000001    -0.007917   110.200940
	   27 B(2,3,8)        =    109.313986    -0.000001    -0.011073   109.302913
	   28 B(3,2,4)        =    111.191730    -0.000002    -0.012299   111.179431
	   29 B(3,2,5)        =    111.366638    -0.000002    -0.009688   111.356950
	   30 B(3,6,9)        =    111.183659     0.000007     0.017948   111.201607
	   31 B(3,6,10)       =    109.263576    -0.000002    -0.005067   109.258509
	   32 B(3,6,11)       =    109.529047    -0.000000     0.009683   109.538730
	   33 B(4,2,5)        =    107.693870     0.000001     0.002398   107.696268
	   34 B(6,3,7)        =    108.565244    -0.000000     0.005230   108.570473
	   35 B(6,3,8)        =    109.236587    -0.000000     0.002193   109.238779
	   36 B(6,9,12)       =    114.223363     0.000005     0.007132   114.230496
	   37 B(6,9,13)       =    109.407084    -0.000002    -0.014841   109.392243
	   38 B(7,3,8)        =    106.528990     0.000001     0.009865   106.538855
	   39 B(9,6,10)       =    107.931204    -0.000003    -0.017941   107.913264
	   40 B(9,6,11)       =    112.378400    -0.000004    -0.013106   112.365294
	   41 B(9,12,14)      =    111.188214     0.000005     0.013695   111.201908
	   42 B(9,12,15)      =    107.934375    -0.000003    -0.021411   107.912963
	   43 B(9,12,16)      =    112.362754    -0.000001     0.005110   112.367864
	   44 B(10,6,11)      =    106.390188     0.000001     0.007518   106.397706
	   45 B(12,9,13)      =    109.410309    -0.000002    -0.017304   109.393005
	   46 B(12,14,17)     =    112.787380     0.000003     0.003035   112.790415
	   47 B(12,14,18)     =    108.568996    -0.000001     0.002057   108.571053
	   48 B(12,14,19)     =    109.237119    -0.000000    -0.000702   109.236418
	   49 B(14,12,15)     =    109.267160    -0.000001    -0.011609   109.255551
	   50 B(14,12,16)     =    109.533259    -0.000002     0.006460   109.539719
	   51 B(14,17,20)     =    111.191842    -0.000002    -0.013362   111.178479
	   52 B(14,17,21)     =    111.091426     0.000002     0.010624   111.102049
	   53 B(14,17,22)     =    111.367314    -0.000002    -0.009362   111.357952
	   54 B(15,12,16)     =    106.390534     0.000001     0.006318   106.396853
	   55 B(17,14,18)     =    110.203972    -0.000001    -0.000873   110.203098
	   56 B(17,14,19)     =    109.317375    -0.000002    -0.015304   109.302071
	   57 B(18,14,19)     =    106.527517     0.000001     0.012488   106.540005
	   58 B(20,17,21)     =    107.652224     0.000000     0.001455   107.653679
	   59 B(20,17,22)     =    107.693743     0.000001     0.002477   107.696219
	   60 B(21,17,22)     =    107.665541     0.000001     0.008938   107.674479
	   61 D(1,2,3,6)      =    179.944238     0.000000     0.100346   180.044584
	   62 D(1,2,3,7)      =     58.434266    -0.000000     0.097704    58.531971
	   63 D(1,2,3,8)      =    -58.325572     0.000000     0.096842   -58.228730
	   64 D(2,3,6,9)      =   -178.726512     0.000000     0.005155  -178.721357
	   65 D(2,3,6,10)     =    -59.700270    -0.000000    -0.009219   -59.709489
	   66 D(2,3,6,11)     =     56.474825     0.000000     0.002401    56.477226
	   67 D(3,6,9,12)     =    179.563302    -0.000000     0.012310   179.575611
	   68 D(3,6,9,13)     =    -57.420936    -0.000000    -0.016594   -57.437530
	   69 D(4,2,3,6)      =     60.068861    -0.000000     0.099365    60.168226
	   70 D(4,2,3,7)      =    -61.441111    -0.000000     0.096724   -61.344387
	   71 D(4,2,3,8)      =   -178.200950    -0.000000     0.095862  -178.105088
	   72 D(5,2,3,6)      =    -60.044615     0.000000     0.111187   -59.933427
	   73 D(5,2,3,7)      =    178.445414     0.000000     0.108546   178.553960
	   74 D(5,2,3,8)      =     61.685575     0.000000     0.107684    61.793259
	   75 D(6,9,12,14)    =   -179.570371     0.000000    -0.004630  -179.575001
	   76 D(6,9,12,15)    =    -59.740114    -0.000000    -0.024260   -59.764374
	   77 D(6,9,12,16)    =     57.252057    -0.000000    -0.027017    57.225041
	   78 D(7,3,6,9)      =    -56.289918    -0.000000     0.000354   -56.289564
	   79 D(7,3,6,10)     =     62.736323    -0.000000    -0.014021    62.722303
	   80 D(7,3,6,11)     =    178.911419    -0.000000    -0.002401   178.909018
	   81 D(8,3,6,9)      =     59.499561     0.000000     0.016154    59.515715
	   82 D(8,3,6,10)     =    178.525803     0.000000     0.001779   178.527583
	   83 D(8,3,6,11)     =    -65.299101     0.000000     0.013399   -65.285702
	   84 D(9,12,14,17)   =    178.714422    -0.000000     0.018951   178.733373
	   85 D(9,12,14,18)   =     56.282248    -0.000000     0.016580    56.298828
	   86 D(9,12,14,19)   =    -59.507831    -0.000000     0.000972   -59.506860
	   87 D(10,6,9,12)    =     59.742157    -0.000000     0.019188    59.761345
	   88 D(10,6,9,13)    =   -177.242081    -0.000000    -0.009715  -177.251796
	   89 D(11,6,9,12)    =    -57.256566     0.000000     0.028736   -57.227830
	   90 D(11,6,9,13)    =     65.759196     0.000000    -0.000167    65.759029
	   91 D(12,14,17,20)  =    -60.056003     0.000000    -0.128826   -60.184829
	   92 D(12,14,17,21)  =   -179.931923    -0.000000    -0.128847  -180.060770
	   93 D(12,14,17,22)  =     60.057842    -0.000000    -0.141047    59.916796
	   94 D(13,9,12,14)   =     57.415615     0.000000     0.022938    57.438553
	   95 D(13,9,12,15)   =    177.245872     0.000000     0.003308   177.249180
	   96 D(13,9,12,16)   =    -65.761956    -0.000000     0.000551   -65.761406
	   97 D(15,12,14,17)  =     59.679177     0.000000     0.044400    59.723577
	   98 D(15,12,14,18)  =    -62.752997     0.000000     0.042030   -62.710968
	   99 D(15,12,14,19)  =   -178.543077    -0.000000     0.026421  -178.516656
	  100 D(16,12,14,17)  =    -56.500743     0.000000     0.039751   -56.460992
	  101 D(16,12,14,18)  =   -178.932917     0.000000     0.037380  -178.895537
	  102 D(16,12,14,19)  =     65.277003     0.000000     0.021772    65.298775
	  103 D(18,14,17,20)  =     61.454376     0.000000    -0.124717    61.329659
	  104 D(18,14,17,21)  =    -58.421544     0.000000    -0.124738   -58.546282
	  105 D(18,14,17,22)  =   -178.431778    -0.000000    -0.136938  -178.568716
	  106 D(19,14,17,20)  =    178.211601     0.000000    -0.119095   178.092506
	  107 D(19,14,17,21)  =     58.335681     0.000000    -0.119116    58.216566
	  108 D(19,14,17,22)  =    -61.674553    -0.000000    -0.131316   -61.805869
	 ---------------------------------------------------------------------------

  ==> Convergence Check <==

  Measures of convergence in internal coordinates in au.
  Criteria marked as inactive (o), active & met (*), and active & unmet ( ).
  ---------------------------------------------------------------------------------------------
   Step     Total Energy     Delta E     MAX Force     RMS Force      MAX Disp      RMS Disp   
  ---------------------------------------------------------------------------------------------
    Convergence Criteria    1.00e-06 *    3.00e-04 *             o    1.20e-03 *             o
  ---------------------------------------------------------------------------------------------
      2    -290.38324985   -3.54e-06      1.58e-04 *    3.10e-05 o    2.46e-03      8.58e-04 o  ~
  ---------------------------------------------------------------------------------------------

	Writing optimization data to binary file.
	Structure for next step:
	Cartesian Geometry (in Angstrom)
	    H     4.6178501240   0.3701689454  -0.0693172222
	    C     3.7580403954  -0.2894019828  -0.0106404833
	    C     2.4526530884   0.5042797064  -0.0422085047
	    H     3.8165566006  -0.9820368104  -0.8455421661
	    H     3.8475946773  -0.8674118300   0.9048539725
	    C     1.2173566729  -0.3866662184   0.0393809985
	    H     2.3942695297   1.0937659698  -0.9518723053
	    H     2.4408310661   1.2106963544   0.7861804355
	    N     0.0000099817   0.3979319198  -0.0233075155
	    H     1.2153564087  -1.0745558012  -0.8019077330
	    H     1.2695871286  -1.0033799139   0.9428818205
	    C    -1.2173586041  -0.3866502312   0.0392287604
	    H    -0.0000240691   1.0721732654   0.7186077328
	    C    -2.4526267322   0.5042988355  -0.0425292698
	    H    -1.2152836484  -1.0744986957  -0.8020898675
	    H    -1.2697323692  -1.0034187644   0.9426868749
	    C    -3.7580222738  -0.2893652179  -0.0108286285
	    H    -2.3942130457   1.0936274429  -0.9522182926
	    H    -2.4407866452   1.2108452918   0.7858226195
	    H    -3.8166525122  -0.9819351585  -0.8457737576
	    H    -4.6178304043   0.3702230032  -0.0693443715
	    H    -3.8474709879  -0.8674440591   0.9046338977
			--------------------------
			 OPTKING Finished Execution 
			--------------------------

    Structure for next step:
    Molecular point group: c1
    Full point group: C1

    Geometry (in Angstrom), charge = 0, multiplicity = 1:

    H            4.617842823281     0.370111427498    -0.069269024335
    C            3.758033160304    -0.289459450344    -0.010592289980
    C            2.452645953058     0.504222178240    -0.042160308920
    H            3.816549361055    -0.982094225012    -0.845493908947
    H            3.847587435376    -0.867469253383     0.904902095918
[...]
	 B(12,14,18)      =         1.894922	     108.571053
	 B(12,14,19)      =         1.906535	     109.236418
	 B(14,12,15)      =         1.906869	     109.255551
	 B(14,12,16)      =         1.911829	     109.539719
	 B(14,17,20)      =         1.940431	     111.178479
	 B(14,17,21)      =         1.939097	     111.102049
	 B(14,17,22)      =         1.943563	     111.357952
	 B(15,12,16)      =         1.856975	     106.396853
	 B(17,14,18)      =         1.923407	     110.203098
	 B(17,14,19)      =         1.907681	     109.302071
	 B(18,14,19)      =         1.859474	     106.540005
	 B(20,17,21)      =         1.878911	     107.653679
	 B(20,17,22)      =         1.879654	     107.696219
	 B(21,17,22)      =         1.879274	     107.674479
	 D(1,2,3,6)       =        -3.140815	    -179.955416
	 D(1,2,3,7)       =         1.021576	      58.531971
	 D(1,2,3,8)       =        -1.016283	     -58.228730
	 D(2,3,6,9)       =        -3.119276	    -178.721357
	 D(2,3,6,10)      =        -1.042127	     -59.709489
	 D(2,3,6,11)      =         0.985714	      56.477226
	 D(3,6,9,12)      =         3.134186	     179.575611
	 D(3,6,9,13)      =        -1.002474	     -57.437530
	 D(4,2,3,6)       =         1.050134	      60.168226
	 D(4,2,3,7)       =        -1.070662	     -61.344387
	 D(4,2,3,8)       =        -3.108520	    -178.105088
	 D(5,2,3,6)       =        -1.046036	     -59.933427
	 D(5,2,3,7)       =         3.116354	     178.553960
	 D(5,2,3,8)       =         1.078496	      61.793259
	 D(6,9,12,14)     =        -3.134175	    -179.575001
	 D(6,9,12,15)     =        -1.043085	     -59.764374
	 D(6,9,12,16)     =         0.998765	      57.225041
	 D(7,3,6,9)       =        -0.982438	     -56.289564
	 D(7,3,6,10)      =         1.094711	      62.722303
	 D(7,3,6,11)      =         3.122551	     178.909018
	 D(8,3,6,9)       =         1.038745	      59.515715
	 D(8,3,6,10)      =         3.115894	     178.527583
	 D(8,3,6,11)      =        -1.139450	     -65.285702
	 D(9,12,14,17)    =         3.119486	     178.733373
	 D(9,12,14,18)    =         0.982600	      56.298828
	 D(9,12,14,19)    =        -1.038591	     -59.506860
	 D(10,6,9,12)     =         1.043032	      59.761345
	 D(10,6,9,13)     =        -3.093627	    -177.251796
	 D(11,6,9,12)     =        -0.998814	     -57.227830
	 D(11,6,9,13)     =         1.147712	      65.759029
	 D(12,14,17,20)   =        -1.050423	     -60.184829
	 D(12,14,17,21)   =         3.140532	     179.939230
	 D(12,14,17,22)   =         1.045745	      59.916796
	 D(13,9,12,14)    =         1.002492	      57.438553
	 D(13,9,12,15)    =         3.093582	     177.249180
	 D(13,9,12,16)    =        -1.147753	     -65.761406
	 D(15,12,14,17)   =         1.042373	      59.723577
	 D(15,12,14,18)   =        -1.094513	     -62.710968
	 D(15,12,14,19)   =        -3.115703	    -178.516656
	 D(16,12,14,17)   =        -0.985430	     -56.460992
	 D(16,12,14,18)   =        -3.122316	    -178.895537
	 D(16,12,14,19)   =         1.139679	      65.298775
	 D(18,14,17,20)   =         1.070404	      61.329659
	 D(18,14,17,21)   =        -1.021825	     -58.546282
	 D(18,14,17,22)   =        -3.116612	    -178.568716
	 D(19,14,17,20)   =         3.108301	     178.092506
	 D(19,14,17,21)   =         1.016071	      58.216566
	 D(19,14,17,22)   =        -1.078716	     -61.805869

	Current energy   :      -290.3832500378

	Energy change for the previous step:
		Projected    :        -0.0000012792
		Actual       :        -0.0000001836
	Energy ratio indicates iffy step: Trust radius decreased to 1.250e-01.


	Performing BFGS update.
	Previous computed or guess Hessian on step 1.
	Steps to be used in Hessian update: 2 1
	Taking RFO optimization step.
	Going to follow RFO solution 1.
	Using RFO vector 1.
	Norm of target step-size    0.00517
	Projected energy change by RFO approximation:         0.0000000905

	Back-transformation to cartesian coordinates...
	Successfully converged to displaced geometry.

	--- Internal Coordinate Step in ANG or DEG, aJ/ANG or AJ/DEG ---
	 ---------------------------------------------------------------------------
	   Coordinate                Previous        Force       Change         New 
	   ----------                --------       ------       ------       ------
	    1 R(1,2)          =      1.085242     0.000094     0.000020     1.085261
	    2 R(2,3)          =      1.528059    -0.000126    -0.000013     1.528046
	    3 R(2,4)          =      1.086383    -0.000131    -0.000024     1.086359
	    4 R(2,5)          =      1.086391     0.000047     0.000007     1.086398
	    5 R(3,6)          =      1.525254    -0.000210    -0.000021     1.525233
	    6 R(3,7)          =      1.085537    -0.000143    -0.000025     1.085512
	    7 R(3,8)          =      1.088757     0.000318     0.000050     1.088807
	    8 R(6,9)          =      1.449640    -0.000054     0.000001     1.449641
	    9 R(6,10)         =      1.086721    -0.000113    -0.000026     1.086695
	   10 R(6,11)         =      1.095161     0.000087     0.000011     1.095172
	   11 R(9,12)         =      1.449643    -0.000102     0.000003     1.449647
	   12 R(9,13)         =      1.002517     0.000452     0.000051     1.002568
	   13 R(12,14)        =      1.525242    -0.000131    -0.000014     1.525227
	   14 R(12,15)        =      1.086718    -0.000082    -0.000021     1.086698
	   15 R(12,16)        =      1.095163     0.000066     0.000007     1.095171
	   16 R(14,17)        =      1.528059    -0.000133    -0.000013     1.528046
	   17 R(14,18)        =      1.085474     0.000205     0.000032     1.085506
	   18 R(14,19)        =      1.088814     0.000014    -0.000000     1.088813
	   19 R(17,20)        =      1.086381    -0.000115    -0.000021     1.086360
	   20 R(17,21)        =      1.085242     0.000091     0.000019     1.085262
	   21 R(17,22)        =      1.086392     0.000034     0.000004     1.086396
	   22 B(1,2,3)        =    111.102061    -0.000001    -0.003149   111.098912
	   23 B(1,2,4)        =    107.653499     0.000000     0.001910   107.655410
	   24 B(1,2,5)        =    107.674652     0.000000     0.001531   107.676183
	   25 B(2,3,6)        =    112.791027    -0.000001    -0.002597   112.788430
	   26 B(2,3,7)        =    110.200940     0.000000    -0.000489   110.200450
	   27 B(2,3,8)        =    109.302913     0.000001     0.003262   109.306175
	   28 B(3,2,4)        =    111.179431     0.000000     0.000408   111.179839
	   29 B(3,2,5)        =    111.356950     0.000000    -0.000346   111.356604
	   30 B(3,6,9)        =    111.201607    -0.000002    -0.001808   111.199799
	   31 B(3,6,10)       =    109.258509     0.000000     0.001711   109.260220
	   32 B(3,6,11)       =    109.538730     0.000000    -0.000060   109.538670
	   33 B(4,2,5)        =    107.696268    -0.000000    -0.000161   107.696106
	   34 B(6,3,7)        =    108.570473     0.000000    -0.001779   108.568695
	   35 B(6,3,8)        =    109.238779     0.000000     0.000948   109.239727
	   36 B(6,9,12)       =    114.230496    -0.000004    -0.008336   114.222160
	   37 B(6,9,13)       =    109.392243     0.000001    -0.001300   109.390944
	   38 B(7,3,8)        =    106.538855    -0.000000     0.000830   106.539685
	   39 B(9,6,10)       =    107.913264     0.000001     0.003309   107.916573
	   40 B(9,6,11)       =    112.365294     0.000001    -0.001824   112.363470
	   41 B(9,12,14)      =    111.201908    -0.000002    -0.002604   111.199305
	   42 B(9,12,15)      =    107.912963     0.000001     0.003057   107.916020
	   43 B(9,12,16)      =    112.367864     0.000000    -0.001594   112.366270
	   44 B(10,6,11)      =    106.397706    -0.000000    -0.001129   106.396576
	   45 B(12,9,13)      =    109.393005     0.000001    -0.002442   109.390563
	   46 B(12,14,17)     =    112.790415    -0.000001    -0.002063   112.788353
	   47 B(12,14,18)     =    108.571053     0.000000    -0.002812   108.568241
	   48 B(12,14,19)     =    109.236418     0.000001     0.003376   109.239794
	   49 B(14,12,15)     =    109.255551     0.000001     0.003942   109.259493
	   50 B(14,12,16)     =    109.539719     0.000000    -0.001873   109.537846
	   51 B(14,17,20)     =    111.178479     0.000001     0.001179   111.179658
	   52 B(14,17,21)     =    111.102049    -0.000001    -0.002941   111.099108
	   53 B(14,17,22)     =    111.357952    -0.000000    -0.001423   111.356529
	   54 B(15,12,16)     =    106.396853    -0.000000    -0.000543   106.396309
	   55 B(17,14,18)     =    110.203098     0.000000    -0.002195   110.200903
	   56 B(17,14,19)     =    109.302071     0.000001     0.003910   109.305981
	   57 B(18,14,19)     =    106.540005    -0.000000    -0.000100   106.539906
	   58 B(20,17,21)     =    107.653679     0.000000     0.001715   107.655394
	   59 B(20,17,22)     =    107.696219    -0.000000    -0.000091   107.696128
	   60 B(21,17,22)     =    107.674479     0.000001     0.001762   107.676241
	   61 D(1,2,3,6)      =   -179.955416    -0.000000    -0.049456  -180.004872
	   62 D(1,2,3,7)      =     58.531971     0.000000    -0.045029    58.486941
	   63 D(1,2,3,8)      =    -58.228730    -0.000000    -0.047673   -58.276404
	   64 D(2,3,6,9)      =   -178.721357     0.000000     0.025521  -178.695836
	   65 D(2,3,6,10)     =    -59.709489     0.000000     0.029591   -59.679899
	   66 D(2,3,6,11)     =     56.477226     0.000000     0.029170    56.506396
	   67 D(3,6,9,12)     =    179.575611     0.000000     0.003313   179.578925
	   68 D(3,6,9,13)     =    -57.437530    -0.000000    -0.006804   -57.444334
	   69 D(4,2,3,6)      =     60.168226    -0.000000    -0.050036    60.118191
	   70 D(4,2,3,7)      =    -61.344387     0.000000    -0.045609   -61.389996
	   71 D(4,2,3,8)      =   -178.105088    -0.000000    -0.048253  -178.153341
	   72 D(5,2,3,6)      =    -59.933427    -0.000000    -0.049874   -59.983301
	   73 D(5,2,3,7)      =    178.553960     0.000000    -0.045447   178.508512
	   74 D(5,2,3,8)      =     61.793259    -0.000000    -0.048091    61.745168
	   75 D(6,9,12,14)    =   -179.575001    -0.000000    -0.002368  -179.577369
	   76 D(6,9,12,15)    =    -59.764374    -0.000000     0.002851   -59.761523
	   77 D(6,9,12,16)    =     57.225041     0.000000     0.003188    57.228228
	   78 D(7,3,6,9)      =    -56.289564    -0.000000     0.021907   -56.267658
	   79 D(7,3,6,10)     =     62.722303     0.000000     0.025977    62.748279
	   80 D(7,3,6,11)     =    178.909018     0.000000     0.025556   178.934574
	   81 D(8,3,6,9)      =     59.515715    -0.000000     0.022430    59.538145
	   82 D(8,3,6,10)     =    178.527583     0.000000     0.026500   178.554082
	   83 D(8,3,6,11)     =    -65.285702     0.000000     0.026079   -65.259623
	   84 D(9,12,14,17)   =    178.733373    -0.000000    -0.043860   178.689513
	   85 D(9,12,14,18)   =     56.298828     0.000000    -0.037695    56.261133
	   86 D(9,12,14,19)   =    -59.506860     0.000000    -0.037860   -59.544719
	   87 D(10,6,9,12)    =     59.761345     0.000000     0.000198    59.761543
	   88 D(10,6,9,13)    =   -177.251796    -0.000000    -0.009920  -177.261716
	   89 D(11,6,9,12)    =    -57.227830    -0.000000     0.000551   -57.227279
	   90 D(11,6,9,13)    =     65.759029    -0.000000    -0.009567    65.749462
	   91 D(12,14,17,20)  =    -60.184829     0.000000     0.073730   -60.111099
	   92 D(12,14,17,21)  =    179.939230     0.000000     0.072743   180.011974
	   93 D(12,14,17,22)  =     59.916796     0.000000     0.073452    59.990248
	   94 D(13,9,12,14)   =     57.438553    -0.000000     0.007130    57.445683
	   95 D(13,9,12,15)   =    177.249180     0.000000     0.012349   177.261529
	   96 D(13,9,12,16)   =    -65.761406     0.000000     0.012686   -65.748719
	   97 D(15,12,14,17)  =     59.723577    -0.000000    -0.048551    59.675027
	   98 D(15,12,14,18)  =    -62.710968    -0.000000    -0.042386   -62.753354
	   99 D(15,12,14,19)  =   -178.516656    -0.000000    -0.042550  -178.559206
	  100 D(16,12,14,17)  =    -56.460992    -0.000000    -0.049078   -56.510070
	  101 D(16,12,14,18)  =   -178.895537    -0.000000    -0.042913  -178.938451
	  102 D(16,12,14,19)  =     65.298775    -0.000000    -0.043078    65.255697
	  103 D(18,14,17,20)  =     61.329659    -0.000000     0.067118    61.396777
	  104 D(18,14,17,21)  =    -58.546282    -0.000000     0.066131   -58.480151
	  105 D(18,14,17,22)  =   -178.568716     0.000000     0.066840  -178.501877
	  106 D(19,14,17,20)  =    178.092506     0.000000     0.068030   178.160537
	  107 D(19,14,17,21)  =     58.216566     0.000000     0.067044    58.283609
	  108 D(19,14,17,22)  =    -61.805869     0.000000     0.067753   -61.738117
	 ---------------------------------------------------------------------------

  ==> Convergence Check <==

  Measures of convergence in internal coordinates in au.
  Criteria marked as inactive (o), active & met (*), and active & unmet ( ).
  ---------------------------------------------------------------------------------------------
   Step     Total Energy     Delta E     MAX Force     RMS Force      MAX Disp      RMS Disp   
  ---------------------------------------------------------------------------------------------
    Convergence Criteria    1.00e-06 *    3.00e-04 *             o    1.20e-03 *             o
  ---------------------------------------------------------------------------------------------
      3    -290.38325004   -1.84e-07 *    5.49e-05 *    1.17e-05 o    1.29e-03      4.97e-04 o  ~
  ---------------------------------------------------------------------------------------------


  **** Optimization is complete! (in 3 steps) ****

  ==> Optimization Summary <==

  Measures of convergence in internal coordinates in au.
  --------------------------------------------------------------------------------------------------------------- ~
   Step         Total Energy             Delta E       MAX Force       RMS Force        MAX Disp        RMS Disp  ~
  --------------------------------------------------------------------------------------------------------------- ~
      1    -290.383246310740   -290.383246310740      0.00050756      0.00013146      0.00354701      0.00134190  ~
      2    -290.383249854198     -0.000003543458      0.00015769      0.00003097      0.00246173      0.00085813  ~
      3    -290.383250037816     -0.000000183618      0.00005488      0.00001172      0.00128683      0.00049714  ~
  --------------------------------------------------------------------------------------------------------------- ~

	Writing optimization data to binary file.
	Final energy is   -290.3832500378161
	Final (previous) structure:
	Cartesian Geometry (in Angstrom)
	    H     4.6178431759   0.3701114558  -0.0692690296
	    C     3.7580334473  -0.2894594724  -0.0105922908
	    C     2.4526461404   0.5042222167  -0.0421603121
	    H     3.8165496525  -0.9820943000  -0.8454939735
	    H     3.8475877292  -0.8674693196   0.9049021650
	    C     1.2173497249  -0.3867237080   0.0394291911
	    H     2.3942625816   1.0937084802  -0.9518241127
	    H     2.4408241181   1.2106388648   0.7862286280
	    N     0.0000030336   0.3978744302  -0.0232593229
	    H     1.2153494606  -1.0746132908  -0.8018595405
	    H     1.2695801805  -1.0034374035   0.9429300130
	    C    -1.2173655521  -0.3867077208   0.0392769530
	    H    -0.0000310172   1.0721157758   0.7186559253
	    C    -2.4526336803   0.5042413459  -0.0424810773
	    H    -1.2152905965  -1.0745561853  -0.8020416749
	    H    -1.2697393173  -1.0034762540   0.9427350674
	    C    -3.7580292219  -0.2894227075  -0.0107804360
	    H    -2.3942199937   1.0935699533  -0.9521701001
	    H    -2.4407935932   1.2107878022   0.7858708120
	    H    -3.8166594603  -0.9819926481  -0.8457255650
	    H    -4.6178373523   0.3701655136  -0.0692961790
	    H    -3.8474779359  -0.8675015487   0.9046820902
	Saving final (previous) structure.
			--------------------------
			 OPTKING Finished Execution 
			--------------------------

    Final optimized geometry and variables:
    Molecular point group: c1
    Full point group: C1

    Geometry (in Angstrom), charge = 0, multiplicity = 1:

    H            4.617842823281     0.370111427498    -0.069269024335
    C            3.758033160304    -0.289459450344    -0.010592289980
    C            2.452645953058     0.504222178240    -0.042160308920
    H            3.816549361055    -0.982094225012    -0.845493908947
    H            3.847587435376    -0.867469253383     0.904902095918
    C            1.217349631905    -0.386723678475     0.039429188051
    H            2.394262398808     1.093708396643    -0.951824040057
    H            2.440823931687     1.210638772339     0.786228567978
    N            0.000003033613     0.397874399840    -0.023259321148
    H            1.215349367813    -1.074613208727    -0.801859479237
    H            1.269580083535    -1.003437326880     0.942929941016
    C           -1.217365459176    -0.386707691247     0.039276949961
    H           -0.000031017177     1.072115693949     0.718655870461
    C           -2.452633493024     0.504241307398    -0.042481074017
    H           -1.215290503691    -1.074556103268    -0.802041613698
    H           -1.269739220301    -1.003476177360     0.942734995401
    C           -3.758028934912    -0.289422685421    -0.010780435142
    H           -2.394219810914     1.093569869797    -0.952170027366
    H           -2.440793406837     1.210787709737     0.785870751981
    H           -3.816659168801    -0.981992573081    -0.845725500450
    H           -4.617836999692     0.370165485300    -0.069296173709
    H           -3.847477642134    -0.867501482490     0.904682021129

	Cleaning optimization helper files.


Properties will be evaluated at   0.000000,   0.000000,   0.000000 Bohr

Properties computed using the  density matrix

  Nuclear Dipole Moment: (a.u.)
     X:    -0.0000      Y:    -1.3455      Z:     0.6079

  Electronic Dipole Moment: (a.u.)
     X:     0.0000      Y:     1.2383      Z:    -0.2607

  Dipole Moment: (a.u.)
     X:    -0.0000      Y:    -0.1073      Z:     0.3471     Total:     0.3633

  Dipole Moment: (Debye)
     X:    -0.0001      Y:    -0.2726      Z:     0.8824     Total:     0.9235

  Quadrupole Moment: (Debye Ang)
    XX:   -47.2084     YY:   -47.9250     ZZ:   -47.2241
    XY:     0.0000     XZ:     0.0003     YZ:     1.8045

  Traceless Quadrupole Moment: (Debye Ang)
    XX:     0.2441     YY:    -0.4725     ZZ:     0.2284
    XY:     0.0000     XZ:     0.0003     YZ:     1.8045

  Mulliken Charges: (a.u.)
   Center  Symbol    Alpha    Beta     Spin     Total
       1     H     0.41774  0.41774  0.00000  0.16453
       2     C     3.24326  3.24326  0.00000 -0.48653
       3     C     3.15556  3.15556  0.00000 -0.31112
       4     H     0.42070  0.42070  0.00000  0.15860
       5     H     0.42168  0.42168  0.00000  0.15665
       6     C     3.04636  3.04636  0.00000 -0.09271
       7     H     0.41299  0.41299  0.00000  0.17402
       8     H     0.42670  0.42670  0.00000  0.14661
       9     N     3.85848  3.85848  0.00000 -0.71696
      10     H     0.42178  0.42178  0.00000  0.15645
      11     H     0.43632  0.43632  0.00000  0.12736
      12     C     3.04636  3.04636  0.00000 -0.09271
      13     H     0.33537  0.33537  0.00000  0.32926
      14     C     3.15556  3.15556  0.00000 -0.31111
      15     H     0.42178  0.42178  0.00000  0.15644
      16     H     0.43632  0.43632  0.00000  0.12736
      17     C     3.24327  3.24327  0.00000 -0.48653
      18     H     0.41298  0.41298  0.00000  0.17404
      19     H     0.42671  0.42671  0.00000  0.14659
      20     H     0.42070  0.42070  0.00000  0.15860
      21     H     0.41774  0.41774  0.00000  0.16453
      22     H     0.42168  0.42168  0.00000  0.15665

   Total alpha = 29.00000, Total beta = 29.00000, Total charge =  0.00000


*** PSI4 exiting successfully. Buy a developer a beer!
