    -----------------------------------------------------------------------
          Psi4: An Open-Source Ab Initio Electronic Structure Package
                              Psi4 (no tag) Driver

                          Git: Rev {detached?}  

    J. M. Turney, A. C. Simmonett, R. M. Parrish, E. G. Hohenstein,
    F. A. Evangelista, J. T. Fermann, B. J. Mintz, L. A. Burns, J. J. Wilke,
    M. L. Abrams, N. J. Russ, M. L. Leininger, C. L. Janssen, E. T. Seidl,
    W. D. Allen, H. F. Schaefer, R. A. King, E. F. Valeev, C. D. Sherrill,
    and T. D. Crawford, WIREs Comput. Mol. Sci. 2, 556-565 (2012)
    (doi: 10.1002/wcms.93)

                         Additional Contributions by
    A. E. DePrince, M. Saitow, U. Bozkaya, A. Yu. Sokolov
    -----------------------------------------------------------------------


    Psi4 started on: Tue Jul  5 16:35:04 2016

    Process ID:  17563
    PSI4DATADIR: /export131/home/mjharvey/miniconda3/share
    Memory level set to 256.000 MB

  ==> Input File <==

--------------------------------------------------------------------------
set {
	reference rhf
	basis 6-31G*
}


set_num_threads( 1 )
memory 2 gb

molecule MOL {
0 1

O	 -0.682937	 1.318834	 -0.186099
C	 -0.860635	 0.152188	 -0.042321
C	 -2.173363	 -0.477127	 0.338347
O	 0.083258	 -0.765189	 -0.202595
H	 -2.477673	 -1.180929	 -0.427595
H	 -2.923125	 0.290956	 0.455536
H	 -2.058825	 -1.029004	 1.264191
C	 0.121501	 -1.491846	 -1.428689
C	 -1.095114	 -2.385336	 -1.584160
H	 1.036230	 -2.063103	 -1.474245
H	 0.142923	 -0.730013	 -2.194620
H	 -1.075634	 -2.866096	 -2.557413
H	 -1.107133	 -3.156519	 -0.824226
H	 -2.007559	 -1.803692	 -1.509670

	symmetry c1
}
set optking {
	frozen_dihedral = ("
		10 8 4 2
	")
}

ee = energy('scf')
oeprop('DIPOLE', 'QUADRUPOLE', 'MULLIKEN_CHARGES')
f=open( 'psi4out.xyz', 'w' )
f.write( "14  " )
f.write( str(ee) + "\n" )
f.write( MOL.save_string_xyz() )
f.close()
--------------------------------------------------------------------------

  Memory set to   2.000 GiB by Python script.

*** tstart() called on cx1-1-2-4.cx1.hpc.ic.ac.uk
*** at Tue Jul  5 16:35:04 2016


         ---------------------------------------------------------
                                   SCF
            by Justin Turney, Rob Parrish, and Andy Simmonett
                              RHF Reference
                        1 Threads,   2000 MiB Core
         ---------------------------------------------------------

  ==> Geometry <==

    Molecular point group: c1
    Full point group: C1

    Geometry (in Angstrom), charge = 0, multiplicity = 1:

       Center              X                  Y                   Z               Mass       
    ------------   -----------------  -----------------  -----------------  -----------------
           O          0.092008985130     1.934449732445     0.337951480710    15.994914619560
           C         -0.085689014870     0.767803732445     0.481729480710    12.000000000000
           C         -1.398417014870     0.138488732445     0.862397480710    12.000000000000
           O          0.858203985130    -0.149573267555     0.321455480710    15.994914619560
           H         -1.702727014870    -0.565313267555     0.096455480710     1.007825032070
           H         -2.148179014870     0.906571732445     0.979586480710     1.007825032070
           H         -1.283879014870    -0.413388267555     1.788241480710     1.007825032070
           C          0.896446985130    -0.876230267555    -0.904638519290    12.000000000000
           C         -0.320168014870    -1.769720267555    -1.060109519290    12.000000000000
           H          1.811175985130    -1.447487267555    -0.950194519290     1.007825032070
           H          0.917868985130    -0.114397267555    -1.670569519290     1.007825032070
           H         -0.300688014870    -2.250480267555    -2.033362519290     1.007825032070
           H         -0.332187014870    -2.540903267555    -0.300175519290     1.007825032070
           H         -1.232613014870    -1.188076267555    -0.985619519290     1.007825032070

  Running in c1 symmetry.

  Rotational constants: A =      0.20526  B =      0.09467  C =      0.07406 [cm^-1]
  Rotational constants: A =   6153.68884  B =   2837.98921  C =   2220.19868 [MHz]
  Nuclear repulsion =  252.521169589415166

  Charge       = 0
  Multiplicity = 1
  Electrons    = 48
  Nalpha       = 24
  Nbeta        = 24

  ==> Algorithm <==

  SCF Algorithm Type is DF.
  DIIS enabled.
  MOM disabled.
  Fractional occupation disabled.
  Guess Type is CORE.
  Energy threshold   = 1.00e-06
  Density threshold  = 1.00e-06
  Integral threshold = 0.00e+00

  ==> Primary Basis <==

  Basis Set: 6-31G*
    Number of shells: 52
    Number of basis function: 106
    Number of Cartesian functions: 106
    Spherical Harmonics?: false
    Max angular momentum: 2

  ==> Pre-Iterations <==

   -------------------------------------------------------
    Irrep   Nso     Nmo     Nalpha   Nbeta   Ndocc  Nsocc
   -------------------------------------------------------
     A        106     106       0       0       0       0
   -------------------------------------------------------
    Total     106     106      24      24      24       0
   -------------------------------------------------------

 OEINTS: Overlap, kinetic, potential, dipole, and quadrupole integrals
         stored in file 35.

  ==> Integral Setup <==

  ==> DFJK: Density-Fitted J/K Matrices <==

    J tasked:                  Yes
    K tasked:                  Yes
    wK tasked:                  No
    OpenMP threads:              1
    Integrals threads:           1
    Memory (MB):              1430
    Algorithm:                Core
    Integral Cache:           NONE
    Schwarz Cutoff:          1E-12
    Fitting Condition:       1E-12

   => Auxiliary Basis Set <=

  Basis Set: 
    Number of shells: 216
    Number of basis function: 686
    Number of Cartesian functions: 686
    Spherical Harmonics?: false
    Max angular momentum: 3

  Minimum eigenvalue in the overlap matrix is 3.8567970645E-03.
  Using Symmetric Orthogonalization.
  SCF Guess: Core (One-Electron) Hamiltonian.

  ==> Iterations <==

                           Total Energy        Delta E     RMS |[F,P]|

   @DF-RHF iter   1:  -237.17201770738362   -2.37172e+02   8.46510e-02 
   @DF-RHF iter   2:  -201.69536158252438    3.54767e+01   6.62622e-02 DIIS
   @DF-RHF iter   3:  -266.21547497755250   -6.45201e+01   5.83121e-02 DIIS
   @DF-RHF iter   4:  -296.91788147611624   -3.07024e+01   3.09839e-02 DIIS
   @DF-RHF iter   5:  -305.04081191636374   -8.12293e+00   1.19288e-02 DIIS
   @DF-RHF iter   6:  -305.77472551523203   -7.33914e-01   2.91349e-03 DIIS
   @DF-RHF iter   7:  -305.80488281548753   -3.01573e-02   1.83119e-03 DIIS
   @DF-RHF iter   8:  -305.81794774703178   -1.30649e-02   1.01342e-03 DIIS
   @DF-RHF iter   9:  -305.82419753005502   -6.24978e-03   3.04818e-04 DIIS
   @DF-RHF iter  10:  -305.82485387132067   -6.56341e-04   8.86520e-05 DIIS
   @DF-RHF iter  11:  -305.82491686492585   -6.29936e-05   2.98281e-05 DIIS
   @DF-RHF iter  12:  -305.82492391824007   -7.05331e-06   8.52505e-06 DIIS
   @DF-RHF iter  13:  -305.82492467842462   -7.60185e-07   2.31405e-06 DIIS
   @DF-RHF iter  14:  -305.82492476910488   -9.06803e-08   8.88646e-07 DIIS

  ==> Post-Iterations <==

    Orbital Energies (a.u.)
    -----------------------

    Doubly Occupied:                                                      

       1A    -20.584964     2A    -20.554609     3A    -11.376311  
       4A    -11.303467     5A    -11.233476     6A    -11.227739  
       7A     -1.462427     8A     -1.367792     9A     -1.053371  
      10A     -1.022466    11A     -0.890983    12A     -0.771741  
      13A     -0.708311    14A     -0.692009    15A     -0.669826  
      16A     -0.618744    17A     -0.602038    18A     -0.591053  
      19A     -0.568255    20A     -0.545426    21A     -0.493721  
      22A     -0.480802    23A     -0.454650    24A     -0.439161  

    Virtual:                                                              

      25A      0.173770    26A      0.231831    27A      0.260511  
      28A      0.280023    29A      0.285371    30A      0.299125  
      31A      0.318001    32A      0.321765    33A      0.351980  
      34A      0.395981    35A      0.405410    36A      0.454036  
      37A      0.517664    38A      0.573030    39A      0.692114  
      40A      0.710196    41A      0.740129    42A      0.761856  
      43A      0.794757    44A      0.805496    45A      0.842479  
      46A      0.849976    47A      0.886130    48A      0.963111  
      49A      0.984156    50A      1.028225    51A      1.055887  
      52A      1.102536    53A      1.119723    54A      1.142217  
      55A      1.156757    56A      1.178311    57A      1.191352  
      58A      1.200964    59A      1.236474    60A      1.267386  
      61A      1.293597    62A      1.320250    63A      1.354740  
      64A      1.410903    65A      1.413859    66A      1.449708  
      67A      1.570876    68A      1.658397    69A      1.695760  
      70A      1.740906    71A      1.812517    72A      1.859353  
      73A      1.959173    74A      2.026021    75A      2.062110  
      76A      2.075595    77A      2.125954    78A      2.160451  
      79A      2.187155    80A      2.234743    81A      2.249799  
      82A      2.286746    83A      2.347934    84A      2.415348  
      85A      2.451890    86A      2.500481    87A      2.559339  
      88A      2.607562    89A      2.662774    90A      2.666647  
      91A      2.700877    92A      2.776255    93A      2.829877  
      94A      2.909971    95A      3.024153    96A      3.171244  
      97A      3.253058    98A      3.277088    99A      3.374144  
     100A      3.495103   101A      4.380451   102A      4.535975  
     103A      4.624598   104A      4.657748   105A      4.863833  
     106A      4.918511  

    Final Occupation by Irrep:
              A 
    DOCC [    24 ]

  Energy converged.

  @DF-RHF Final Energy:  -305.82492476910488

   => Energetics <=

    Nuclear Repulsion Energy =            252.5211695894151660
    One-Electron Energy =                -917.2655015023085525
    Two-Electron Energy =                 358.9194071437874527
    DFT Exchange-Correlation Energy =       0.0000000000000000
    Empirical Dispersion Energy =           0.0000000000000000
    PCM Polarization Energy =               0.0000000000000000
    EFP Energy =                            0.0000000000000000
    Total Energy =                       -305.8249247691059054

    Alert: EFP and PCM quantities not currently incorporated into SCF psivars.

Properties will be evaluated at   0.000000,   0.000000,   0.000000 Bohr
  ==> Properties <==


Properties computed using the SCF density matrix

  Nuclear Dipole Moment: (a.u.)
     X:    -3.9996      Y:    -7.1288      Z:    -2.8801

  Electronic Dipole Moment: (a.u.)
     X:     3.4814      Y:     5.7057      Z:     2.3918

  Dipole Moment: (a.u.)
     X:    -0.5181      Y:    -1.4231      Z:    -0.4883     Total:     1.5913

  Dipole Moment: (Debye)
     X:    -1.3170      Y:    -3.6172      Z:    -1.2412     Total:     4.0447


  Saving occupied orbitals to File 180.

*** tstop() called on cx1-1-2-4.cx1.hpc.ic.ac.uk at Tue Jul  5 16:35:12 2016
Module time:
	user time   =       5.89 seconds =       0.10 minutes
	system time =       0.04 seconds =       0.00 minutes
	total time  =          8 seconds =       0.13 minutes
Total time:
	user time   =       5.89 seconds =       0.10 minutes
	system time =       0.04 seconds =       0.00 minutes
	total time  =          8 seconds =       0.13 minutes


Properties will be evaluated at   0.000000,   0.000000,   0.000000 Bohr

Properties computed using the  density matrix

  Nuclear Dipole Moment: (a.u.)
     X:    -3.9996      Y:    -7.1288      Z:    -2.8801

  Electronic Dipole Moment: (a.u.)
     X:     3.4814      Y:     5.7057      Z:     2.3918

  Dipole Moment: (a.u.)
     X:    -0.5181      Y:    -1.4231      Z:    -0.4883     Total:     1.5913

  Dipole Moment: (Debye)
     X:    -1.3170      Y:    -3.6172      Z:    -1.2412     Total:     4.0447

  Quadrupole Moment: (Debye Ang)
    XX:   -36.2050     YY:   -42.3423     ZZ:   -34.4948
    XY:    -1.6709     XZ:    -2.2272     YZ:     0.5969

  Traceless Quadrupole Moment: (Debye Ang)
    XX:     1.4757     YY:    -4.6616     ZZ:     3.1859
    XY:    -1.6709     XZ:    -2.2272     YZ:     0.5969

  Mulliken Charges: (a.u.)
   Center  Symbol    Alpha    Beta     Spin     Total
       1     O     4.25569  4.25569  0.00000 -0.51138
       2     C     2.63033  2.63033  0.00000  0.73935
       3     C     3.28546  3.28546  0.00000 -0.57091
       4     O     4.31096  4.31096  0.00000 -0.62192
       5     H     0.41073  0.41073  0.00000  0.17855
       6     H     0.39903  0.39903  0.00000  0.20194
       7     H     0.39912  0.39912  0.00000  0.20175
       8     C     3.00337  3.00337  0.00000 -0.00673
       9     C     3.26245  3.26245  0.00000 -0.52490
      10     H     0.39975  0.39975  0.00000  0.20050
      11     H     0.40981  0.40981  0.00000  0.18038
      12     H     0.41135  0.41135  0.00000  0.17731
      13     H     0.40764  0.40764  0.00000  0.18473
      14     H     0.41433  0.41433  0.00000  0.17133

   Total alpha = 24.00000, Total beta = 24.00000, Total charge =  0.00000


*** PSI4 exiting successfully. Buy a developer a beer!
