    -----------------------------------------------------------------------
          Psi4: An Open-Source Ab Initio Electronic Structure Package
                              Psi4 (no tag) Driver

                          Git: Rev {detached?}  

    J. M. Turney, A. C. Simmonett, R. M. Parrish, E. G. Hohenstein,
    F. A. Evangelista, J. T. Fermann, B. J. Mintz, L. A. Burns, J. J. Wilke,
    M. L. Abrams, N. J. Russ, M. L. Leininger, C. L. Janssen, E. T. Seidl,
    W. D. Allen, H. F. Schaefer, R. A. King, E. F. Valeev, C. D. Sherrill,
    and T. D. Crawford, WIREs Comput. Mol. Sci. 2, 556-565 (2012)
    (doi: 10.1002/wcms.93)

                         Additional Contributions by
    A. E. DePrince, M. Saitow, U. Bozkaya, A. Yu. Sokolov
    -----------------------------------------------------------------------


    Psi4 started on: Tue Jul  5 16:40:05 2016

    Process ID:  23584
    PSI4DATADIR: /export131/home/mjharvey/miniconda3/share
    Memory level set to 256.000 MB

  ==> Input File <==

--------------------------------------------------------------------------
set {
	reference rhf
	basis 6-31G*
}


set_num_threads( 1 )
memory 2 gb

molecule MOL {
0 1

O	 -1.276010	 1.052711	 -0.768302
C	 -1.204840	 0.067374	 -0.106123
C	 -2.388195	 -0.672128	 0.458071
O	 -0.067104	 -0.527208	 0.221609
H	 -2.388023	 -1.694060	 0.097175
H	 -3.300579	 -0.174919	 0.164318
H	 -2.315377	 -0.706351	 1.539059
C	 0.685678	 -1.200513	 -0.797169
C	 0.854243	 -0.196177	 -1.923439
C	 -0.046750	 -2.461577	 -1.228344
H	 1.647812	 -1.460943	 -0.381257
H	 1.365479	 0.692374	 -1.570789
H	 1.438215	 -0.631188	 -2.727848
H	 -0.110673	 0.099636	 -2.321036
H	 0.506523	 -2.963704	 -2.015601
H	 -0.150521	 -3.148262	 -0.397880
H	 -1.033708	 -2.215992	 -1.607303

	symmetry c1
}
set optking {
	frozen_dihedral = ("
		11 8 4 2
	")
}

ee = energy('scf')
oeprop('DIPOLE', 'QUADRUPOLE', 'MULLIKEN_CHARGES')
f=open( 'psi4out.xyz', 'w' )
f.write( "17  " )
f.write( str(ee) + "\n" )
f.write( MOL.save_string_xyz() )
f.close()
--------------------------------------------------------------------------

  Memory set to   2.000 GiB by Python script.

*** tstart() called on cx1-1-3-4.cx1.hpc.ic.ac.uk
*** at Tue Jul  5 16:40:06 2016


         ---------------------------------------------------------
                                   SCF
            by Justin Turney, Rob Parrish, and Andy Simmonett
                              RHF Reference
                        1 Threads,   2000 MiB Core
         ---------------------------------------------------------

  ==> Geometry <==

    Molecular point group: c1
    Full point group: C1

    Geometry (in Angstrom), charge = 0, multiplicity = 1:

       Center              X                  Y                   Z               Mass       
    ------------   -----------------  -----------------  -----------------  -----------------
           O         -0.775793073409     1.615568434932    -0.168685802552    15.994914619560
           C         -0.704623073409     0.630231434932     0.493493197448    12.000000000000
           C         -1.887978073409    -0.109270565068     1.057687197448    12.000000000000
           O          0.433112926591     0.035649434932     0.821225197448    15.994914619560
           H         -1.887806073409    -1.131202565068     0.696791197448     1.007825032070
           H         -2.800362073409     0.387938434932     0.763934197448     1.007825032070
           H         -1.815160073409    -0.143493565068     2.138675197448     1.007825032070
           C          1.185894926591    -0.637655565068    -0.197552802552    12.000000000000
           C          1.354459926591     0.366680434932    -1.323822802552    12.000000000000
           C          0.453466926591    -1.898719565068    -0.628727802552    12.000000000000
           H          2.148028926591    -0.898085565068     0.218359197448     1.007825032070
           H          1.865695926591     1.255231434932    -0.971172802552     1.007825032070
           H          1.938431926591    -0.068330565068    -2.128231802552     1.007825032070
           H          0.389543926591     0.662493434932    -1.721419802552     1.007825032070
           H          1.006739926591    -2.400846565068    -1.415984802552     1.007825032070
           H          0.349695926591    -2.585404565068     0.201736197448     1.007825032070
           H         -0.533491073409    -1.653134565068    -1.007686802552     1.007825032070

  Running in c1 symmetry.

  Rotational constants: A =      0.13015  B =      0.07702  C =      0.05851 [cm^-1]
  Rotational constants: A =   3901.80492  B =   2309.00852  C =   1754.07083 [MHz]
  Nuclear repulsion =  332.240350818999502

  Charge       = 0
  Multiplicity = 1
  Electrons    = 56
  Nalpha       = 28
  Nbeta        = 28

  ==> Algorithm <==

  SCF Algorithm Type is DF.
  DIIS enabled.
  MOM disabled.
  Fractional occupation disabled.
  Guess Type is CORE.
  Energy threshold   = 1.00e-06
  Density threshold  = 1.00e-06
  Integral threshold = 0.00e+00

  ==> Primary Basis <==

  Basis Set: 6-31G*
    Number of shells: 62
    Number of basis function: 125
    Number of Cartesian functions: 125
    Spherical Harmonics?: false
    Max angular momentum: 2

  ==> Pre-Iterations <==

   -------------------------------------------------------
    Irrep   Nso     Nmo     Nalpha   Nbeta   Ndocc  Nsocc
   -------------------------------------------------------
     A        125     125       0       0       0       0
   -------------------------------------------------------
    Total     125     125      28      28      28       0
   -------------------------------------------------------

 OEINTS: Overlap, kinetic, potential, dipole, and quadrupole integrals
         stored in file 35.

  ==> Integral Setup <==

  ==> DFJK: Density-Fitted J/K Matrices <==

    J tasked:                  Yes
    K tasked:                  Yes
    wK tasked:                  No
    OpenMP threads:              1
    Integrals threads:           1
    Memory (MB):              1430
    Algorithm:                Core
    Integral Cache:           NONE
    Schwarz Cutoff:          1E-12
    Fitting Condition:       1E-12

   => Auxiliary Basis Set <=

  Basis Set: 
    Number of shells: 258
    Number of basis function: 817
    Number of Cartesian functions: 817
    Spherical Harmonics?: false
    Max angular momentum: 3

  Minimum eigenvalue in the overlap matrix is 3.3116805719E-03.
  Using Symmetric Orthogonalization.
  SCF Guess: Core (One-Electron) Hamiltonian.

  ==> Iterations <==

                           Total Energy        Delta E     RMS |[F,P]|

   @DF-RHF iter   1:  -256.66745101553505   -2.56667e+02   7.72143e-02 
   @DF-RHF iter   2:  -255.25742760082272    1.41002e+00   5.44283e-02 DIIS
   @DF-RHF iter   3:  -298.35525214739818   -4.30978e+01   5.83819e-02 DIIS
   @DF-RHF iter   4:  -334.72709837105134   -3.63718e+01   2.85350e-02 DIIS
   @DF-RHF iter   5:  -342.50473124183208   -7.77763e+00   1.44886e-02 DIIS
   @DF-RHF iter   6:  -344.63811501649337   -2.13338e+00   5.50302e-03 DIIS
   @DF-RHF iter   7:  -344.86379187754727   -2.25677e-01   1.39250e-03 DIIS
   @DF-RHF iter   8:  -344.88141684030910   -1.76250e-02   4.84174e-04 DIIS
   @DF-RHF iter   9:  -344.88393467855036   -2.51784e-03   1.46833e-04 DIIS
   @DF-RHF iter  10:  -344.88418807149895   -2.53393e-04   6.74371e-05 DIIS
   @DF-RHF iter  11:  -344.88423293627653   -4.48648e-05   2.34786e-05 DIIS
   @DF-RHF iter  12:  -344.88423977051417   -6.83424e-06   6.18610e-06 DIIS
   @DF-RHF iter  13:  -344.88424058940615   -8.18892e-07   2.34925e-06 DIIS
   @DF-RHF iter  14:  -344.88424075840129   -1.68995e-07   1.06333e-06 DIIS
   @DF-RHF iter  15:  -344.88424079477312   -3.63718e-08   4.57536e-07 DIIS

  ==> Post-Iterations <==

    Orbital Energies (a.u.)
    -----------------------

    Doubly Occupied:                                                      

       1A    -20.582043     2A    -20.550762     3A    -11.375894  
       4A    -11.301129     5A    -11.231381     6A    -11.228685  
       7A    -11.207082     8A     -1.462729     9A     -1.365270  
      10A     -1.075877    11A     -1.010524    12A     -0.949516  
      13A     -0.863770    14A     -0.739653    15A     -0.700801  
      16A     -0.677037    17A     -0.669309    18A     -0.612916  
      19A     -0.591716    20A     -0.581547    21A     -0.575755  
      22A     -0.555681    23A     -0.534518    24A     -0.517967  
      25A     -0.508666    26A     -0.472284    27A     -0.444138  
      28A     -0.428831  

    Virtual:                                                              

      29A      0.175561    30A      0.222855    31A      0.259265  
      32A      0.281172    33A      0.295254    34A      0.303311  
      35A      0.309610    36A      0.325088    37A      0.335222  
      38A      0.347167    39A      0.352181    40A      0.367261  
      41A      0.393687    42A      0.426538    43A      0.439870  
      44A      0.530983    45A      0.569536    46A      0.688184  
      47A      0.720637    48A      0.721895    49A      0.760104  
      50A      0.779092    51A      0.816798    52A      0.832342  
      53A      0.845431    54A      0.870034    55A      0.894690  
      56A      0.927205    57A      0.953436    58A      0.977250  
      59A      0.992184    60A      1.059203    61A      1.082439  
      62A      1.113662    63A      1.154321    64A      1.155511  
      65A      1.166376    66A      1.168548    67A      1.185192  
      68A      1.188787    69A      1.218294    70A      1.228489  
      71A      1.246331    72A      1.255146    73A      1.281924  
      74A      1.353220    75A      1.374423    76A      1.396691  
      77A      1.433631    78A      1.514607    79A      1.571321  
      80A      1.588524    81A      1.670803    82A      1.722854  
      83A      1.757430    84A      1.850066    85A      1.932071  
      86A      1.969522    87A      2.028781    88A      2.030080  
      89A      2.062943    90A      2.095773    91A      2.128384  
      92A      2.147280    93A      2.185687    94A      2.219844  
      95A      2.224410    96A      2.295828    97A      2.324458  
      98A      2.372944    99A      2.422352   100A      2.455159  
     101A      2.523530   102A      2.529135   103A      2.578226  
     104A      2.588063   105A      2.615089   106A      2.653116  
     107A      2.734797   108A      2.764071   109A      2.784535  
     110A      2.851474   111A      2.918775   112A      2.995549  
     113A      3.047731   114A      3.194889   115A      3.229851  
     116A      3.345354   117A      3.379114   118A      3.513591  
     119A      4.425784   120A      4.537448   121A      4.617194  
     122A      4.677202   123A      4.736005   124A      4.903225  
     125A      5.012955  

    Final Occupation by Irrep:
              A 
    DOCC [    28 ]

  Energy converged.

  @DF-RHF Final Energy:  -344.88424079477312

   => Energetics <=

    Nuclear Repulsion Energy =            332.2403508189995023
    One-Electron Energy =               -1128.6183457266533878
    Two-Electron Energy =                 451.4937541128830389
    DFT Exchange-Correlation Energy =       0.0000000000000000
    Empirical Dispersion Energy =           0.0000000000000000
    PCM Polarization Energy =               0.0000000000000000
    EFP Energy =                            0.0000000000000000
    Total Energy =                       -344.8842407947707898

    Alert: EFP and PCM quantities not currently incorporated into SCF psivars.

Properties will be evaluated at   0.000000,   0.000000,   0.000000 Bohr
  ==> Properties <==


Properties computed using the SCF density matrix

  Nuclear Dipole Moment: (a.u.)
     X:     0.6183      Y:    -6.1558      Z:    -3.0202

  Electronic Dipole Moment: (a.u.)
     X:    -0.5480      Y:     4.9518      Z:     3.0523

  Dipole Moment: (a.u.)
     X:     0.0703      Y:    -1.2040      Z:     0.0321     Total:     1.2065

  Dipole Moment: (Debye)
     X:     0.1787      Y:    -3.0603      Z:     0.0816     Total:     3.0666


  Saving occupied orbitals to File 180.

*** tstop() called on cx1-1-3-4.cx1.hpc.ic.ac.uk at Tue Jul  5 16:40:18 2016
Module time:
	user time   =      11.43 seconds =       0.19 minutes
	system time =       0.08 seconds =       0.00 minutes
	total time  =         12 seconds =       0.20 minutes
Total time:
	user time   =      11.43 seconds =       0.19 minutes
	system time =       0.08 seconds =       0.00 minutes
	total time  =         12 seconds =       0.20 minutes


Properties will be evaluated at   0.000000,   0.000000,   0.000000 Bohr

Properties computed using the  density matrix

  Nuclear Dipole Moment: (a.u.)
     X:     0.6183      Y:    -6.1558      Z:    -3.0202

  Electronic Dipole Moment: (a.u.)
     X:    -0.5480      Y:     4.9518      Z:     3.0523

  Dipole Moment: (a.u.)
     X:     0.0703      Y:    -1.2040      Z:     0.0321     Total:     1.2065

  Dipole Moment: (Debye)
     X:     0.1787      Y:    -3.0603      Z:     0.0816     Total:     3.0666

  Quadrupole Moment: (Debye Ang)
    XX:   -40.3610     YY:   -47.1569     ZZ:   -43.3080
    XY:     0.8870     XZ:    -2.7376     YZ:     1.6161

  Traceless Quadrupole Moment: (Debye Ang)
    XX:     3.2476     YY:    -3.5483     ZZ:     0.3007
    XY:     0.8870     XZ:    -2.7376     YZ:     1.6161

  Mulliken Charges: (a.u.)
   Center  Symbol    Alpha    Beta     Spin     Total
       1     O     4.26571  4.26571  0.00000 -0.53141
       2     C     2.62502  2.62502  0.00000  0.74996
       3     C     3.28105  3.28105  0.00000 -0.56209
       4     O     4.31849  4.31849  0.00000 -0.63699
       5     H     0.40478  0.40478  0.00000  0.19043
       6     H     0.40049  0.40049  0.00000  0.19903
       7     H     0.39935  0.39935  0.00000  0.20129
       8     C     2.92959  2.92959  0.00000  0.14082
       9     C     3.24950  3.24950  0.00000 -0.49900
      10     C     3.25123  3.25123  0.00000 -0.50246
      11     H     0.40446  0.40446  0.00000  0.19109
      12     H     0.40510  0.40510  0.00000  0.18980
      13     H     0.42494  0.42494  0.00000  0.15013
      14     H     0.39963  0.39963  0.00000  0.20075
      15     H     0.41246  0.41246  0.00000  0.17508
      16     H     0.40994  0.40994  0.00000  0.18011
      17     H     0.41826  0.41826  0.00000  0.16347

   Total alpha = 28.00000, Total beta = 28.00000, Total charge = -0.00000


*** PSI4 exiting successfully. Buy a developer a beer!
