    -----------------------------------------------------------------------
          Psi4: An Open-Source Ab Initio Electronic Structure Package
                              Psi4 (no tag) Driver

                          Git: Rev {detached?}  

    J. M. Turney, A. C. Simmonett, R. M. Parrish, E. G. Hohenstein,
    F. A. Evangelista, J. T. Fermann, B. J. Mintz, L. A. Burns, J. J. Wilke,
    M. L. Abrams, N. J. Russ, M. L. Leininger, C. L. Janssen, E. T. Seidl,
    W. D. Allen, H. F. Schaefer, R. A. King, E. F. Valeev, C. D. Sherrill,
    and T. D. Crawford, WIREs Comput. Mol. Sci. 2, 556-565 (2012)
    (doi: 10.1002/wcms.93)

                         Additional Contributions by
    A. E. DePrince, M. Saitow, U. Bozkaya, A. Yu. Sokolov
    -----------------------------------------------------------------------


    Psi4 started on: Tue Jul  5 16:46:02 2016

    Process ID:   1652
    PSI4DATADIR: /export131/home/mjharvey/miniconda3/share
    Memory level set to 256.000 MB

  ==> Input File <==

--------------------------------------------------------------------------
set {
	reference rhf
	basis 6-31G*
}


set_num_threads( 1 )
memory 2 gb

molecule MOL {
0 1

O	 3.225979	 0.970355	 -0.599647
C	 2.701189	 0.057885	 -0.047330
C	 1.245376	 -0.013843	 0.345420
O	 3.347903	 -1.046386	 0.304773
C	 0.455112	 1.231400	 -0.050772
H	 0.838542	 -0.913825	 -0.103701
H	 1.208210	 -0.175333	 1.419774
C	 -0.998893	 1.219485	 0.433193
H	 0.482531	 1.345121	 -1.130325
H	 0.957290	 2.103070	 0.354729
C	 -1.883438	 0.145884	 -0.207175
H	 -1.431207	 2.195402	 0.224832
H	 -1.019646	 1.105716	 1.516076
C	 -3.347647	 0.245583	 0.225435
H	 -1.822183	 0.231698	 -1.291012
H	 -1.510341	 -0.844814	 0.042401
C	 -4.239992	 -0.825570	 -0.404234
H	 -3.732888	 1.230466	 -0.033079
H	 -3.408585	 0.170602	 1.310038
C	 -4.100254	 -2.190690	 0.268537
H	 -5.278082	 -0.503769	 -0.354672
H	 -3.999975	 -0.918569	 -1.461364
H	 -4.744677	 -2.928279	 -0.199745
H	 -4.367210	 -2.138544	 1.320303
H	 -3.079107	 -2.556161	 0.205569
C	 4.728119	 -1.109107	 -0.004993
H	 4.882018	 -1.033965	 -1.071845
H	 5.068212	 -2.067527	 0.355250
H	 5.265056	 -0.311663	 0.488280

	symmetry c1
}
set optking {
	frozen_dihedral = ("
		17 14 11 15,
		15 11 8 5,
		6 3 5 9,
		11 8 5 9,
		2 4 26 27,
		1 2 4 26,
		6 3 2 1
	")
}

ee = energy('scf')
oeprop('DIPOLE', 'QUADRUPOLE', 'MULLIKEN_CHARGES')
f=open( 'psi4out.xyz', 'w' )
f.write( "29  " )
f.write( str(ee) + "\n" )
f.write( MOL.save_string_xyz() )
f.close()
--------------------------------------------------------------------------

  Memory set to   2.000 GiB by Python script.

*** tstart() called on cx1-3-14-1.cx1.hpc.ic.ac.uk
*** at Tue Jul  5 16:46:02 2016


         ---------------------------------------------------------
                                   SCF
            by Justin Turney, Rob Parrish, and Andy Simmonett
                              RHF Reference
                        1 Threads,   2000 MiB Core
         ---------------------------------------------------------

  ==> Geometry <==

    Molecular point group: c1
    Full point group: C1

    Geometry (in Angstrom), charge = 0, multiplicity = 1:

       Center              X                  Y                   Z               Mass       
    ------------   -----------------  -----------------  -----------------  -----------------
           O          3.073897742871     1.110373311111    -0.622314645264    15.994914619560
           C          2.549107742871     0.197903311111    -0.069997645264    12.000000000000
           C          1.093294742871     0.126175311111     0.322752354736    12.000000000000
           O          3.195821742871    -0.906367688889     0.282105354736    15.994914619560
           C          0.303030742871     1.371418311111    -0.073439645264    12.000000000000
           H          0.686460742871    -0.773806688889    -0.126368645264     1.007825032070
           H          1.056128742871    -0.035314688889     1.397106354736     1.007825032070
           C         -1.150974257129     1.359503311111     0.410525354736    12.000000000000
           H          0.330449742871     1.485139311111    -1.152992645264     1.007825032070
           H          0.805208742871     2.243088311111     0.332061354736     1.007825032070
           C         -2.035519257129     0.285902311111    -0.229842645264    12.000000000000
           H         -1.583288257129     2.335420311111     0.202164354736     1.007825032070
           H         -1.171727257129     1.245734311111     1.493408354736     1.007825032070
           C         -3.499728257129     0.385601311111     0.202767354736    12.000000000000
           H         -1.974264257129     0.371716311111    -1.313679645264     1.007825032070
           H         -1.662422257129    -0.704795688889     0.019733354736     1.007825032070
           C         -4.392073257129    -0.685551688889    -0.426901645264    12.000000000000
           H         -3.884969257129     1.370484311111    -0.055746645264     1.007825032070
           H         -3.560666257129     0.310620311111     1.287370354736     1.007825032070
           C         -4.252335257129    -2.050671688889     0.245869354736    12.000000000000
           H         -5.430163257129    -0.363750688889    -0.377339645264     1.007825032070
           H         -4.152056257129    -0.778550688889    -1.484031645264     1.007825032070
           H         -4.896758257129    -2.788260688889    -0.222412645264     1.007825032070
           H         -4.519291257129    -1.998525688889     1.297635354736     1.007825032070
           H         -3.231188257129    -2.416142688889     0.182901354736     1.007825032070
           C          4.576037742871    -0.969088688889    -0.027660645264    12.000000000000
           H          4.729936742871    -0.893946688889    -1.094512645264     1.007825032070
           H          4.916130742871    -1.927508688889     0.332582354736     1.007825032070
           H          5.112974742871    -0.171644688889     0.465612354736     1.007825032070

  Running in c1 symmetry.

  Rotational constants: A =      0.07874  B =      0.01073  C =      0.00976 [cm^-1]
  Rotational constants: A =   2360.65263  B =    321.80229  C =    292.67731 [MHz]
  Nuclear repulsion =  617.043322461341518

  Charge       = 0
  Multiplicity = 1
  Electrons    = 88
  Nalpha       = 44
  Nbeta        = 44

  ==> Algorithm <==

  SCF Algorithm Type is DF.
  DIIS enabled.
  MOM disabled.
  Fractional occupation disabled.
  Guess Type is CORE.
  Energy threshold   = 1.00e-06
  Density threshold  = 1.00e-06
  Integral threshold = 0.00e+00

  ==> Primary Basis <==

  Basis Set: 6-31G*
    Number of shells: 102
    Number of basis function: 201
    Number of Cartesian functions: 201
    Spherical Harmonics?: false
    Max angular momentum: 2

  ==> Pre-Iterations <==

   -------------------------------------------------------
    Irrep   Nso     Nmo     Nalpha   Nbeta   Ndocc  Nsocc
   -------------------------------------------------------
     A        201     201       0       0       0       0
   -------------------------------------------------------
    Total     201     201      44      44      44       0
   -------------------------------------------------------

 OEINTS: Overlap, kinetic, potential, dipole, and quadrupole integrals
         stored in file 35.

  ==> Integral Setup <==

  ==> DFJK: Density-Fitted J/K Matrices <==

    J tasked:                  Yes
    K tasked:                  Yes
    wK tasked:                  No
    OpenMP threads:              1
    Integrals threads:           1
    Memory (MB):              1430
    Algorithm:                Core
    Integral Cache:           NONE
    Schwarz Cutoff:          1E-12
    Fitting Condition:       1E-12

   => Auxiliary Basis Set <=

  Basis Set: 
    Number of shells: 426
    Number of basis function: 1341
    Number of Cartesian functions: 1341
    Spherical Harmonics?: false
    Max angular momentum: 3

  Minimum eigenvalue in the overlap matrix is 2.4863899355E-03.
  Using Symmetric Orthogonalization.
  SCF Guess: Core (One-Electron) Hamiltonian.

  ==> Iterations <==

                           Total Energy        Delta E     RMS |[F,P]|

   @DF-RHF iter   1:  -324.74290863584940   -3.24743e+02   5.93935e-02 
   @DF-RHF iter   2:    99.50053369642410    4.24243e+02   8.12466e-02 DIIS
   @DF-RHF iter   3:  -202.41191692263487   -3.01912e+02   5.71368e-02 DIIS
   @DF-RHF iter   4:  -297.96911516981368   -9.55572e+01   5.48095e-02 DIIS
   @DF-RHF iter   5:  -392.70562185756205   -9.47365e+01   5.22197e-02 DIIS
   @DF-RHF iter   6:  -484.76790483326238   -9.20623e+01   1.27761e-02 DIIS
   @DF-RHF iter   7:  -398.38291884402611    8.63850e+01   3.93408e-02 DIIS
   @DF-RHF iter   8:  -475.04090386519704   -7.66580e+01   2.01508e-02 DIIS
   @DF-RHF iter   9:  -500.79920164861130   -2.57583e+01   3.63658e-03 DIIS
   @DF-RHF iter  10:  -501.00882274033495   -2.09621e-01   1.20958e-03 DIIS
   @DF-RHF iter  11:  -501.03774776186185   -2.89250e-02   3.66065e-04 DIIS
   @DF-RHF iter  12:  -501.04062674628187   -2.87898e-03   2.00009e-04 DIIS
   @DF-RHF iter  13:  -501.04156254014686   -9.35794e-04   8.88590e-05 DIIS
   @DF-RHF iter  14:  -501.04177221133261   -2.09671e-04   4.35814e-05 DIIS
   @DF-RHF iter  15:  -501.04182630020489   -5.40889e-05   1.35507e-05 DIIS
   @DF-RHF iter  16:  -501.04183202956472   -5.72936e-06   2.84100e-06 DIIS
   @DF-RHF iter  17:  -501.04183233026731   -3.00703e-07   7.83089e-07 DIIS

  ==> Post-Iterations <==

    Orbital Energies (a.u.)
    -----------------------

    Doubly Occupied:                                                      

       1A    -20.603370     2A    -20.545260     3A    -11.372022  
       4A    -11.280673     5A    -11.234797     6A    -11.219066  
       7A    -11.217530     8A    -11.215715     9A    -11.215501  
      10A    -11.214068    11A    -11.209253    12A     -1.469089  
      13A     -1.362541    14A     -1.098550    15A     -1.067410  
      16A     -1.018354    17A     -0.975850    18A     -0.928084  
      19A     -0.868162    20A     -0.802078    21A     -0.782995  
      22A     -0.764028    23A     -0.700808    24A     -0.682371  
      25A     -0.672079    26A     -0.643339    27A     -0.629856  
      28A     -0.609045    29A     -0.595741    30A     -0.589144  
      31A     -0.559345    32A     -0.554144    33A     -0.534248  
      34A     -0.525147    35A     -0.521306    36A     -0.509986  
      37A     -0.496348    38A     -0.476541    39A     -0.473873  
      40A     -0.462999    41A     -0.456197    42A     -0.451111  
      43A     -0.441701    44A     -0.435662  

    Virtual:                                                              

      45A      0.199079    46A      0.224749    47A      0.239674  
      48A      0.253748    49A      0.262683    50A      0.266366  
      51A      0.286476    52A      0.295971    53A      0.304641  
      54A      0.309105    55A      0.314080    56A      0.317791  
      57A      0.325161    58A      0.330771    59A      0.336793  
      60A      0.348370    61A      0.350810    62A      0.356790  
      63A      0.370145    64A      0.381460    65A      0.398000  
      66A      0.420040    67A      0.433325    68A      0.450553  
      69A      0.453578    70A      0.473464    71A      0.495218  
      72A      0.539893    73A      0.585639    74A      0.709476  
      75A      0.713502    76A      0.724708    77A      0.727311  
      78A      0.735268    79A      0.739095    80A      0.752960  
      81A      0.775717    82A      0.785963    83A      0.794847  
      84A      0.803026    85A      0.838192    86A      0.875704  
      87A      0.886881    88A      0.926424    89A      0.939160  
      90A      0.947271    91A      0.950832    92A      0.974882  
      93A      0.985213    94A      1.001127    95A      1.019825  
      96A      1.054393    97A      1.081206    98A      1.097495  
      99A      1.112198   100A      1.125862   101A      1.129197  
     102A      1.133977   103A      1.140930   104A      1.151499  
     105A      1.156149   106A      1.166008   107A      1.175916  
     108A      1.185361   109A      1.192200   110A      1.198015  
     111A      1.202596   112A      1.213245   113A      1.215687  
     114A      1.230080   115A      1.242174   116A      1.247262  
     117A      1.262751   118A      1.271568   119A      1.285463  
     120A      1.290966   121A      1.326952   122A      1.340951  
     123A      1.377664   124A      1.404086   125A      1.423628  
     126A      1.456931   127A      1.525975   128A      1.563722  
     129A      1.645050   130A      1.665075   131A      1.694721  
     132A      1.725717   133A      1.746479   134A      1.783565  
     135A      1.802988   136A      1.851577   137A      1.867502  
     138A      1.889135   139A      1.932621   140A      1.943992  
     141A      1.988957   142A      2.022757   143A      2.049150  
     144A      2.081513   145A      2.096319   146A      2.138451  
     147A      2.149430   148A      2.172752   149A      2.214070  
     150A      2.220306   151A      2.237687   152A      2.249956  
     153A      2.277536   154A      2.281845   155A      2.313621  
     156A      2.318619   157A      2.348449   158A      2.361690  
     159A      2.374998   160A      2.392800   161A      2.403530  
     162A      2.438285   163A      2.446970   164A      2.481870  
     165A      2.525005   166A      2.557732   167A      2.581833  
     168A      2.630738   169A      2.664696   170A      2.669768  
     171A      2.685832   172A      2.715422   173A      2.729780  
     174A      2.748351   175A      2.796530   176A      2.800853  
     177A      2.828139   178A      2.847337   179A      2.908719  
     180A      2.936050   181A      2.965930   182A      3.014432  
     183A      3.036785   184A      3.067516   185A      3.128621  
     186A      3.163642   187A      3.184376   188A      3.349851  
     189A      3.450975   190A      3.581256   191A      4.417020  
     192A      4.540305   193A      4.586319   194A      4.625426  
     195A      4.679154   196A      4.735828   197A      4.802238  
     198A      4.850496   199A      4.889956   200A      4.965637  
     201A      5.034126  

    Final Occupation by Irrep:
              A 
    DOCC [    44 ]

  Energy converged.

  @DF-RHF Final Energy:  -501.04183233026731

   => Energetics <=

    Nuclear Repulsion Energy =            617.0433224613415177
    One-Electron Energy =               -1905.1995799416090449
    Two-Electron Energy =                 787.1144251500029441
    DFT Exchange-Correlation Energy =       0.0000000000000000
    Empirical Dispersion Energy =           0.0000000000000000
    PCM Polarization Energy =               0.0000000000000000
    EFP Energy =                            0.0000000000000000
    Total Energy =                       -501.0418323302644694

    Alert: EFP and PCM quantities not currently incorporated into SCF psivars.

Properties will be evaluated at   0.000000,   0.000000,   0.000000 Bohr
  ==> Properties <==


Properties computed using the SCF density matrix

  Nuclear Dipole Moment: (a.u.)
     X:   -17.2470      Y:    -3.2708      Z:     1.1079

  Electronic Dipole Moment: (a.u.)
     X:    17.0760      Y:     2.6757      Z:    -0.8039

  Dipole Moment: (a.u.)
     X:    -0.1709      Y:    -0.5951      Z:     0.3040     Total:     0.6898

  Dipole Moment: (Debye)
     X:    -0.4345      Y:    -1.5126      Z:     0.7727     Total:     1.7532


  Saving occupied orbitals to File 180.

*** tstop() called on cx1-3-14-1.cx1.hpc.ic.ac.uk at Tue Jul  5 16:46:51 2016
Module time:
	user time   =      47.78 seconds =       0.80 minutes
	system time =       0.40 seconds =       0.01 minutes
	total time  =         49 seconds =       0.82 minutes
Total time:
	user time   =      47.78 seconds =       0.80 minutes
	system time =       0.40 seconds =       0.01 minutes
	total time  =         49 seconds =       0.82 minutes


Properties will be evaluated at   0.000000,   0.000000,   0.000000 Bohr

Properties computed using the  density matrix

  Nuclear Dipole Moment: (a.u.)
     X:   -17.2470      Y:    -3.2708      Z:     1.1079

  Electronic Dipole Moment: (a.u.)
     X:    17.0760      Y:     2.6757      Z:    -0.8039

  Dipole Moment: (a.u.)
     X:    -0.1709      Y:    -0.5951      Z:     0.3040     Total:     0.6898

  Dipole Moment: (Debye)
     X:    -0.4345      Y:    -1.5126      Z:     0.7727     Total:     1.7532

  Quadrupole Moment: (Debye Ang)
    XX:   -66.2401     YY:   -73.4628     ZZ:   -70.2439
    XY:    -7.7922     XZ:     2.7646     YZ:     2.6206

  Traceless Quadrupole Moment: (Debye Ang)
    XX:     3.7421     YY:    -3.4805     ZZ:    -0.2616
    XY:    -7.7922     XZ:     2.7646     YZ:     2.6206

  Mulliken Charges: (a.u.)
   Center  Symbol    Alpha    Beta     Spin     Total
       1     O     4.28594  4.28594  0.00000 -0.57187
       2     C     2.60480  2.60480  0.00000  0.79039
       3     C     3.20970  3.20970  0.00000 -0.41941
       4     O     4.30746  4.30746  0.00000 -0.61492
       5     C     3.15373  3.15373  0.00000 -0.30746
       6     H     0.39902  0.39902  0.00000  0.20196
       7     H     0.40121  0.40121  0.00000  0.19757
       8     C     3.15626  3.15626  0.00000 -0.31253
       9     H     0.41312  0.41312  0.00000  0.17375
      10     H     0.40877  0.40877  0.00000  0.18246
      11     C     3.15665  3.15665  0.00000 -0.31331
      12     H     0.41825  0.41825  0.00000  0.16351
      13     H     0.42387  0.42387  0.00000  0.15225
      14     C     3.15291  3.15291  0.00000 -0.30581
      15     H     0.42248  0.42248  0.00000  0.15504
      16     H     0.42239  0.42239  0.00000  0.15521
      17     C     3.15366  3.15366  0.00000 -0.30731
      18     H     0.42117  0.42117  0.00000  0.15766
      19     H     0.42369  0.42369  0.00000  0.15263
      20     C     3.24067  3.24067  0.00000 -0.48134
      21     H     0.42024  0.42024  0.00000  0.15951
      22     H     0.42262  0.42262  0.00000  0.15476
      23     H     0.41897  0.41897  0.00000  0.16206
      24     H     0.42161  0.42161  0.00000  0.15677
      25     H     0.42166  0.42166  0.00000  0.15668
      26     C     3.09242  3.09242  0.00000 -0.18484
      27     H     0.40909  0.40909  0.00000  0.18182
      28     H     0.40850  0.40850  0.00000  0.18299
      29     H     0.40912  0.40912  0.00000  0.18176

   Total alpha = 44.00000, Total beta = 44.00000, Total charge =  0.00000


*** PSI4 exiting successfully. Buy a developer a beer!
