    -----------------------------------------------------------------------
          Psi4: An Open-Source Ab Initio Electronic Structure Package
                              Psi4 (no tag) Driver

                          Git: Rev {detached?}  

    J. M. Turney, A. C. Simmonett, R. M. Parrish, E. G. Hohenstein,
    F. A. Evangelista, J. T. Fermann, B. J. Mintz, L. A. Burns, J. J. Wilke,
    M. L. Abrams, N. J. Russ, M. L. Leininger, C. L. Janssen, E. T. Seidl,
    W. D. Allen, H. F. Schaefer, R. A. King, E. F. Valeev, C. D. Sherrill,
    and T. D. Crawford, WIREs Comput. Mol. Sci. 2, 556-565 (2012)
    (doi: 10.1002/wcms.93)

                         Additional Contributions by
    A. E. DePrince, M. Saitow, U. Bozkaya, A. Yu. Sokolov
    -----------------------------------------------------------------------


    Psi4 started on: Tue Jul  5 16:42:32 2016

    Process ID:   3284
    PSI4DATADIR: /export131/home/mjharvey/miniconda3/share
    Memory level set to 256.000 MB

  ==> Input File <==

--------------------------------------------------------------------------
set {
	reference rhf
	basis 6-31G*
}


set_num_threads( 1 )
memory 2 gb

molecule MOL {
0 1

O	 -2.042549	 -1.228399	 -0.269030
C	 -1.653912	 -0.146171	 0.050137
C	 -0.332303	 0.024011	 0.778412
C	 -2.438579	 1.106236	 -0.272369
C	 0.845713	 -0.001731	 -0.208243
H	 -0.323783	 0.953829	 1.340327
H	 -0.235459	 -0.796807	 1.480410
C	 2.200309	 0.136118	 0.488247
H	 0.733710	 0.800019	 -0.936072
H	 0.811185	 -0.933796	 -0.764304
C	 3.319176	 0.542180	 -0.470114
H	 2.123226	 0.870797	 1.286828
H	 2.455785	 -0.807956	 0.963665
H	 3.108458	 1.500405	 -0.936434
H	 3.441721	 -0.190880	 -1.261978
H	 4.267699	 0.629289	 0.050216
H	 -3.277823	 0.863061	 -0.908988
H	 -1.806773	 1.843019	 -0.759671
H	 -2.802853	 1.554979	 0.648059

	symmetry c1
}
set optking {
	frozen_dihedral = ("
		9 5 3 2,
		5 3 2 4
	")
}

ee = energy('scf')
oeprop('DIPOLE', 'QUADRUPOLE', 'MULLIKEN_CHARGES')
f=open( 'psi4out.xyz', 'w' )
f.write( "19  " )
f.write( str(ee) + "\n" )
f.write( MOL.save_string_xyz() )
f.close()
--------------------------------------------------------------------------

  Memory set to   2.000 GiB by Python script.

*** tstart() called on cx1-1-2-2.cx1.hpc.ic.ac.uk
*** at Tue Jul  5 16:42:33 2016


         ---------------------------------------------------------
                                   SCF
            by Justin Turney, Rob Parrish, and Andy Simmonett
                              RHF Reference
                        1 Threads,   2000 MiB Core
         ---------------------------------------------------------

  ==> Geometry <==

    Molecular point group: c1
    Full point group: C1

    Geometry (in Angstrom), charge = 0, multiplicity = 1:

       Center              X                  Y                   Z               Mass       
    ------------   -----------------  -----------------  -----------------  -----------------
           O         -2.034316496837    -1.294487560512    -0.271961069073    15.994914619560
           C         -1.645679496837    -0.212259560512     0.047205930927    12.000000000000
           C         -0.324070496837    -0.042077560512     0.775480930927    12.000000000000
           C         -2.430346496837     1.040147439488    -0.275300069073    12.000000000000
           C          0.853945503163    -0.067819560512    -0.211174069073    12.000000000000
           H         -0.315550496837     0.887740439488     1.337395930927     1.007825032070
           H         -0.227226496837    -0.862895560512     1.477478930927     1.007825032070
           C          2.208541503163     0.070029439488     0.485315930927    12.000000000000
           H          0.741942503163     0.733930439488    -0.939003069073     1.007825032070
           H          0.819417503163    -0.999884560512    -0.767235069073     1.007825032070
           C          3.327408503163     0.476091439488    -0.473045069073    12.000000000000
           H          2.131458503163     0.804708439488     1.283896930927     1.007825032070
           H          2.464017503163    -0.874044560512     0.960733930927     1.007825032070
           H          3.116690503163     1.434316439488    -0.939365069073     1.007825032070
           H          3.449953503163    -0.256968560512    -1.264909069073     1.007825032070
           H          4.275931503163     0.563200439488     0.047284930927     1.007825032070
           H         -3.269590496837     0.796972439488    -0.911919069073     1.007825032070
           H         -1.798540496837     1.776930439488    -0.762602069073     1.007825032070
           H         -2.794620496837     1.488890439488     0.645127930927     1.007825032070

  Running in c1 symmetry.

  Rotational constants: A =      0.20693  B =      0.03547  C =      0.03360 [cm^-1]
  Rotational constants: A =   6203.69177  B =   1063.39881  C =   1007.38208 [MHz]
  Nuclear repulsion =  301.363611565889073

  Charge       = 0
  Multiplicity = 1
  Electrons    = 56
  Nalpha       = 28
  Nbeta        = 28

  ==> Algorithm <==

  SCF Algorithm Type is DF.
  DIIS enabled.
  MOM disabled.
  Fractional occupation disabled.
  Guess Type is CORE.
  Energy threshold   = 1.00e-06
  Density threshold  = 1.00e-06
  Integral threshold = 0.00e+00

  ==> Primary Basis <==

  Basis Set: 6-31G*
    Number of shells: 66
    Number of basis function: 129
    Number of Cartesian functions: 129
    Spherical Harmonics?: false
    Max angular momentum: 2

  ==> Pre-Iterations <==

   -------------------------------------------------------
    Irrep   Nso     Nmo     Nalpha   Nbeta   Ndocc  Nsocc
   -------------------------------------------------------
     A        129     129       0       0       0       0
   -------------------------------------------------------
    Total     129     129      28      28      28       0
   -------------------------------------------------------

 OEINTS: Overlap, kinetic, potential, dipole, and quadrupole integrals
         stored in file 35.

  ==> Integral Setup <==

  ==> DFJK: Density-Fitted J/K Matrices <==

    J tasked:                  Yes
    K tasked:                  Yes
    wK tasked:                  No
    OpenMP threads:              1
    Integrals threads:           1
    Memory (MB):              1430
    Algorithm:                Core
    Integral Cache:           NONE
    Schwarz Cutoff:          1E-12
    Fitting Condition:       1E-12

   => Auxiliary Basis Set <=

  Basis Set: 
    Number of shells: 276
    Number of basis function: 867
    Number of Cartesian functions: 867
    Spherical Harmonics?: false
    Max angular momentum: 3

  Minimum eigenvalue in the overlap matrix is 3.2322617719E-03.
  Using Symmetric Orthogonalization.
  SCF Guess: Core (One-Electron) Hamiltonian.

  ==> Iterations <==

                           Total Energy        Delta E     RMS |[F,P]|

   @DF-RHF iter   1:  -234.27485407139397   -2.34275e+02   6.93244e-02 
   @DF-RHF iter   2:  -182.69334650114831    5.15815e+01   6.29083e-02 DIIS
   @DF-RHF iter   3:  -274.06100129925755   -9.13677e+01   3.89111e-02 DIIS
   @DF-RHF iter   4:  -226.09697571338938    4.79640e+01   6.44362e-02 DIIS
   @DF-RHF iter   5:  -306.18266713692844   -8.00857e+01   1.20901e-02 DIIS
   @DF-RHF iter   6:  -308.74230636376092   -2.55964e+00   6.20824e-03 DIIS
   @DF-RHF iter   7:  -309.03499994089645   -2.92694e-01   1.65757e-03 DIIS
   @DF-RHF iter   8:  -309.05483332367771   -1.98334e-02   9.31064e-04 DIIS
   @DF-RHF iter   9:  -309.06077739485761   -5.94407e-03   5.31157e-04 DIIS
   @DF-RHF iter  10:  -309.06352125663295   -2.74386e-03   1.63938e-04 DIIS
   @DF-RHF iter  11:  -309.06388521456358   -3.63958e-04   4.15900e-05 DIIS
   @DF-RHF iter  12:  -309.06391186228086   -2.66477e-05   1.24064e-05 DIIS
   @DF-RHF iter  13:  -309.06391484090011   -2.97862e-06   3.60531e-06 DIIS
   @DF-RHF iter  14:  -309.06391511693460   -2.76034e-07   1.18459e-06 DIIS
   @DF-RHF iter  15:  -309.06391514345842   -2.65238e-08   4.63115e-07 DIIS

  ==> Post-Iterations <==

    Orbital Energies (a.u.)
    -----------------------

    Doubly Occupied:                                                      

       1A    -20.547459     2A    -11.324534     3A    -11.230242  
       4A    -11.229447     5A    -11.228318     6A    -11.224504  
       7A    -11.215347     8A     -1.393219     9A     -1.091422  
      10A     -1.029292    11A     -0.983882    12A     -0.890108  
      13A     -0.806790    14A     -0.733449    15A     -0.663972  
      16A     -0.643881    17A     -0.623222    18A     -0.612980  
      19A     -0.583959    20A     -0.571033    21A     -0.555546  
      22A     -0.536524    23A     -0.509571    24A     -0.503482  
      25A     -0.482621    26A     -0.474500    27A     -0.466497  
      28A     -0.396735  

    Virtual:                                                              

      29A      0.168834    30A      0.221136    31A      0.239987  
      32A      0.268944    33A      0.278659    34A      0.290411  
      35A      0.307777    36A      0.311117    37A      0.324031  
      38A      0.331229    39A      0.333203    40A      0.348253  
      41A      0.353143    42A      0.385142    43A      0.412808  
      44A      0.433374    45A      0.461566    46A      0.501053  
      47A      0.514463    48A      0.701493    49A      0.718326  
      50A      0.740321    51A      0.748328    52A      0.764461  
      53A      0.770405    54A      0.807936    55A      0.827466  
      56A      0.867521    57A      0.888081    58A      0.935240  
      59A      0.944567    60A      0.985191    61A      0.986977  
      62A      1.001835    63A      1.039791    64A      1.094982  
      65A      1.105005    66A      1.112713    67A      1.128146  
      68A      1.144074    69A      1.154918    70A      1.176286  
      71A      1.176756    72A      1.194217    73A      1.204336  
      74A      1.206425    75A      1.220227    76A      1.220971  
      77A      1.250235    78A      1.267310    79A      1.341501  
      80A      1.367502    81A      1.431125    82A      1.450879  
      83A      1.476932    84A      1.612277    85A      1.674579  
      86A      1.706639    87A      1.739137    88A      1.797039  
      89A      1.837555    90A      1.890065    91A      1.993378  
      92A      2.054286    93A      2.094968    94A      2.113437  
      95A      2.125933    96A      2.166743    97A      2.199241  
      98A      2.218253    99A      2.245832   100A      2.259995  
     101A      2.295675   102A      2.302885   103A      2.353474  
     104A      2.398889   105A      2.439794   106A      2.517643  
     107A      2.557801   108A      2.600863   109A      2.622326  
     110A      2.669229   111A      2.720817   112A      2.725576  
     113A      2.737630   114A      2.785441   115A      2.842032  
     116A      2.912940   117A      2.986783   118A      3.037647  
     119A      3.095871   120A      3.154569   121A      3.375899  
     122A      3.377956   123A      4.459664   124A      4.527788  
     125A      4.599909   126A      4.698868   127A      4.811382  
     128A      4.894160   129A      5.010622  

    Final Occupation by Irrep:
              A 
    DOCC [    28 ]

  Energy converged.

  @DF-RHF Final Energy:  -309.06391514345842

   => Energetics <=

    Nuclear Repulsion Energy =            301.3636115658890731
    One-Electron Energy =               -1015.7501203085731731
    Two-Electron Energy =                 405.3225935992264795
    DFT Exchange-Correlation Energy =       0.0000000000000000
    Empirical Dispersion Energy =           0.0000000000000000
    PCM Polarization Energy =               0.0000000000000000
    EFP Energy =                            0.0000000000000000
    Total Energy =                       -309.0639151434576206

    Alert: EFP and PCM quantities not currently incorporated into SCF psivars.

Properties will be evaluated at   0.000000,   0.000000,   0.000000 Bohr
  ==> Properties <==


Properties computed using the SCF density matrix

  Nuclear Dipole Moment: (a.u.)
     X:     8.0467      Y:     5.1432      Z:     0.1551

  Electronic Dipole Moment: (a.u.)
     X:    -7.5269      Y:    -4.0965      Z:     0.1510

  Dipole Moment: (a.u.)
     X:     0.5198      Y:     1.0467      Z:     0.3062     Total:     1.2081

  Dipole Moment: (Debye)
     X:     1.3213      Y:     2.6605      Z:     0.7782     Total:     3.0708


  Saving occupied orbitals to File 180.

*** tstop() called on cx1-1-2-2.cx1.hpc.ic.ac.uk at Tue Jul  5 16:42:45 2016
Module time:
	user time   =      12.09 seconds =       0.20 minutes
	system time =       0.07 seconds =       0.00 minutes
	total time  =         12 seconds =       0.20 minutes
Total time:
	user time   =      12.09 seconds =       0.20 minutes
	system time =       0.07 seconds =       0.00 minutes
	total time  =         12 seconds =       0.20 minutes


Properties will be evaluated at   0.000000,   0.000000,   0.000000 Bohr

Properties computed using the  density matrix

  Nuclear Dipole Moment: (a.u.)
     X:     8.0467      Y:     5.1432      Z:     0.1551

  Electronic Dipole Moment: (a.u.)
     X:    -7.5269      Y:    -4.0965      Z:     0.1510

  Dipole Moment: (a.u.)
     X:     0.5198      Y:     1.0467      Z:     0.3062     Total:     1.2081

  Dipole Moment: (Debye)
     X:     1.3213      Y:     2.6605      Z:     0.7782     Total:     3.0708

  Quadrupole Moment: (Debye Ang)
    XX:   -47.6568     YY:   -48.1388     ZZ:   -44.6257
    XY:    -6.4970     XZ:    -1.2656     YZ:    -0.9947

  Traceless Quadrupole Moment: (Debye Ang)
    XX:    -0.8497     YY:    -1.3317     ZZ:     2.1814
    XY:    -6.4970     XZ:    -1.2656     YZ:    -0.9947

  Mulliken Charges: (a.u.)
   Center  Symbol    Alpha    Beta     Spin     Total
       1     O     4.26204  4.26204  0.00000 -0.52407
       2     C     2.73737  2.73737  0.00000  0.52526
       3     C     3.20069  3.20069  0.00000 -0.40138
       4     C     3.28962  3.28962  0.00000 -0.57923
       5     C     3.16182  3.16182  0.00000 -0.32363
       6     H     0.41674  0.41674  0.00000  0.16651
       7     H     0.40099  0.40099  0.00000  0.19802
       8     C     3.15203  3.15203  0.00000 -0.30406
       9     H     0.42103  0.42103  0.00000  0.15794
      10     H     0.40542  0.40542  0.00000  0.18916
      11     C     3.24070  3.24070  0.00000 -0.48140
      12     H     0.42230  0.42230  0.00000  0.15541
      13     H     0.41762  0.41762  0.00000  0.16476
      14     H     0.42142  0.42142  0.00000  0.15717
      15     H     0.41910  0.41910  0.00000  0.16181
      16     H     0.41759  0.41759  0.00000  0.16483
      17     H     0.39698  0.39698  0.00000  0.20604
      18     H     0.40979  0.40979  0.00000  0.18042
      19     H     0.40677  0.40677  0.00000  0.18645

   Total alpha = 28.00000, Total beta = 28.00000, Total charge = -0.00000


*** PSI4 exiting successfully. Buy a developer a beer!
