    -----------------------------------------------------------------------
          Psi4: An Open-Source Ab Initio Electronic Structure Package
                              Psi4 (no tag) Driver

                          Git: Rev {detached?}  

    J. M. Turney, A. C. Simmonett, R. M. Parrish, E. G. Hohenstein,
    F. A. Evangelista, J. T. Fermann, B. J. Mintz, L. A. Burns, J. J. Wilke,
    M. L. Abrams, N. J. Russ, M. L. Leininger, C. L. Janssen, E. T. Seidl,
    W. D. Allen, H. F. Schaefer, R. A. King, E. F. Valeev, C. D. Sherrill,
    and T. D. Crawford, WIREs Comput. Mol. Sci. 2, 556-565 (2012)
    (doi: 10.1002/wcms.93)

                         Additional Contributions by
    A. E. DePrince, M. Saitow, U. Bozkaya, A. Yu. Sokolov
    -----------------------------------------------------------------------


    Psi4 started on: Tue Jul  5 16:22:19 2016

    Process ID:  23343
    PSI4DATADIR: /export131/home/mjharvey/miniconda3/share
    Memory level set to 256.000 MB

  ==> Input File <==

--------------------------------------------------------------------------
set {
	reference rhf
	basis 6-31G*
}


set_num_threads( 1 )
memory 2 gb

molecule MOL {
0 1

H	 2.302769	 1.612700	 0.251934
O	 1.374910	 1.647637	 0.434627
C	 0.702312	 0.627605	 -0.264544
C	 -0.714990	 0.596302	 0.266387
H	 1.176091	 -0.334726	 -0.090448
H	 0.699323	 0.824757	 -1.334425
O	 -1.405996	 -0.526611	 -0.195820
H	 -1.257453	 1.468809	 -0.075599
H	 -0.688972	 0.618407	 1.353696
H	 -0.890587	 -1.292708	 0.022039

	symmetry c1
}
set optking {
	frozen_dihedral = ("
		10 7 4 3
	")
}

ee = energy('scf')
oeprop('DIPOLE', 'QUADRUPOLE', 'MULLIKEN_CHARGES')
f=open( 'psi4out.xyz', 'w' )
f.write( "10  " )
f.write( str(ee) + "\n" )
f.write( MOL.save_string_xyz() )
f.close()
--------------------------------------------------------------------------

  Memory set to   2.000 GiB by Python script.

*** tstart() called on cx1-49-4-2.cx1.hpc.ic.ac.uk
*** at Tue Jul  5 16:22:19 2016


         ---------------------------------------------------------
                                   SCF
            by Justin Turney, Rob Parrish, and Andy Simmonett
                              RHF Reference
                        1 Threads,   2000 MiB Core
         ---------------------------------------------------------

  ==> Geometry <==

    Molecular point group: c1
    Full point group: C1

    Geometry (in Angstrom), charge = 0, multiplicity = 1:

       Center              X                  Y                   Z               Mass       
    ------------   -----------------  -----------------  -----------------  -----------------
           H          2.291448106223     1.039854190304     0.187939609373     1.007825032070
           O          1.363589106223     1.074791190304     0.370632609373    15.994914619560
           C          0.690991106223     0.054759190304    -0.328538390627    12.000000000000
           C         -0.726310893777     0.023456190304     0.202392609373    12.000000000000
           H          1.164770106223    -0.907571809696    -0.154442390627     1.007825032070
           H          0.688002106223     0.251911190304    -1.398419390627     1.007825032070
           O         -1.417316893777    -1.099456809696    -0.259814390627    15.994914619560
           H         -1.268773893777     0.895963190304    -0.139593390627     1.007825032070
           H         -0.700292893777     0.045561190304     1.289701609373     1.007825032070
           H         -0.901907893777    -1.865553809696    -0.041955390627     1.007825032070

  Running in c1 symmetry.

  Rotational constants: A =      0.99237  B =      0.13598  C =      0.12680 [cm^-1]
  Rotational constants: A =  29750.54311  B =   4076.51626  C =   3801.44255 [MHz]
  Nuclear repulsion =  131.690762575567931

  Charge       = 0
  Multiplicity = 1
  Electrons    = 34
  Nalpha       = 17
  Nbeta        = 17

  ==> Algorithm <==

  SCF Algorithm Type is DF.
  DIIS enabled.
  MOM disabled.
  Fractional occupation disabled.
  Guess Type is CORE.
  Energy threshold   = 1.00e-06
  Density threshold  = 1.00e-06
  Integral threshold = 0.00e+00

  ==> Primary Basis <==

  Basis Set: 6-31G*
    Number of shells: 36
    Number of basis function: 72
    Number of Cartesian functions: 72
    Spherical Harmonics?: false
    Max angular momentum: 2

  ==> Pre-Iterations <==

   -------------------------------------------------------
    Irrep   Nso     Nmo     Nalpha   Nbeta   Ndocc  Nsocc
   -------------------------------------------------------
     A         72      72       0       0       0       0
   -------------------------------------------------------
    Total      72      72      17      17      17       0
   -------------------------------------------------------

 OEINTS: Overlap, kinetic, potential, dipole, and quadrupole integrals
         stored in file 35.

  ==> Integral Setup <==

  ==> DFJK: Density-Fitted J/K Matrices <==

    J tasked:                  Yes
    K tasked:                  Yes
    wK tasked:                  No
    OpenMP threads:              1
    Integrals threads:           1
    Memory (MB):              1430
    Algorithm:                Core
    Integral Cache:           NONE
    Schwarz Cutoff:          1E-12
    Fitting Condition:       1E-12

   => Auxiliary Basis Set <=

  Basis Set: 
    Number of shells: 150
    Number of basis function: 474
    Number of Cartesian functions: 474
    Spherical Harmonics?: false
    Max angular momentum: 3

  Minimum eigenvalue in the overlap matrix is 4.2115472583E-03.
  Using Symmetric Orthogonalization.
  SCF Guess: Core (One-Electron) Hamiltonian.

  ==> Iterations <==

                           Total Energy        Delta E     RMS |[F,P]|

   @DF-RHF iter   1:  -202.12394534838973   -2.02124e+02   8.23494e-02 
   @DF-RHF iter   2:  -203.50485181938308   -1.38091e+00   6.82328e-02 DIIS
   @DF-RHF iter   3:  -227.21576198105191   -2.37109e+01   2.77876e-02 DIIS
   @DF-RHF iter   4:  -228.75781408432584   -1.54205e+00   7.53707e-03 DIIS
   @DF-RHF iter   5:  -228.89440258398014   -1.36588e-01   3.21627e-03 DIIS
   @DF-RHF iter   6:  -228.91925073823512   -2.48482e-02   4.05314e-04 DIIS
   @DF-RHF iter   7:  -228.91986680607079   -6.16068e-04   1.87401e-04 DIIS
   @DF-RHF iter   8:  -228.91996887303168   -1.02067e-04   7.03124e-05 DIIS
   @DF-RHF iter   9:  -228.91998620703299   -1.73340e-05   1.43244e-05 DIIS
   @DF-RHF iter  10:  -228.91998711900726   -9.11974e-07   5.20929e-06 DIIS
   @DF-RHF iter  11:  -228.91998721540580   -9.63985e-08   1.61078e-06 DIIS
   @DF-RHF iter  12:  -228.91998722884642   -1.34406e-08   3.42145e-07 DIIS

  ==> Post-Iterations <==

    Orbital Energies (a.u.)
    -----------------------

    Doubly Occupied:                                                      

       1A    -20.564408     2A    -20.560252     3A    -11.277339  
       4A    -11.268014     5A     -1.377094     6A     -1.362927  
       7A     -0.999527     8A     -0.849952     9A     -0.718402  
      10A     -0.691552    11A     -0.641349    12A     -0.611998  
      13A     -0.580465    14A     -0.531720    15A     -0.484249  
      16A     -0.456571    17A     -0.435725  

    Virtual:                                                              

      18A      0.217517    19A      0.220779    20A      0.279464  
      21A      0.306210    22A      0.319520    23A      0.361542  
      24A      0.390518    25A      0.438582    26A      0.453841  
      27A      0.725302    28A      0.785611    29A      0.819508  
      30A      0.828800    31A      0.906567    32A      0.953982  
      33A      1.061135    34A      1.073025    35A      1.098355  
      36A      1.123900    37A      1.169681    38A      1.184733  
      39A      1.193679    40A      1.242501    41A      1.261580  
      42A      1.284207    43A      1.337227    44A      1.392740  
      45A      1.521083    46A      1.593707    47A      1.692993  
      48A      1.714122    49A      1.823930    50A      1.897037  
      51A      1.938323    52A      2.034271    53A      2.117578  
      54A      2.147726    55A      2.287832    56A      2.345108  
      57A      2.388356    58A      2.423033    59A      2.514799  
      60A      2.611690    61A      2.668066    62A      2.776248  
      63A      2.805775    64A      2.851342    65A      2.930842  
      66A      2.961640    67A      3.233548    68A      3.244898  
      69A      4.102201    70A      4.273198    71A      4.625754  
      72A      4.857991  

    Final Occupation by Irrep:
              A 
    DOCC [    17 ]

  Energy converged.

  @DF-RHF Final Energy:  -228.91998722884642

   => Energetics <=

    Nuclear Repulsion Energy =            131.6907625755679305
    One-Electron Energy =                -574.3983832711005562
    Two-Electron Energy =                 213.7876334666860885
    DFT Exchange-Correlation Energy =       0.0000000000000000
    Empirical Dispersion Energy =           0.0000000000000000
    PCM Polarization Energy =               0.0000000000000000
    EFP Energy =                            0.0000000000000000
    Total Energy =                       -228.9199872288465372

    Alert: EFP and PCM quantities not currently incorporated into SCF psivars.

Properties will be evaluated at   0.000000,   0.000000,   0.000000 Bohr
  ==> Properties <==


Properties computed using the SCF density matrix

  Nuclear Dipole Moment: (a.u.)
     X:     1.1934      Y:    -0.5062      Z:    -0.2402

  Electronic Dipole Moment: (a.u.)
     X:    -0.2038      Y:     0.0622      Z:     0.1561

  Dipole Moment: (a.u.)
     X:     0.9896      Y:    -0.4440      Z:    -0.0840     Total:     1.0879

  Dipole Moment: (Debye)
     X:     2.5153      Y:    -1.1285      Z:    -0.2136     Total:     2.7652


  Saving occupied orbitals to File 180.

*** tstop() called on cx1-49-4-2.cx1.hpc.ic.ac.uk at Tue Jul  5 16:22:22 2016
Module time:
	user time   =       2.24 seconds =       0.04 minutes
	system time =       0.03 seconds =       0.00 minutes
	total time  =          3 seconds =       0.05 minutes
Total time:
	user time   =       2.24 seconds =       0.04 minutes
	system time =       0.03 seconds =       0.00 minutes
	total time  =          3 seconds =       0.05 minutes


Properties will be evaluated at   0.000000,   0.000000,   0.000000 Bohr

Properties computed using the  density matrix

  Nuclear Dipole Moment: (a.u.)
     X:     1.1934      Y:    -0.5062      Z:    -0.2402

  Electronic Dipole Moment: (a.u.)
     X:    -0.2038      Y:     0.0622      Z:     0.1561

  Dipole Moment: (a.u.)
     X:     0.9896      Y:    -0.4440      Z:    -0.0840     Total:     1.0879

  Dipole Moment: (Debye)
     X:     2.5153      Y:    -1.1285      Z:    -0.2136     Total:     2.7652

  Quadrupole Moment: (Debye Ang)
    XX:   -24.1016     YY:   -24.0840     ZZ:   -25.8203
    XY:    -2.2136     XZ:    -2.2676     YZ:    -2.1608

  Traceless Quadrupole Moment: (Debye Ang)
    XX:     0.5671     YY:     0.5846     ZZ:    -1.1517
    XY:    -2.2136     XZ:    -2.2676     YZ:    -2.1608

  Mulliken Charges: (a.u.)
   Center  Symbol    Alpha    Beta     Spin     Total
       1     H     0.27824  0.27824  0.00000  0.44353
       2     O     4.37283  4.37283  0.00000 -0.74566
       3     C     3.00961  3.00961  0.00000 -0.01922
       4     C     2.99949  2.99949  0.00000  0.00102
       5     H     0.43766  0.43766  0.00000  0.12469
       6     H     0.42095  0.42095  0.00000  0.15810
       7     O     4.36869  4.36869  0.00000 -0.73739
       8     H     0.40896  0.40896  0.00000  0.18208
       9     H     0.42019  0.42019  0.00000  0.15963
      10     H     0.28339  0.28339  0.00000  0.43322

   Total alpha = 17.00000, Total beta = 17.00000, Total charge = -0.00000


*** PSI4 exiting successfully. Buy a developer a beer!
