    -----------------------------------------------------------------------
          Psi4: An Open-Source Ab Initio Electronic Structure Package
                              Psi4 (no tag) Driver

                          Git: Rev {detached?}  

    J. M. Turney, A. C. Simmonett, R. M. Parrish, E. G. Hohenstein,
    F. A. Evangelista, J. T. Fermann, B. J. Mintz, L. A. Burns, J. J. Wilke,
    M. L. Abrams, N. J. Russ, M. L. Leininger, C. L. Janssen, E. T. Seidl,
    W. D. Allen, H. F. Schaefer, R. A. King, E. F. Valeev, C. D. Sherrill,
    and T. D. Crawford, WIREs Comput. Mol. Sci. 2, 556-565 (2012)
    (doi: 10.1002/wcms.93)

                         Additional Contributions by
    A. E. DePrince, M. Saitow, U. Bozkaya, A. Yu. Sokolov
    -----------------------------------------------------------------------


    Psi4 started on: Tue Jul  5 16:44:20 2016

    Process ID:  17963
    PSI4DATADIR: /export131/home/mjharvey/miniconda3/share
    Memory level set to 256.000 MB

  ==> Input File <==

--------------------------------------------------------------------------
set {
	reference rhf
	basis 6-31G*
}


set_num_threads( 1 )
memory 2 gb

molecule MOL {
0 1

H	 -3.571158	 0.540474	 0.139285
O	 -3.106200	 -0.271124	 -0.011510
C	 -1.775819	 -0.076055	 -0.001477
C	 -0.964344	 -0.552111	 1.024135
C	 -1.225748	 0.627969	 -1.065356
H	 -1.398706	 -1.096849	 1.845050
C	 0.394734	 -0.322062	 0.981664
H	 -1.872386	 0.984932	 -1.844270
C	 0.135253	 0.850030	 -1.093645
H	 1.032687	 -0.683587	 1.766148
C	 0.960889	 0.381183	 -0.076721
H	 0.562029	 1.395550	 -1.917861
C	 2.415836	 0.626563	 -0.120652
O	 3.002523	 1.065334	 -1.060883
H	 2.954884	 0.373001	 0.798206

	symmetry c1
}
set optking {
	frozen_dihedral = ("
		7 11 13 14
	")
}

ee = energy('scf')
oeprop('DIPOLE', 'QUADRUPOLE', 'MULLIKEN_CHARGES')
f=open( 'psi4out.xyz', 'w' )
f.write( "15  " )
f.write( str(ee) + "\n" )
f.write( MOL.save_string_xyz() )
f.close()
--------------------------------------------------------------------------

  Memory set to   2.000 GiB by Python script.

*** tstart() called on cx1-1-3-3.cx1.hpc.ic.ac.uk
*** at Tue Jul  5 16:44:20 2016


         ---------------------------------------------------------
                                   SCF
            by Justin Turney, Rob Parrish, and Andy Simmonett
                              RHF Reference
                        1 Threads,   2000 MiB Core
         ---------------------------------------------------------

  ==> Geometry <==

    Molecular point group: c1
    Full point group: C1

    Geometry (in Angstrom), charge = 0, multiplicity = 1:

       Center              X                  Y                   Z               Mass       
    ------------   -----------------  -----------------  -----------------  -----------------
           H         -3.532814782123     0.272891639645     0.307961572161     1.007825032070
           O         -3.067856782123    -0.538706360355     0.157166572161    15.994914619560
           C         -1.737475782123    -0.343637360355     0.167199572161    12.000000000000
           C         -0.926000782123    -0.819693360355     1.192811572161    12.000000000000
           C         -1.187404782123     0.360386639645    -0.896679427839    12.000000000000
           H         -1.360362782123    -1.364431360355     2.013726572161     1.007825032070
           C          0.433077217877    -0.589644360355     1.150340572161    12.000000000000
           H         -1.834042782123     0.717349639645    -1.675593427839     1.007825032070
           C          0.173596217877     0.582447639645    -0.924968427839    12.000000000000
           H          1.071030217877    -0.951169360355     1.934824572161     1.007825032070
           C          0.999232217877     0.113600639645     0.091955572161    12.000000000000
           H          0.600372217877     1.127967639645    -1.749184427839     1.007825032070
           C          2.454179217877     0.358980639645     0.048024572161    12.000000000000
           O          3.040866217877     0.797751639645    -0.892206427839    15.994914619560
           H          2.993227217877     0.105418639645     0.966882572161     1.007825032070

  Running in c1 symmetry.

  Rotational constants: A =      0.17132  B =      0.03362  C =      0.02819 [cm^-1]
  Rotational constants: A =   5136.07281  B =   1007.96646  C =    845.14782 [MHz]
  Nuclear repulsion =  401.322939967268098

  Charge       = 0
  Multiplicity = 1
  Electrons    = 64
  Nalpha       = 32
  Nbeta        = 32

  ==> Algorithm <==

  SCF Algorithm Type is DF.
  DIIS enabled.
  MOM disabled.
  Fractional occupation disabled.
  Guess Type is CORE.
  Energy threshold   = 1.00e-06
  Density threshold  = 1.00e-06
  Integral threshold = 0.00e+00

  ==> Primary Basis <==

  Basis Set: 6-31G*
    Number of shells: 66
    Number of basis function: 147
    Number of Cartesian functions: 147
    Spherical Harmonics?: false
    Max angular momentum: 2

  ==> Pre-Iterations <==

   -------------------------------------------------------
    Irrep   Nso     Nmo     Nalpha   Nbeta   Ndocc  Nsocc
   -------------------------------------------------------
     A        147     147       0       0       0       0
   -------------------------------------------------------
    Total     147     147      32      32      32       0
   -------------------------------------------------------

 OEINTS: Overlap, kinetic, potential, dipole, and quadrupole integrals
         stored in file 35.

  ==> Integral Setup <==

  ==> DFJK: Density-Fitted J/K Matrices <==

    J tasked:                  Yes
    K tasked:                  Yes
    wK tasked:                  No
    OpenMP threads:              1
    Integrals threads:           1
    Memory (MB):              1430
    Algorithm:                Core
    Integral Cache:           NONE
    Schwarz Cutoff:          1E-12
    Fitting Condition:       1E-12

   => Auxiliary Basis Set <=

  Basis Set: 
    Number of shells: 270
    Number of basis function: 879
    Number of Cartesian functions: 879
    Spherical Harmonics?: false
    Max angular momentum: 3

  Minimum eigenvalue in the overlap matrix is 4.0065125987E-04.
  Using Symmetric Orthogonalization.
  SCF Guess: Core (One-Electron) Hamiltonian.

  ==> Iterations <==

                           Total Energy        Delta E     RMS |[F,P]|

   @DF-RHF iter   1:  -343.05994664857315   -3.43060e+02   6.07154e-02 
   @DF-RHF iter   2:  -202.10671172124535    1.40953e+02   7.57871e-02 DIIS
   @DF-RHF iter   3:  -327.47694334309483   -1.25370e+02   4.90387e-02 DIIS
   @DF-RHF iter   4:  -314.68888436990176    1.27881e+01   5.61282e-02 DIIS
   @DF-RHF iter   5:  -417.21963809696615   -1.02531e+02   1.03584e-02 DIIS
   @DF-RHF iter   6:  -417.73757259794797   -5.17935e-01   7.93719e-03 DIIS
   @DF-RHF iter   7:  -418.26755872048091   -5.29986e-01   9.55129e-04 DIIS
   @DF-RHF iter   8:  -418.27915497246715   -1.15963e-02   3.44380e-04 DIIS
   @DF-RHF iter   9:  -418.28161572800036   -2.46076e-03   1.55763e-04 DIIS
   @DF-RHF iter  10:  -418.28239598641403   -7.80258e-04   7.89064e-05 DIIS
   @DF-RHF iter  11:  -418.28276388624965   -3.67900e-04   3.13311e-05 DIIS
   @DF-RHF iter  12:  -418.28281731115635   -5.34249e-05   1.49446e-05 DIIS
   @DF-RHF iter  13:  -418.28282675180287   -9.44065e-06   4.54953e-06 DIIS
   @DF-RHF iter  14:  -418.28282753450969   -7.82707e-07   1.91967e-06 DIIS
   @DF-RHF iter  15:  -418.28282762467211   -9.01624e-08   7.08694e-07 DIIS

  ==> Post-Iterations <==

    Orbital Energies (a.u.)
    -----------------------

    Doubly Occupied:                                                      

       1A    -20.595362     2A    -20.559819     3A    -11.330572  
       4A    -11.314330     5A    -11.259873     6A    -11.253036  
       7A    -11.243554     8A    -11.243492     9A    -11.239786  
      10A     -1.421439    11A     -1.400211    12A     -1.169790  
      13A     -1.041075    14A     -1.036083    15A     -0.888579  
      16A     -0.858169    17A     -0.797607    18A     -0.755233  
      19A     -0.709347    20A     -0.669036    21A     -0.648219  
      22A     -0.632755    23A     -0.617888    24A     -0.606219  
      25A     -0.561686    26A     -0.553780    27A     -0.537101  
      28A     -0.495267    29A     -0.480736    30A     -0.421557  
      31A     -0.355359    32A     -0.337448  

    Virtual:                                                              

      33A      0.089618    34A      0.128869    35A      0.208364  
      36A      0.233249    37A      0.243073    38A      0.262941  
      39A      0.300563    40A      0.320545    41A      0.333088  
      42A      0.374940    43A      0.415539    44A      0.427643  
      45A      0.449409    46A      0.489814    47A      0.537184  
      48A      0.564051    49A      0.577554    50A      0.705221  
      51A      0.716702    52A      0.729475    53A      0.749912  
      54A      0.754747    55A      0.773537    56A      0.779002  
      57A      0.808155    58A      0.810052    59A      0.824069  
      60A      0.862368    61A      0.872578    62A      0.892319  
      63A      0.897960    64A      0.933833    65A      0.991572  
      66A      1.014826    67A      1.024847    68A      1.055104  
      69A      1.079337    70A      1.084696    71A      1.108316  
      72A      1.113469    73A      1.127914    74A      1.142432  
      75A      1.174700    76A      1.201865    77A      1.213209  
      78A      1.223892    79A      1.266701    80A      1.303347  
      81A      1.308926    82A      1.345096    83A      1.356795  
      84A      1.412131    85A      1.414610    86A      1.448393  
      87A      1.473166    88A      1.485129    89A      1.533543  
      90A      1.634540    91A      1.644860    92A      1.704923  
      93A      1.715483    94A      1.726284    95A      1.754801  
      96A      1.772426    97A      1.815752    98A      1.831821  
      99A      1.884251   100A      2.030429   101A      2.042592  
     102A      2.045290   103A      2.076770   104A      2.090163  
     105A      2.152514   106A      2.176044   107A      2.227372  
     108A      2.233939   109A      2.275500   110A      2.304051  
     111A      2.342525   112A      2.372129   113A      2.400824  
     114A      2.415454   115A      2.450672   116A      2.458111  
     117A      2.575258   118A      2.600966   119A      2.631651  
     120A      2.641659   121A      2.678227   122A      2.727905  
     123A      2.741144   124A      2.850904   125A      2.893580  
     126A      2.928667   127A      2.956357   128A      3.006367  
     129A      3.025601   130A      3.050253   131A      3.105149  
     132A      3.181979   133A      3.249845   134A      3.315919  
     135A      3.357895   136A      3.409439   137A      3.562222  
     138A      3.830987   139A      4.309219   140A      4.332555  
     141A      4.514723   142A      4.533135   143A      4.586129  
     144A      4.679592   145A      4.742403   146A      4.893917  
     147A      5.177852  

    Final Occupation by Irrep:
              A 
    DOCC [    32 ]

  Energy converged.

  @DF-RHF Final Energy:  -418.28282762467211

   => Energetics <=

    Nuclear Repulsion Energy =            401.3229399672680984
    One-Electron Energy =               -1365.1426485359518210
    Two-Electron Energy =                 545.5368809440119549
    DFT Exchange-Correlation Energy =       0.0000000000000000
    Empirical Dispersion Energy =           0.0000000000000000
    PCM Polarization Energy =               0.0000000000000000
    EFP Energy =                            0.0000000000000000
    Total Energy =                       -418.2828276246717678

    Alert: EFP and PCM quantities not currently incorporated into SCF psivars.

Properties will be evaluated at   0.000000,   0.000000,   0.000000 Bohr
  ==> Properties <==


Properties computed using the SCF density matrix

  Nuclear Dipole Moment: (a.u.)
     X:    -1.9337      Y:    -0.0850      Z:     1.6826

  Electronic Dipole Moment: (a.u.)
     X:     0.9150      Y:     0.2868      Z:    -0.7722

  Dipole Moment: (a.u.)
     X:    -1.0188      Y:     0.2018      Z:     0.9104     Total:     1.3811

  Dipole Moment: (Debye)
     X:    -2.5894      Y:     0.5130      Z:     2.3140     Total:     3.5104


  Saving occupied orbitals to File 180.

*** tstop() called on cx1-1-3-3.cx1.hpc.ic.ac.uk at Tue Jul  5 16:44:37 2016
Module time:
	user time   =      16.50 seconds =       0.28 minutes
	system time =       0.11 seconds =       0.00 minutes
	total time  =         17 seconds =       0.28 minutes
Total time:
	user time   =      16.50 seconds =       0.28 minutes
	system time =       0.11 seconds =       0.00 minutes
	total time  =         17 seconds =       0.28 minutes


Properties will be evaluated at   0.000000,   0.000000,   0.000000 Bohr

Properties computed using the  density matrix

  Nuclear Dipole Moment: (a.u.)
     X:    -1.9337      Y:    -0.0850      Z:     1.6826

  Electronic Dipole Moment: (a.u.)
     X:     0.9150      Y:     0.2868      Z:    -0.7722

  Dipole Moment: (a.u.)
     X:    -1.0188      Y:     0.2018      Z:     0.9104     Total:     1.3811

  Dipole Moment: (Debye)
     X:    -2.5894      Y:     0.5130      Z:     2.3140     Total:     3.5104

  Quadrupole Moment: (Debye Ang)
    XX:   -56.0306     YY:   -53.0809     ZZ:   -49.0648
    XY:    -9.5736     XZ:     6.1663     YZ:    -1.6967

  Traceless Quadrupole Moment: (Debye Ang)
    XX:    -3.3052     YY:    -0.3554     ZZ:     3.6607
    XY:    -9.5736     XZ:     6.1663     YZ:    -1.6967

  Mulliken Charges: (a.u.)
   Center  Symbol    Alpha    Beta     Spin     Total
       1     H     0.26694  0.26694  0.00000  0.46612
       2     O     4.38227  4.38227  0.00000 -0.76454
       3     C     2.80320  2.80320  0.00000  0.39361
       4     C     3.12400  3.12400  0.00000 -0.24800
       5     C     3.12876  3.12876  0.00000 -0.25751
       6     H     0.38876  0.38876  0.00000  0.22249
       7     C     3.09662  3.09662  0.00000 -0.19325
       8     H     0.39080  0.39080  0.00000  0.21839
       9     C     3.08423  3.08423  0.00000 -0.16845
      10     H     0.38983  0.38983  0.00000  0.22035
      11     C     3.06060  3.06060  0.00000 -0.12120
      12     H     0.37691  0.37691  0.00000  0.24619
      13     C     2.83204  2.83204  0.00000  0.33593
      14     O     4.25069  4.25069  0.00000 -0.50139
      15     H     0.42436  0.42436  0.00000  0.15127

   Total alpha = 32.00000, Total beta = 32.00000, Total charge =  0.00000


*** PSI4 exiting successfully. Buy a developer a beer!
