    -----------------------------------------------------------------------
          Psi4: An Open-Source Ab Initio Electronic Structure Package
                              Psi4 (no tag) Driver

                          Git: Rev {detached?}  

    J. M. Turney, A. C. Simmonett, R. M. Parrish, E. G. Hohenstein,
    F. A. Evangelista, J. T. Fermann, B. J. Mintz, L. A. Burns, J. J. Wilke,
    M. L. Abrams, N. J. Russ, M. L. Leininger, C. L. Janssen, E. T. Seidl,
    W. D. Allen, H. F. Schaefer, R. A. King, E. F. Valeev, C. D. Sherrill,
    and T. D. Crawford, WIREs Comput. Mol. Sci. 2, 556-565 (2012)
    (doi: 10.1002/wcms.93)

                         Additional Contributions by
    A. E. DePrince, M. Saitow, U. Bozkaya, A. Yu. Sokolov
    -----------------------------------------------------------------------


    Psi4 started on: Tue Jul  5 16:47:40 2016

    Process ID:  13998
    PSI4DATADIR: /export131/home/mjharvey/miniconda3/share
    Memory level set to 256.000 MB

  ==> Input File <==

--------------------------------------------------------------------------
set {
	reference rhf
	basis 6-31G*
}


set_num_threads( 1 )
memory 2 gb

molecule MOL {
0 1

H	 0.425220	 -2.151661	 0.726173
C	 -0.537729	 -2.129697	 1.232521
O	 -1.020556	 -0.830459	 1.351670
H	 -1.253417	 -2.691238	 0.648052
H	 -0.426892	 -2.606805	 2.205409
C	 -0.200255	 0.017064	 2.091979
C	 1.244560	 -0.262687	 1.750721
H	 -0.427560	 1.058853	 1.862404
H	 -0.352011	 -0.132141	 3.159083
O	 1.392611	 -0.295398	 0.366430
H	 1.872653	 0.510224	 2.189028
H	 1.536610	 -1.219695	 2.184930
C	 2.706965	 -0.449871	 -0.062409
H	 2.756559	 -0.644779	 -1.131878
H	 3.305899	 0.433456	 0.155466
H	 3.125548	 -1.294566	 0.467107

	symmetry c1
}
set optking {
	frozen_dihedral = ("
		3 6 7 11,
		7 10 13 14
	")
}

ee = energy('scf')
oeprop('DIPOLE', 'QUADRUPOLE', 'MULLIKEN_CHARGES')
f=open( 'psi4out.xyz', 'w' )
f.write( "16  " )
f.write( str(ee) + "\n" )
f.write( MOL.save_string_xyz() )
f.close()
--------------------------------------------------------------------------

  Memory set to   2.000 GiB by Python script.

*** tstart() called on cx1-3-2-2.cx1.hpc.ic.ac.uk
*** at Tue Jul  5 16:47:40 2016


         ---------------------------------------------------------
                                   SCF
            by Justin Turney, Rob Parrish, and Andy Simmonett
                              RHF Reference
                        1 Threads,   2000 MiB Core
         ---------------------------------------------------------

  ==> Geometry <==

    Molecular point group: c1
    Full point group: C1

    Geometry (in Angstrom), charge = 0, multiplicity = 1:

       Center              X                  Y                   Z               Mass       
    ------------   -----------------  -----------------  -----------------  -----------------
           H         -0.187191655522    -1.477537506192    -0.386295772276     1.007825032070
           C         -1.150140655522    -1.455573506192     0.120052227724    12.000000000000
           O         -1.632967655522    -0.156335506192     0.239201227724    15.994914619560
           H         -1.865828655522    -2.017114506192    -0.464416772276     1.007825032070
           H         -1.039303655522    -1.932681506192     1.092940227724     1.007825032070
           C         -0.812666655522     0.691187493808     0.979510227724    12.000000000000
           C          0.632148344478     0.411436493808     0.638252227724    12.000000000000
           H         -1.039971655522     1.732976493808     0.749935227724     1.007825032070
           H         -0.964422655522     0.541982493808     2.046614227724     1.007825032070
           O          0.780199344478     0.378725493808    -0.746038772276    15.994914619560
           H          1.260241344478     1.184347493808     1.076559227724     1.007825032070
           H          0.924198344478    -0.545571506192     1.072461227724     1.007825032070
           C          2.094553344478     0.224252493808    -1.174877772276    12.000000000000
           H          2.144147344478     0.029344493808    -2.244346772276     1.007825032070
           H          2.693487344478     1.107579493808    -0.957002772276     1.007825032070
           H          2.513136344478    -0.620442506192    -0.645361772276     1.007825032070

  Running in c1 symmetry.

  Rotational constants: A =      0.22374  B =      0.07833  C =      0.06634 [cm^-1]
  Rotational constants: A =   6707.55527  B =   2348.30784  C =   1988.91247 [MHz]
  Nuclear repulsion =  271.138451244275643

  Charge       = 0
  Multiplicity = 1
  Electrons    = 50
  Nalpha       = 25
  Nbeta        = 25

  ==> Algorithm <==

  SCF Algorithm Type is DF.
  DIIS enabled.
  MOM disabled.
  Fractional occupation disabled.
  Guess Type is CORE.
  Energy threshold   = 1.00e-06
  Density threshold  = 1.00e-06
  Integral threshold = 0.00e+00

  ==> Primary Basis <==

  Basis Set: 6-31G*
    Number of shells: 56
    Number of basis function: 110
    Number of Cartesian functions: 110
    Spherical Harmonics?: false
    Max angular momentum: 2

  ==> Pre-Iterations <==

   -------------------------------------------------------
    Irrep   Nso     Nmo     Nalpha   Nbeta   Ndocc  Nsocc
   -------------------------------------------------------
     A        110     110       0       0       0       0
   -------------------------------------------------------
    Total     110     110      25      25      25       0
   -------------------------------------------------------

 OEINTS: Overlap, kinetic, potential, dipole, and quadrupole integrals
         stored in file 35.

  ==> Integral Setup <==

  ==> DFJK: Density-Fitted J/K Matrices <==

    J tasked:                  Yes
    K tasked:                  Yes
    wK tasked:                  No
    OpenMP threads:              1
    Integrals threads:           1
    Memory (MB):              1430
    Algorithm:                Core
    Integral Cache:           NONE
    Schwarz Cutoff:          1E-12
    Fitting Condition:       1E-12

   => Auxiliary Basis Set <=

  Basis Set: 
    Number of shells: 234
    Number of basis function: 736
    Number of Cartesian functions: 736
    Spherical Harmonics?: false
    Max angular momentum: 3

  Minimum eigenvalue in the overlap matrix is 3.9202384678E-03.
  Using Symmetric Orthogonalization.
  SCF Guess: Core (One-Electron) Hamiltonian.

  ==> Iterations <==

                           Total Energy        Delta E     RMS |[F,P]|

   @DF-RHF iter   1:  -246.47410642702960   -2.46474e+02   7.81829e-02 
   @DF-RHF iter   2:  -198.25007096439242    4.82240e+01   6.17136e-02 DIIS
   @DF-RHF iter   3:  -271.24971111203001   -7.29996e+01   5.80090e-02 DIIS
   @DF-RHF iter   4:  -294.69599719067116   -2.34463e+01   3.45051e-02 DIIS
   @DF-RHF iter   5:  -306.32410874484901   -1.16281e+01   1.01939e-02 DIIS
   @DF-RHF iter   6:  -306.82608773449135   -5.01979e-01   4.74143e-03 DIIS
   @DF-RHF iter   7:  -306.95023637246902   -1.24149e-01   1.19779e-03 DIIS
   @DF-RHF iter   8:  -306.96058329821233   -1.03469e-02   4.22962e-04 DIIS
   @DF-RHF iter   9:  -306.96193643350341   -1.35314e-03   1.16057e-04 DIIS
   @DF-RHF iter  10:  -306.96206577345367   -1.29340e-04   3.44051e-05 DIIS
   @DF-RHF iter  11:  -306.96207831659990   -1.25431e-05   1.29836e-05 DIIS
   @DF-RHF iter  12:  -306.96207984905107   -1.53245e-06   3.84755e-06 DIIS
   @DF-RHF iter  13:  -306.96207998621264   -1.37162e-07   7.91284e-07 DIIS

  ==> Post-Iterations <==

    Orbital Energies (a.u.)
    -----------------------

    Doubly Occupied:                                                      

       1A    -20.561873     2A    -20.548040     3A    -11.273455  
       4A    -11.271930     5A    -11.269520     6A    -11.251884  
       7A     -1.398337     8A     -1.367101     9A     -1.027336  
      10A     -0.948554    11A     -0.901686    12A     -0.809766  
      13A     -0.704944    14A     -0.685585    15A     -0.656950  
      16A     -0.641002    17A     -0.617424    18A     -0.591407  
      19A     -0.563749    20A     -0.527203    21A     -0.521434  
      22A     -0.492582    23A     -0.445516    24A     -0.425688  
      25A     -0.405371  

    Virtual:                                                              

      26A      0.225010    27A      0.260549    28A      0.279361  
      29A      0.298222    30A      0.308443    31A      0.314558  
      32A      0.328034    33A      0.331741    34A      0.343732  
      35A      0.345901    36A      0.369950    37A      0.388732  
      38A      0.425535    39A      0.448296    40A      0.467020  
      41A      0.725449    42A      0.750806    43A      0.773637  
      44A      0.780990    45A      0.804553    46A      0.817696  
      47A      0.821664    48A      0.834610    49A      0.885976  
      50A      0.959173    51A      0.999175    52A      1.056039  
      53A      1.091242    54A      1.105353    55A      1.125200  
      56A      1.134361    57A      1.145865    58A      1.163038  
      59A      1.180489    60A      1.192988    61A      1.207436  
      62A      1.234187    63A      1.248819    64A      1.284283  
      65A      1.310129    66A      1.372818    67A      1.409915  
      68A      1.439666    69A      1.501686    70A      1.575265  
      71A      1.628894    72A      1.664023    73A      1.705131  
      74A      1.730243    75A      1.794465    76A      1.858809  
      77A      1.879477    78A      1.948103    79A      2.020504  
      80A      2.161429    81A      2.166836    82A      2.227201  
      83A      2.288442    84A      2.404182    85A      2.408109  
      86A      2.448554    87A      2.471645    88A      2.482637  
      89A      2.504556    90A      2.511579    91A      2.553573  
      92A      2.603651    93A      2.637558    94A      2.671991  
      95A      2.736318    96A      2.787763    97A      2.862318  
      98A      2.897230    99A      2.928190   100A      3.024788  
     101A      3.122074   102A      3.229258   103A      3.302777  
     104A      3.354990   105A      4.348713   106A      4.460336  
     107A      4.653480   108A      4.671780   109A      4.732661  
     110A      4.894480  

    Final Occupation by Irrep:
              A 
    DOCC [    25 ]

  Energy converged.

  @DF-RHF Final Energy:  -306.96207998621264

   => Energetics <=

    Nuclear Repulsion Energy =            271.1384512442756431
    One-Electron Energy =                -956.3842088248882192
    Two-Electron Energy =                 378.2836775944005012
    DFT Exchange-Correlation Energy =       0.0000000000000000
    Empirical Dispersion Energy =           0.0000000000000000
    PCM Polarization Energy =               0.0000000000000000
    EFP Energy =                            0.0000000000000000
    Total Energy =                       -306.9620799862120748

    Alert: EFP and PCM quantities not currently incorporated into SCF psivars.

Properties will be evaluated at   0.000000,   0.000000,   0.000000 Bohr
  ==> Properties <==


Properties computed using the SCF density matrix

  Nuclear Dipole Moment: (a.u.)
     X:     4.1569      Y:    -1.8712      Z:     1.2548

  Electronic Dipole Moment: (a.u.)
     X:    -3.1211      Y:     1.6999      Z:    -0.7850

  Dipole Moment: (a.u.)
     X:     1.0357      Y:    -0.1713      Z:     0.4698     Total:     1.1501

  Dipole Moment: (Debye)
     X:     2.6326      Y:    -0.4353      Z:     1.1942     Total:     2.9234


  Saving occupied orbitals to File 180.

*** tstop() called on cx1-3-2-2.cx1.hpc.ic.ac.uk at Tue Jul  5 16:47:48 2016
Module time:
	user time   =       7.14 seconds =       0.12 minutes
	system time =       0.04 seconds =       0.00 minutes
	total time  =          8 seconds =       0.13 minutes
Total time:
	user time   =       7.14 seconds =       0.12 minutes
	system time =       0.04 seconds =       0.00 minutes
	total time  =          8 seconds =       0.13 minutes


Properties will be evaluated at   0.000000,   0.000000,   0.000000 Bohr

Properties computed using the  density matrix

  Nuclear Dipole Moment: (a.u.)
     X:     4.1569      Y:    -1.8712      Z:     1.2548

  Electronic Dipole Moment: (a.u.)
     X:    -3.1211      Y:     1.6999      Z:    -0.7850

  Dipole Moment: (a.u.)
     X:     1.0357      Y:    -0.1713      Z:     0.4698     Total:     1.1501

  Dipole Moment: (Debye)
     X:     2.6326      Y:    -0.4353      Z:     1.1942     Total:     2.9234

  Quadrupole Moment: (Debye Ang)
    XX:   -39.0804     YY:   -35.6871     ZZ:   -36.8093
    XY:     0.8377     XZ:    -1.5794     YZ:     1.5529

  Traceless Quadrupole Moment: (Debye Ang)
    XX:    -1.8881     YY:     1.5052     ZZ:     0.3829
    XY:     0.8377     XZ:    -1.5794     YZ:     1.5529

  Mulliken Charges: (a.u.)
   Center  Symbol    Alpha    Beta     Spin     Total
       1     H     0.41158  0.41158  0.00000  0.17685
       2     C     3.09025  3.09025  0.00000 -0.18051
       3     O     4.29934  4.29934  0.00000 -0.59868
       4     H     0.41236  0.41236  0.00000  0.17528
       5     H     0.43620  0.43620  0.00000  0.12760
       6     C     2.98507  2.98507  0.00000  0.02986
       7     C     3.03046  3.03046  0.00000 -0.06092
       8     H     0.41197  0.41197  0.00000  0.17606
       9     H     0.42919  0.42919  0.00000  0.14161
      10     O     4.29775  4.29775  0.00000 -0.59551
      11     H     0.42231  0.42231  0.00000  0.15537
      12     H     0.42541  0.42541  0.00000  0.14919
      13     C     3.08005  3.08005  0.00000 -0.16010
      14     H     0.40967  0.40967  0.00000  0.18067
      15     H     0.42701  0.42701  0.00000  0.14598
      16     H     0.43138  0.43138  0.00000  0.13724

   Total alpha = 25.00000, Total beta = 25.00000, Total charge =  0.00000


*** PSI4 exiting successfully. Buy a developer a beer!
