    -----------------------------------------------------------------------
          Psi4: An Open-Source Ab Initio Electronic Structure Package
                              Psi4 (no tag) Driver

                          Git: Rev {detached?}  

    J. M. Turney, A. C. Simmonett, R. M. Parrish, E. G. Hohenstein,
    F. A. Evangelista, J. T. Fermann, B. J. Mintz, L. A. Burns, J. J. Wilke,
    M. L. Abrams, N. J. Russ, M. L. Leininger, C. L. Janssen, E. T. Seidl,
    W. D. Allen, H. F. Schaefer, R. A. King, E. F. Valeev, C. D. Sherrill,
    and T. D. Crawford, WIREs Comput. Mol. Sci. 2, 556-565 (2012)
    (doi: 10.1002/wcms.93)

                         Additional Contributions by
    A. E. DePrince, M. Saitow, U. Bozkaya, A. Yu. Sokolov
    -----------------------------------------------------------------------


    Psi4 started on: Tue Jul  5 16:29:38 2016

    Process ID:   7379
    PSI4DATADIR: /export131/home/mjharvey/miniconda3/share
    Memory level set to 256.000 MB

  ==> Input File <==

--------------------------------------------------------------------------
set {
	reference rhf
	basis 6-31G*
}


set_num_threads( 1 )
memory 2 gb

molecule MOL {
0 1

H	 -3.269016	 -0.876744	 0.468090
C	 -2.809304	 0.000122	 0.025886
N	 -1.391456	 0.000019	 0.300661
H	 -3.037557	 -0.000063	 -1.044252
H	 -3.269223	 0.876956	 0.468000
C	 -0.630205	 0.670372	 -0.735153
C	 -0.876352	 -1.334714	 0.535107
H	 -0.733504	 0.165484	 -1.700515
H	 -1.010458	 1.680273	 -0.849478
C	 0.842287	 0.727508	 -0.359557
H	 -1.436152	 -1.787147	 1.347193
H	 -0.995943	 -1.972334	 -0.346169
C	 0.596140	 -1.277578	 0.910703
H	 1.402087	 1.179942	 -1.171643
H	 0.961878	 1.365128	 0.521719
N	 1.357391	 -0.607225	 -0.125112
H	 0.976393	 -2.287479	 1.025027
H	 0.699439	 -0.772690	 1.876065
C	 2.775239	 -0.607328	 0.149662
H	 3.309528	 -0.153374	 -0.677521
H	 3.128842	 -1.626870	 0.256087
H	 3.034166	 -0.061073	 1.061725

	symmetry c1
}
ee = energy('scf')
oeprop('DIPOLE', 'QUADRUPOLE', 'MULLIKEN_CHARGES')
f=open( 'psi4out.xyz', 'w' )
f.write( "22  " )
f.write( str(ee) + "\n" )
f.write( MOL.save_string_xyz() )
f.close()
--------------------------------------------------------------------------

  Memory set to   2.000 GiB by Python script.

*** tstart() called on cx1-3-4-4.cx1.hpc.ic.ac.uk
*** at Tue Jul  5 16:29:38 2016


         ---------------------------------------------------------
                                   SCF
            by Justin Turney, Rob Parrish, and Andy Simmonett
                              RHF Reference
                        1 Threads,   2000 MiB Core
         ---------------------------------------------------------

  ==> Geometry <==

    Molecular point group: c1
    Full point group: C1

    Geometry (in Angstrom), charge = 0, multiplicity = 1:

       Center              X                  Y                   Z               Mass       
    ------------   -----------------  -----------------  -----------------  -----------------
           H         -3.251974094338    -0.572968350909     0.380266953478     1.007825032070
           C         -2.792262094338     0.303897649091    -0.061937046522    12.000000000000
           N         -1.374414094338     0.303794649091     0.212837953478    14.003074004780
           H         -3.020515094338     0.303712649091    -1.132075046522     1.007825032070
           H         -3.252181094338     1.180731649091     0.380176953478     1.007825032070
           C         -0.613163094338     0.974147649091    -0.822976046522    12.000000000000
           C         -0.859310094338    -1.030938350909     0.447283953478    12.000000000000
           H         -0.716462094338     0.469259649091    -1.788338046522     1.007825032070
           H         -0.993416094338     1.984048649091    -0.937301046522     1.007825032070
           C          0.859328905662     1.031283649091    -0.447380046522    12.000000000000
           H         -1.419110094338    -1.483371350909     1.259369953478     1.007825032070
           H         -0.978901094338    -1.668558350909    -0.433992046522     1.007825032070
           C          0.613181905662    -0.973802350909     0.822879953478    12.000000000000
           H          1.419128905662     1.483717649091    -1.259466046522     1.007825032070
           H          0.978919905662     1.668903649091     0.433895953478     1.007825032070
           N          1.374432905662    -0.303449350909    -0.212935046522    14.003074004780
           H          0.993434905662    -1.983703350909     0.937203953478     1.007825032070
           H          0.716480905662    -0.468914350909     1.788241953478     1.007825032070
           C          2.792280905662    -0.303552350909     0.061838953478    12.000000000000
           H          3.326569905662     0.150401649091    -0.765344046522     1.007825032070
           H          3.145883905662    -1.323094350909     0.168263953478     1.007825032070
           H          3.051207905662     0.242702649091     0.973901953478     1.007825032070

  Running in c1 symmetry.

  Rotational constants: A =      0.15405  B =      0.04759  C =      0.03875 [cm^-1]
  Rotational constants: A =   4618.18661  B =   1426.69080  C =   1161.65039 [MHz]
  Nuclear repulsion =  421.471207482037244

  Charge       = 0
  Multiplicity = 1
  Electrons    = 64
  Nalpha       = 32
  Nbeta        = 32

  ==> Algorithm <==

  SCF Algorithm Type is DF.
  DIIS enabled.
  MOM disabled.
  Fractional occupation disabled.
  Guess Type is CORE.
  Energy threshold   = 1.00e-06
  Density threshold  = 1.00e-06
  Integral threshold = 0.00e+00

  ==> Primary Basis <==

  Basis Set: 6-31G*
    Number of shells: 76
    Number of basis function: 148
    Number of Cartesian functions: 148
    Spherical Harmonics?: false
    Max angular momentum: 2

  ==> Pre-Iterations <==

   -------------------------------------------------------
    Irrep   Nso     Nmo     Nalpha   Nbeta   Ndocc  Nsocc
   -------------------------------------------------------
     A        148     148       0       0       0       0
   -------------------------------------------------------
    Total     148     148      32      32      32       0
   -------------------------------------------------------

 OEINTS: Overlap, kinetic, potential, dipole, and quadrupole integrals
         stored in file 35.

  ==> Integral Setup <==

  ==> DFJK: Density-Fitted J/K Matrices <==

    J tasked:                  Yes
    K tasked:                  Yes
    wK tasked:                  No
    OpenMP threads:              1
    Integrals threads:           1
    Memory (MB):              1430
    Algorithm:                Core
    Integral Cache:           NONE
    Schwarz Cutoff:          1E-12
    Fitting Condition:       1E-12

   => Auxiliary Basis Set <=

  Basis Set: 
    Number of shells: 318
    Number of basis function: 998
    Number of Cartesian functions: 998
    Spherical Harmonics?: false
    Max angular momentum: 3

  Minimum eigenvalue in the overlap matrix is 3.0225640785E-03.
  Using Symmetric Orthogonalization.
  SCF Guess: Core (One-Electron) Hamiltonian.

  ==> Iterations <==

                           Total Energy        Delta E     RMS |[F,P]|

   @DF-RHF iter   1:  -244.98136326924055   -2.44981e+02   7.20721e-02 
   @DF-RHF iter   2:  -193.79622165645401    5.11851e+01   5.52988e-02 DIIS
   @DF-RHF iter   3:  -302.71415295010411   -1.08918e+02   4.27134e-02 DIIS
   @DF-RHF iter   4:  -342.22179609082241   -3.95076e+01   1.34575e-02 DIIS
   @DF-RHF iter   5:  -343.97495055567674   -1.75315e+00   4.68029e-03 DIIS
   @DF-RHF iter   6:  -344.20534105132424   -2.30390e-01   1.18959e-03 DIIS
   @DF-RHF iter   7:  -344.22495476453298   -1.96137e-02   3.24439e-04 DIIS
   @DF-RHF iter   8:  -344.22624938474223   -1.29462e-03   1.75449e-04 DIIS
   @DF-RHF iter   9:  -344.22661943722892   -3.70052e-04   5.89306e-05 DIIS
   @DF-RHF iter  10:  -344.22666577218286   -4.63350e-05   1.03214e-05 DIIS
   @DF-RHF iter  11:  -344.22666762943425   -1.85725e-06   3.46991e-06 DIIS
   @DF-RHF iter  12:  -344.22666779106851   -1.61634e-07   1.12067e-06 DIIS
   @DF-RHF iter  13:  -344.22666781007570   -1.90072e-08   3.03948e-07 DIIS

  ==> Post-Iterations <==

    Orbital Energies (a.u.)
    -----------------------

    Doubly Occupied:                                                      

       1A    -15.541685     2A    -15.540075     3A    -11.238719  
       4A    -11.238469     5A    -11.237934     6A    -11.237765  
       7A    -11.235770     8A    -11.234920     9A     -1.254957  
      10A     -1.203952    11A     -1.024507    12A     -0.991411  
      13A     -0.911031    14A     -0.867102    15A     -0.835260  
      16A     -0.755131    17A     -0.664855    18A     -0.635845  
      19A     -0.630200    20A     -0.625393    21A     -0.620626  
      22A     -0.580536    23A     -0.550660    24A     -0.547043  
      25A     -0.542259    26A     -0.519015    27A     -0.497120  
      28A     -0.488057    29A     -0.464494    30A     -0.454630  
      31A     -0.349248    32A     -0.343746  

    Virtual:                                                              

      33A      0.234920    34A      0.243509    35A      0.273931  
      36A      0.287067    37A      0.292396    38A      0.308782  
      39A      0.313006    40A      0.325102    41A      0.332776  
      42A      0.334064    43A      0.336855    44A      0.346640  
      45A      0.353861    46A      0.360282    47A      0.372272  
      48A      0.391009    49A      0.427576    50A      0.452055  
      51A      0.467485    52A      0.469801    53A      0.480536  
      54A      0.492875    55A      0.712057    56A      0.739945  
      57A      0.750834    58A      0.756183    59A      0.788152  
      60A      0.795857    61A      0.818574    62A      0.853162  
      63A      0.861110    64A      0.868399    65A      0.922589  
      66A      0.932236    67A      0.959982    68A      0.990606  
      69A      0.996831    70A      1.009954    71A      1.067000  
      72A      1.094597    73A      1.113897    74A      1.116413  
      75A      1.123334    76A      1.137573    77A      1.149806  
      78A      1.159974    79A      1.167655    80A      1.177893  
      81A      1.181748    82A      1.196834    83A      1.200713  
      84A      1.209117    85A      1.239388    86A      1.245678  
      87A      1.247404    88A      1.261041    89A      1.290263  
      90A      1.294114    91A      1.382672    92A      1.413663  
      93A      1.529903    94A      1.565388    95A      1.625080  
      96A      1.640722    97A      1.665757    98A      1.682812  
      99A      1.721816   100A      1.766279   101A      1.816429  
     102A      1.917579   103A      1.998760   104A      2.063893  
     105A      2.109644   106A      2.142177   107A      2.167989  
     108A      2.200218   109A      2.217297   110A      2.235944  
     111A      2.314438   112A      2.330145   113A      2.336126  
     114A      2.362910   115A      2.386597   116A      2.414303  
     117A      2.421466   118A      2.437261   119A      2.458095  
     120A      2.484361   121A      2.553380   122A      2.583948  
     123A      2.585211   124A      2.622317   125A      2.631322  
     126A      2.667177   127A      2.681136   128A      2.689888  
     129A      2.795502   130A      2.809979   131A      2.867963  
     132A      2.935438   133A      2.969388   134A      2.978096  
     135A      3.151921   136A      3.179920   137A      3.182124  
     138A      3.206780   139A      3.263519   140A      3.316198  
     141A      4.492471   142A      4.530380   143A      4.671992  
     144A      4.695279   145A      4.708302   146A      4.828529  
     147A      4.970969   148A      4.980838  

    Final Occupation by Irrep:
              A 
    DOCC [    32 ]

  Energy converged.

  @DF-RHF Final Energy:  -344.22666781007570

   => Energetics <=

    Nuclear Repulsion Energy =            421.4712074820372436
    One-Electron Energy =               -1301.6707661425857623
    Two-Electron Energy =                 535.9728908504725950
    DFT Exchange-Correlation Energy =       0.0000000000000000
    Empirical Dispersion Energy =           0.0000000000000000
    PCM Polarization Energy =               0.0000000000000000
    EFP Energy =                            0.0000000000000000
    Total Energy =                       -344.2266678100759236

    Alert: EFP and PCM quantities not currently incorporated into SCF psivars.

Properties will be evaluated at   0.000000,   0.000000,   0.000000 Bohr
  ==> Properties <==


Properties computed using the SCF density matrix

  Nuclear Dipole Moment: (a.u.)
     X:    -0.0009      Y:    -0.0161      Z:     0.0045

  Electronic Dipole Moment: (a.u.)
     X:    -0.0134      Y:    -0.0143      Z:    -0.0170

  Dipole Moment: (a.u.)
     X:    -0.0143      Y:    -0.0303      Z:    -0.0125     Total:     0.0358

  Dipole Moment: (Debye)
     X:    -0.0362      Y:    -0.0771      Z:    -0.0318     Total:     0.0909


  Saving occupied orbitals to File 180.

*** tstop() called on cx1-3-4-4.cx1.hpc.ic.ac.uk at Tue Jul  5 16:29:55 2016
Module time:
	user time   =      16.49 seconds =       0.27 minutes
	system time =       0.18 seconds =       0.00 minutes
	total time  =         17 seconds =       0.28 minutes
Total time:
	user time   =      16.49 seconds =       0.27 minutes
	system time =       0.18 seconds =       0.00 minutes
	total time  =         17 seconds =       0.28 minutes


Properties will be evaluated at   0.000000,   0.000000,   0.000000 Bohr

Properties computed using the  density matrix

  Nuclear Dipole Moment: (a.u.)
     X:    -0.0009      Y:    -0.0161      Z:     0.0045

  Electronic Dipole Moment: (a.u.)
     X:    -0.0134      Y:    -0.0143      Z:    -0.0170

  Dipole Moment: (a.u.)
     X:    -0.0143      Y:    -0.0303      Z:    -0.0125     Total:     0.0358

  Dipole Moment: (Debye)
     X:    -0.0362      Y:    -0.0771      Z:    -0.0318     Total:     0.0909

  Quadrupole Moment: (Debye Ang)
    XX:   -48.9499     YY:   -50.6986     ZZ:   -53.1812
    XY:     0.9841     XZ:     1.0964     YZ:    -2.8977

  Traceless Quadrupole Moment: (Debye Ang)
    XX:     1.9933     YY:     0.2447     ZZ:    -2.2380
    XY:     0.9841     XZ:     1.0964     YZ:    -2.8977

  Mulliken Charges: (a.u.)
   Center  Symbol    Alpha    Beta     Spin     Total
       1     H     0.41965  0.41965  0.00000  0.16071
       2     C     3.14015  3.14015  0.00000 -0.28030
       3     N     3.78668  3.78668  0.00000 -0.57336
       4     H     0.42951  0.42951  0.00000  0.14098
       5     H     0.41554  0.41554  0.00000  0.16891
       6     C     3.05790  3.05790  0.00000 -0.11580
       7     C     3.05843  3.05843  0.00000 -0.11686
       8     H     0.42798  0.42798  0.00000  0.14404
       9     H     0.41725  0.41725  0.00000  0.16550
      10     C     3.05640  3.05640  0.00000 -0.11280
      11     H     0.41748  0.41748  0.00000  0.16504
      12     H     0.42889  0.42889  0.00000  0.14223
      13     C     3.05655  3.05655  0.00000 -0.11310
      14     H     0.41808  0.41808  0.00000  0.16383
      15     H     0.42848  0.42848  0.00000  0.14304
      16     N     3.78710  3.78710  0.00000 -0.57421
      17     H     0.41813  0.41813  0.00000  0.16375
      18     H     0.42854  0.42854  0.00000  0.14291
      19     C     3.14019  3.14019  0.00000 -0.28039
      20     H     0.41682  0.41682  0.00000  0.16636
      21     H     0.41681  0.41681  0.00000  0.16638
      22     H     0.43343  0.43343  0.00000  0.13313

   Total alpha = 32.00000, Total beta = 32.00000, Total charge = -0.00000


*** PSI4 exiting successfully. Buy a developer a beer!
