
    -----------------------------------------------------------------------
          Psi4: An Open-Source Ab Initio Electronic Structure Package
                               Psi4 1.1 release

                         Git: Rev {HEAD} add49b9 


    R. M. Parrish, L. A. Burns, D. G. A. Smith, A. C. Simmonett,
    A. E. DePrince III, E. G. Hohenstein, U. Bozkaya, A. Yu. Sokolov,
    R. Di Remigio, R. M. Richard, J. F. Gonthier, A. M. James,
    H. R. McAlexander, A. Kumar, M. Saitow, X. Wang, B. P. Pritchard,
    P. Verma, H. F. Schaefer III, K. Patkowski, R. A. King, E. F. Valeev,
    F. A. Evangelista, J. M. Turney, T. D. Crawford, and C. D. Sherrill,
    J. Chem. Theory Comput. in press (2017).
    (doi: 10.1021/acs.jctc.7b00174)

    -----------------------------------------------------------------------


    Psi4 started on: Monday, 18 September 2017 05:36PM

    Process ID:  21693
    PSIDATADIR: /home/raimis/opt/miniconda3/envs/htmd/share/psi4
    Memory:     500.0 MiB
    Threads:    1
    
  ==> Input File <==

--------------------------------------------------------------------------
set_num_threads( 8 )
memory 2.000000 gb

set { reference rks }
set { basis cc-pVDZ }

molecule MOL {
    0 1
    noreorient
    nocom
    symmetry c1
    C    0.940800  -0.041500  -0.056200
    C    2.276600  -0.041500  -0.056200
    H    0.380900   0.578300  -0.749400
    H    0.380900  -0.661400   0.637000
    H    2.836500  -0.231663   0.854029
    H    2.836500   0.148749  -0.966479
}

set optking { frozen_dihedral = (" 3 1 2 5 ") }

energy, wfn = energy('B3LYP-D3', return_wfn=True)

import os
os.chdir(os.environ['HTMD_PSI4_WORKDIR'])

oeprop(wfn, 'DIPOLE', 'QUADRUPOLE', 'MULLIKEN_CHARGES')

with open('psi4out.xyz', 'w') as f:
    f.write('6 ' )
    f.write('%.12f\n' % energy)
    f.write(MOL.save_string_xyz())
--------------------------------------------------------------------------
  Threads set to 8 by Python driver.

  Memory set to   1.863 GiB by Python driver.

*** tstart() called on computer03
*** at Mon Sep 18 17:36:57 2017

   => Loading Basis Set <=

    Name: CC-PVDZ
    Role: ORBITAL
    Keyword: BASIS
    atoms 1-2 entry C          line   130 file /home/raimis/opt/miniconda3/envs/htmd/share/psi4/basis/cc-pvdz.gbs 
    atoms 3-6 entry H          line    20 file /home/raimis/opt/miniconda3/envs/htmd/share/psi4/basis/cc-pvdz.gbs 


         ---------------------------------------------------------
                                   SCF
            by Justin Turney, Rob Parrish, and Andy Simmonett
                              RKS Reference
                        8 Threads,   1907 MiB Core
         ---------------------------------------------------------

  ==> Geometry <==

    Molecular point group: c1
    Full point group: C1

    Geometry (in Angstrom), charge = 0, multiplicity = 1:

       Center              X                  Y                   Z               Mass       
    ------------   -----------------  -----------------  -----------------  -----------------
           C          0.940800000000    -0.041500000000    -0.056200000000    12.000000000000
           C          2.276600000000    -0.041500000000    -0.056200000000    12.000000000000
           H          0.380900000000     0.578300000000    -0.749400000000     1.007825032070
           H          0.380900000000    -0.661400000000     0.637000000000     1.007825032070
           H          2.836500000000    -0.231663000000     0.854029000000     1.007825032070
           H          2.836500000000     0.148749000000    -0.966479000000     1.007825032070

  Running in c1 symmetry.

  Rotational constants: A =      4.80189  B =      0.18795  C =      0.18186 [cm^-1]
  Rotational constants: A = 143956.91622  B =   5634.60963  C =   5452.05894 [MHz]
  Nuclear repulsion =   33.316383986153717

  Charge       = 0
  Multiplicity = 1
  Electrons    = 16
  Nalpha       = 8
  Nbeta        = 8

  ==> Algorithm <==

  SCF Algorithm Type is DF.
  DIIS enabled.
  MOM disabled.
  Fractional occupation disabled.
  Guess Type is SAD.
  Energy threshold   = 1.00e-06
  Density threshold  = 1.00e-06
  Integral threshold = 0.00e+00

  ==> Primary Basis <==

  Basis Set: CC-PVDZ
    Blend: CC-PVDZ
    Number of shells: 24
    Number of basis function: 48
    Number of Cartesian functions: 50
    Spherical Harmonics?: true
    Max angular momentum: 2

  ==> DFT Potential <==

   => B3LYP Composite Functional <= 

    B3LYP Hybrid-GGA Exchange-Correlation Functional (VWN1-RPA)

    P.J. Stephens et. al., J. Phys. Chem., 98, 11623-11627, 1994

    Points   =           5000
    Deriv    =              1
    GGA      =           TRUE
    Meta     =          FALSE

    X_LRC        =          FALSE
    X_Hybrid     =           TRUE
    X_Alpha      =   2.000000E-01
    X_Omega      =   0.000000E+00
    C_LRC        =          FALSE
    C_Hybrid     =          FALSE
    C_Alpha      =   0.000000E+00
    C_Omega      =   0.000000E+00

   => Exchange Functionals <=

    0.8000    B3_X
    0.2000      HF 

   => Correlation Functionals <=

    0.1900 VWN3RPA_C
    0.8100   LYP_C

   => Molecular Quadrature <=

    Radial Scheme    =       TREUTLER
    Pruning Scheme   =           FLAT
    Nuclear Scheme   =       TREUTLER

    BS radius alpha  =              1
    Pruning alpha    =              1
    Radial Points    =             75
    Spherical Points =            302
    Total Points     =         133224
    Total Blocks     =            126
    Max Points       =           4701
    Max Functions    =             48

   => -D3ZERO: Empirical Dispersion <=

    Grimme's -D3 (zero-damping) Dispersion Correction
    Grimme S.; Antony J.; Ehrlich S.; Krieg H. (2010), J. Chem. Phys., 132: 154104

        S6 =   1.000000E+00
        S8 =   1.703000E+00
       SR6 =   1.261000E+00
    ALPHA6 =   1.400000E+01

   => Loading Basis Set <=

    Name: (CC-PVDZ AUX)
    Role: JKFIT
    Keyword: DF_BASIS_SCF
    atoms 1-2 entry C          line   120 file /home/raimis/opt/miniconda3/envs/htmd/share/psi4/basis/cc-pvdz-jkfit.gbs 
    atoms 3-6 entry H          line    50 file /home/raimis/opt/miniconda3/envs/htmd/share/psi4/basis/cc-pvdz-jkfit.gbs 

  ==> Pre-Iterations <==

   -------------------------------------------------------
    Irrep   Nso     Nmo     Nalpha   Nbeta   Ndocc  Nsocc
   -------------------------------------------------------
     A         48      48       0       0       0       0
   -------------------------------------------------------
    Total      48      48       8       8       8       0
   -------------------------------------------------------

  ==> Integral Setup <==

  ==> DFJK: Density-Fitted J/K Matrices <==

    J tasked:                  Yes
    K tasked:                  Yes
    wK tasked:                  No
    OpenMP threads:              8
    Integrals threads:           8
    Memory (MB):              1430
    Algorithm:                Core
    Integral Cache:           NONE
    Schwarz Cutoff:          1E-12
    Fitting Condition:       1E-12

   => Auxiliary Basis Set <=

  Basis Set: (CC-PVDZ AUX)
    Blend: CC-PVDZ-JKFIT
    Number of shells: 84
    Number of basis function: 232
    Number of Cartesian functions: 262
    Spherical Harmonics?: true
    Max angular momentum: 3

  Minimum eigenvalue in the overlap matrix is 4.9024824351E-03.
  Using Symmetric Orthogonalization.

  SCF Guess: Superposition of Atomic Densities via on-the-fly atomic UHF.

  ==> Iterations <==

                           Total Energy        Delta E     RMS |[F,P]|

   @DF-RKS iter   0:   -78.83390048354701   -7.88339e+01   5.75481e-02 
   @DF-RKS iter   1:   -78.53806828182972    2.95832e-01   5.62599e-03 
   @DF-RKS iter   2:   -78.53796214736475    1.06134e-04   8.24902e-03 DIIS
   @DF-RKS iter   3:   -78.57347802903492   -3.55159e-02   4.20717e-04 DIIS
   @DF-RKS iter   4:   -78.57339479194393    8.32371e-05   4.82712e-04 DIIS
   @DF-RKS iter   5:   -78.57366610981262   -2.71318e-04   1.91557e-05 DIIS
   @DF-RKS iter   6:   -78.57366660712327   -4.97311e-07   6.73049e-06 DIIS
   @DF-RKS iter   7:   -78.57366665469863   -4.75754e-08   9.53519e-07 DIIS

  ==> Post-Iterations <==

    Orbital Energies (a.u.)
    -----------------------

    Doubly Occupied:                                                      

       1A    -10.188411     2A    -10.187630     3A     -0.760944  
       4A     -0.578979     5A     -0.465202     6A     -0.416887  
       7A     -0.373969     8A     -0.252033  

    Virtual:                                                              

       9A     -0.010464    10A      0.083251    11A      0.110941  
      12A      0.112891    13A      0.179199    14A      0.301040  
      15A      0.405870    16A      0.447766    17A      0.483421  
      18A      0.498916    19A      0.550694    20A      0.560942  
      21A      0.652089    22A      0.676379    23A      0.714968  
      24A      0.809914    25A      0.865455    26A      0.923352  
      27A      1.009479    28A      1.025190    29A      1.158328  
      30A      1.398026    31A      1.444970    32A      1.482944  
      33A      1.511571    34A      1.518486    35A      1.596211  
      36A      1.658026    37A      1.697244    38A      1.762348  
      39A      1.957650    40A      1.958253    41A      2.000688  
      42A      2.111330    43A      2.195955    44A      2.316375  
      45A      2.445675    46A      2.468729    47A      2.704653  
      48A      2.950072  

    Final Occupation by Irrep:
              A 
    DOCC [     8 ]

  Energy converged.

  @DF-RKS Final Energy:   -78.57366665469863

   => Energetics <=

    Nuclear Repulsion Energy =             33.3163839861537170
    One-Electron Energy =                -170.1713750754936427
    Two-Electron Energy =                  68.2318997915399024
    DFT Exchange-Correlation Energy =      -9.9497243468985896
    Empirical Dispersion Energy =          -0.0008510100000000
    PCM Polarization Energy =               0.0000000000000000
    EFP Energy =                            0.0000000000000000
    Total Energy =                        -78.5736666546986271



Properties will be evaluated at   0.000000,   0.000000,   0.000000 Bohr

Properties computed using the SCF density matrix

  Nuclear Dipole Moment: (a.u.)
     X:    48.6400      Y:    -1.2548      Z:    -1.6993

  Electronic Dipole Moment: (a.u.)
     X:   -48.6400      Y:     1.2548      Z:     1.6993

  Dipole Moment: (a.u.)
     X:     0.0000      Y:     0.0000      Z:     0.0000     Total:     0.0000

  Dipole Moment: (Debye)
     X:     0.0000      Y:     0.0000      Z:     0.0000     Total:     0.0000


*** tstop() called on computer03 at Mon Sep 18 17:37:15 2017
Module time:
	user time   =      16.12 seconds =       0.27 minutes
	system time =       0.48 seconds =       0.01 minutes
	total time  =         18 seconds =       0.30 minutes
Total time:
	user time   =      16.12 seconds =       0.27 minutes
	system time =       0.48 seconds =       0.01 minutes
	total time  =         18 seconds =       0.30 minutes


Properties will be evaluated at   0.000000,   0.000000,   0.000000 Bohr

Properties computed using the  density matrix

  Nuclear Dipole Moment: (a.u.)
     X:    48.6400      Y:    -1.2548      Z:    -1.6993

  Electronic Dipole Moment: (a.u.)
     X:   -48.6400      Y:     1.2548      Z:     1.6993

  Dipole Moment: (a.u.)
     X:     0.0000      Y:     0.0000      Z:     0.0000     Total:     0.0000

  Dipole Moment: (Debye)
     X:     0.0000      Y:     0.0000      Z:     0.0000     Total:     0.0000

  Quadrupole Moment: (Debye Ang)
    XX:   -12.4340     YY:   -14.3718     ZZ:   -13.0259
    XY:     0.0001     XZ:     0.0001     YZ:    -0.9130

  Traceless Quadrupole Moment: (Debye Ang)
    XX:     0.8432     YY:    -1.0946     ZZ:     0.2514
    XY:     0.0001     XZ:     0.0001     YZ:    -0.9130

  Mulliken Charges: (a.u.)
   Center  Symbol    Alpha    Beta     Spin     Total
       1     C     3.02432  3.02432  0.00000 -0.04865
       2     C     3.02432  3.02432  0.00000 -0.04863
       3     H     0.48784  0.48784  0.00000  0.02432
       4     H     0.48784  0.48784  0.00000  0.02433
       5     H     0.48784  0.48784  0.00000  0.02432
       6     H     0.48784  0.48784  0.00000  0.02432

   Total alpha =  8.00000, Total beta =  8.00000, Total charge =  0.00000


*** Psi4 exiting successfully. Buy a developer a beer!
