    -----------------------------------------------------------------------
          Psi4: An Open-Source Ab Initio Electronic Structure Package
                              Psi4 (no tag) Driver

                          Git: Rev {detached?}  

    J. M. Turney, A. C. Simmonett, R. M. Parrish, E. G. Hohenstein,
    F. A. Evangelista, J. T. Fermann, B. J. Mintz, L. A. Burns, J. J. Wilke,
    M. L. Abrams, N. J. Russ, M. L. Leininger, C. L. Janssen, E. T. Seidl,
    W. D. Allen, H. F. Schaefer, R. A. King, E. F. Valeev, C. D. Sherrill,
    and T. D. Crawford, WIREs Comput. Mol. Sci. 2, 556-565 (2012)
    (doi: 10.1002/wcms.93)

                         Additional Contributions by
    A. E. DePrince, M. Saitow, U. Bozkaya, A. Yu. Sokolov
    -----------------------------------------------------------------------


    Psi4 started on: Tue Jul  5 16:43:41 2016

    Process ID:  11282
    PSI4DATADIR: /export131/home/mjharvey/miniconda3/share
    Memory level set to 256.000 MB

  ==> Input File <==

--------------------------------------------------------------------------
set {
	reference rhf
	basis 6-31G*
}


set_num_threads( 1 )
memory 2 gb

molecule MOL {
0 1

H	 -2.365627	 -1.312883	 -0.379134
C	 -1.358347	 -1.274295	 0.019669
C	 -0.681945	 0.000119	 -0.470601
H	 -0.826096	 -2.155117	 -0.321105
H	 -1.409554	 -1.292283	 1.100109
C	 -1.357790	 1.274691	 0.020220
N	 0.739525	 -0.000142	 0.006128
H	 -0.594190	 0.000341	 -1.545128
H	 -2.364980	 1.313977	 -0.378631
H	 -0.825080	 2.155361	 -0.320114
H	 -1.409060	 1.292170	 1.100671
O	 1.552174	 -0.528755	 -0.687234
O	 0.967074	 0.530061	 1.051359

	symmetry c1
}
ee = energy('scf')
oeprop('DIPOLE', 'QUADRUPOLE', 'MULLIKEN_CHARGES')
f=open( 'psi4out.xyz', 'w' )
f.write( "13  " )
f.write( str(ee) + "\n" )
f.write( MOL.save_string_xyz() )
f.close()
--------------------------------------------------------------------------

  Memory set to   2.000 GiB by Python script.

*** tstart() called on cx1-3-6-2.cx1.hpc.ic.ac.uk
*** at Tue Jul  5 16:43:41 2016


         ---------------------------------------------------------
                                   SCF
            by Justin Turney, Rob Parrish, and Andy Simmonett
                              RHF Reference
                        1 Threads,   2000 MiB Core
         ---------------------------------------------------------

  ==> Geometry <==

    Molecular point group: c1
    Full point group: C1

    Geometry (in Angstrom), charge = 0, multiplicity = 1:

       Center              X                  Y                   Z               Mass       
    ------------   -----------------  -----------------  -----------------  -----------------
           H         -2.365655816153    -1.313182380921    -0.379047153565     1.007825032070
           C         -1.358375816153    -1.274594380921     0.019755846435    12.000000000000
           C         -0.681973816153    -0.000180380921    -0.470514153565    12.000000000000
           H         -0.826124816153    -2.155416380921    -0.321018153565     1.007825032070
           H         -1.409582816153    -1.292582380921     1.100195846435     1.007825032070
           C         -1.357818816153     1.274391619079     0.020306846435    12.000000000000
           N          0.739496183847    -0.000441380921     0.006214846435    14.003074004780
           H         -0.594218816153     0.000041619079    -1.545041153565     1.007825032070
           H         -2.365008816153     1.313677619079    -0.378544153565     1.007825032070
           H         -0.825108816153     2.155061619079    -0.320027153565     1.007825032070
           H         -1.409088816153     1.291870619079     1.100757846435     1.007825032070
           O          1.552145183847    -0.529054380921    -0.687147153565    15.994914619560
           O          0.967045183847     0.529761619079     1.051445846435    15.994914619560

  Running in c1 symmetry.

  Rotational constants: A =      0.17379  B =      0.10836  C =      0.08504 [cm^-1]
  Rotational constants: A =   5210.12632  B =   3248.44456  C =   2549.29744 [MHz]
  Nuclear repulsion =  257.032555672245167

  Charge       = 0
  Multiplicity = 1
  Electrons    = 48
  Nalpha       = 24
  Nbeta        = 24

  ==> Algorithm <==

  SCF Algorithm Type is DF.
  DIIS enabled.
  MOM disabled.
  Fractional occupation disabled.
  Guess Type is CORE.
  Energy threshold   = 1.00e-06
  Density threshold  = 1.00e-06
  Integral threshold = 0.00e+00

  ==> Primary Basis <==

  Basis Set: 6-31G*
    Number of shells: 50
    Number of basis function: 104
    Number of Cartesian functions: 104
    Spherical Harmonics?: false
    Max angular momentum: 2

  ==> Pre-Iterations <==

   -------------------------------------------------------
    Irrep   Nso     Nmo     Nalpha   Nbeta   Ndocc  Nsocc
   -------------------------------------------------------
     A        104     104       0       0       0       0
   -------------------------------------------------------
    Total     104     104      24      24      24       0
   -------------------------------------------------------

 OEINTS: Overlap, kinetic, potential, dipole, and quadrupole integrals
         stored in file 35.

  ==> Integral Setup <==

  ==> DFJK: Density-Fitted J/K Matrices <==

    J tasked:                  Yes
    K tasked:                  Yes
    wK tasked:                  No
    OpenMP threads:              1
    Integrals threads:           1
    Memory (MB):              1430
    Algorithm:                Core
    Integral Cache:           NONE
    Schwarz Cutoff:          1E-12
    Fitting Condition:       1E-12

   => Auxiliary Basis Set <=

  Basis Set: 
    Number of shells: 207
    Number of basis function: 661
    Number of Cartesian functions: 661
    Spherical Harmonics?: false
    Max angular momentum: 3

  Minimum eigenvalue in the overlap matrix is 2.8372105980E-03.
  Using Symmetric Orthogonalization.
  SCF Guess: Core (One-Electron) Hamiltonian.

  ==> Iterations <==

                           Total Energy        Delta E     RMS |[F,P]|

   @DF-RHF iter   1:  -237.12500412817008   -2.37125e+02   8.59104e-02 
   @DF-RHF iter   2:  -211.86360625984844    2.52614e+01   6.81670e-02 DIIS
   @DF-RHF iter   3:  -255.23610329173516   -4.33725e+01   7.19721e-02 DIIS
   @DF-RHF iter   4:  -317.76867449977487   -6.25326e+01   2.31366e-02 DIIS
   @DF-RHF iter   5:  -321.18297304424561   -3.41430e+00   1.03287e-02 DIIS
   @DF-RHF iter   6:  -321.67938774553295   -4.96415e-01   3.44994e-03 DIIS
   @DF-RHF iter   7:  -321.72793758778846   -4.85498e-02   1.31401e-03 DIIS
   @DF-RHF iter   8:  -321.73692389198141   -8.98630e-03   4.01793e-04 DIIS
   @DF-RHF iter   9:  -321.73792341146384   -9.99519e-04   1.77876e-04 DIIS
   @DF-RHF iter  10:  -321.73817726342872   -2.53852e-04   7.76606e-05 DIIS
   @DF-RHF iter  11:  -321.73823302192807   -5.57585e-05   3.36786e-05 DIIS
   @DF-RHF iter  12:  -321.73824945406761   -1.64321e-05   1.30234e-05 DIIS
   @DF-RHF iter  13:  -321.73825197738722   -2.52332e-06   4.92773e-06 DIIS
   @DF-RHF iter  14:  -321.73825246916829   -4.91781e-07   1.33146e-06 DIIS
   @DF-RHF iter  15:  -321.73825250934635   -4.01781e-08   4.86117e-07 DIIS

  ==> Post-Iterations <==

    Orbital Energies (a.u.)
    -----------------------

    Doubly Occupied:                                                      

       1A    -20.599862     2A    -20.599030     3A    -15.843140  
       4A    -11.306131     5A    -11.249286     6A    -11.240601  
       7A     -1.628764     8A     -1.414320     9A     -1.143807  
      10A     -0.973230    11A     -0.957778    12A     -0.813225  
      13A     -0.753787    14A     -0.727195    15A     -0.722578  
      16A     -0.647588    17A     -0.593221    18A     -0.587452  
      19A     -0.572091    20A     -0.528475    21A     -0.523030  
      22A     -0.481499    23A     -0.470044    24A     -0.446980  

    Virtual:                                                              

      25A      0.122316    26A      0.217789    27A      0.264769  
      28A      0.273172    29A      0.283790    30A      0.301133  
      31A      0.325617    32A      0.330183    33A      0.344616  
      34A      0.363350    35A      0.413195    36A      0.537284  
      37A      0.612501    38A      0.674329    39A      0.692517  
      40A      0.723870    41A      0.759867    42A      0.786674  
      43A      0.840596    44A      0.897845    45A      0.930093  
      46A      0.951060    47A      0.957232    48A      1.006520  
      49A      1.071019    50A      1.084955    51A      1.094100  
      52A      1.116670    53A      1.134427    54A      1.145376  
      55A      1.158287    56A      1.180893    57A      1.204292  
      58A      1.224580    59A      1.253302    60A      1.272647  
      61A      1.293823    62A      1.311116    63A      1.371655  
      64A      1.402351    65A      1.568812    66A      1.597208  
      67A      1.642283    68A      1.730574    69A      1.802525  
      70A      1.894810    71A      1.947080    72A      1.976507  
      73A      2.037381    74A      2.097607    75A      2.124760  
      76A      2.143612    77A      2.171347    78A      2.233110  
      79A      2.245858    80A      2.301108    81A      2.314572  
      82A      2.376727    83A      2.428578    84A      2.451654  
      85A      2.558917    86A      2.570454    87A      2.581110  
      88A      2.680571    89A      2.696214    90A      2.755130  
      91A      2.879709    92A      2.940463    93A      3.015030  
      94A      3.086383    95A      3.246866    96A      3.275304  
      97A      3.299245    98A      3.499875    99A      4.104619  
     100A      4.280842   101A      4.291192   102A      4.606500  
     103A      4.721337   104A      4.952968  

    Final Occupation by Irrep:
              A 
    DOCC [    24 ]

  Energy converged.

  @DF-RHF Final Energy:  -321.73825250934635

   => Energetics <=

    Nuclear Repulsion Energy =            257.0325556722451665
    One-Electron Energy =                -947.8955257633679139
    Two-Electron Energy =                 369.1247175817767356
    DFT Exchange-Correlation Energy =       0.0000000000000000
    Empirical Dispersion Energy =           0.0000000000000000
    PCM Polarization Energy =               0.0000000000000000
    EFP Energy =                            0.0000000000000000
    Total Energy =                       -321.7382525093460117

    Alert: EFP and PCM quantities not currently incorporated into SCF psivars.

Properties will be evaluated at   0.000000,   0.000000,   0.000000 Bohr
  ==> Properties <==


Properties computed using the SCF density matrix

  Nuclear Dipole Moment: (a.u.)
     X:    -9.1724      Y:    -0.0005      Z:    -0.6945

  Electronic Dipole Moment: (a.u.)
     X:     7.5610      Y:    -0.0294      Z:     0.2719

  Dipole Moment: (a.u.)
     X:    -1.6114      Y:    -0.0299      Z:    -0.4227     Total:     1.6661

  Dipole Moment: (Debye)
     X:    -4.0957      Y:    -0.0759      Z:    -1.0743     Total:     4.2349


  Saving occupied orbitals to File 180.

*** tstop() called on cx1-3-6-2.cx1.hpc.ic.ac.uk at Tue Jul  5 16:43:48 2016
Module time:
	user time   =       5.73 seconds =       0.10 minutes
	system time =       0.05 seconds =       0.00 minutes
	total time  =          7 seconds =       0.12 minutes
Total time:
	user time   =       5.73 seconds =       0.10 minutes
	system time =       0.05 seconds =       0.00 minutes
	total time  =          7 seconds =       0.12 minutes


Properties will be evaluated at   0.000000,   0.000000,   0.000000 Bohr

Properties computed using the  density matrix

  Nuclear Dipole Moment: (a.u.)
     X:    -9.1724      Y:    -0.0005      Z:    -0.6945

  Electronic Dipole Moment: (a.u.)
     X:     7.5610      Y:    -0.0294      Z:     0.2719

  Dipole Moment: (a.u.)
     X:    -1.6114      Y:    -0.0299      Z:    -0.4227     Total:     1.6661

  Dipole Moment: (Debye)
     X:    -4.0957      Y:    -0.0759      Z:    -1.0743     Total:     4.2349

  Quadrupole Moment: (Debye Ang)
    XX:   -39.2707     YY:   -35.1881     ZZ:   -37.8106
    XY:     0.9281     XZ:     0.3600     YZ:    -2.0844

  Traceless Quadrupole Moment: (Debye Ang)
    XX:    -1.8476     YY:     2.2350     ZZ:    -0.3875
    XY:     0.9281     XZ:     0.3600     YZ:    -2.0844

  Mulliken Charges: (a.u.)
   Center  Symbol    Alpha    Beta     Spin     Total
       1     H     0.40553  0.40553  0.00000  0.18894
       2     C     3.24984  3.24984  0.00000 -0.49967
       3     C     3.02377  3.02377  0.00000 -0.04754
       4     H     0.39775  0.39775  0.00000  0.20450
       5     H     0.40138  0.40138  0.00000  0.19724
       6     C     3.24564  3.24564  0.00000 -0.49127
       7     N     3.21642  3.21642  0.00000  0.56715
       8     H     0.38638  0.38638  0.00000  0.22724
       9     H     0.41237  0.41237  0.00000  0.17527
      10     H     0.40425  0.40425  0.00000  0.19150
      11     H     0.39675  0.39675  0.00000  0.20649
      12     O     4.23036  4.23036  0.00000 -0.46071
      13     O     4.22957  4.22957  0.00000 -0.45914

   Total alpha = 24.00000, Total beta = 24.00000, Total charge = -0.00000


*** PSI4 exiting successfully. Buy a developer a beer!
