    -----------------------------------------------------------------------
          Psi4: An Open-Source Ab Initio Electronic Structure Package
                              Psi4 (no tag) Driver

                          Git: Rev {detached?}  

    J. M. Turney, A. C. Simmonett, R. M. Parrish, E. G. Hohenstein,
    F. A. Evangelista, J. T. Fermann, B. J. Mintz, L. A. Burns, J. J. Wilke,
    M. L. Abrams, N. J. Russ, M. L. Leininger, C. L. Janssen, E. T. Seidl,
    W. D. Allen, H. F. Schaefer, R. A. King, E. F. Valeev, C. D. Sherrill,
    and T. D. Crawford, WIREs Comput. Mol. Sci. 2, 556-565 (2012)
    (doi: 10.1002/wcms.93)

                         Additional Contributions by
    A. E. DePrince, M. Saitow, U. Bozkaya, A. Yu. Sokolov
    -----------------------------------------------------------------------


    Psi4 started on: Tue Jul 26 13:30:54 2016

    Process ID:  10971
    PSI4DATADIR: /export131/home/mjharvey/miniconda3/share
    Memory level set to 256.000 MB

  ==> Input File <==

--------------------------------------------------------------------------
set {
	reference rhf
	basis 6-31G*
}


set_num_threads( 24 )
memory 2 gb

molecule MOL {
0 1

H	 -3.777090	 -2.595235	 0.886282
C	 -3.155707	 -1.728331	 0.771662
C	 -1.915682	 -1.861684	 0.361729
H	 -3.572110	 -0.764358	 0.999535
O	 -1.081000	 -0.797000	 0.234000
H	 -1.482950	 -2.816571	 0.122640
C	 0.151000	 -0.997000	 -0.369000
C	 1.143000	 0.077000	 0.017000
H	 0.082000	 -1.019000	 -1.451000
H	 0.537000	 -1.944000	 -0.023000
F	 0.942633	 0.429544	 1.278564
F	 2.391066	 -0.347800	 -0.086844
F	 1.021272	 1.154467	 -0.729697

	symmetry c1
}
set optking {
	frozen_dihedral = ("
		11 8 7 9,
		6 3 2 1,
		6 3 5 7
	")
}

ee = energy('scf')
oeprop('DIPOLE', 'QUADRUPOLE', 'MULLIKEN_CHARGES')
f=open( 'psi4out.xyz', 'w' )
f.write( "13  " )
f.write( str(ee) + "\n" )
f.write( MOL.save_string_xyz() )
f.close()
--------------------------------------------------------------------------

  Memory set to   2.000 GiB by Python script.

*** tstart() called on cx1b.hpc.ic.ac.uk
*** at Tue Jul 26 13:30:54 2016


         ---------------------------------------------------------
                                   SCF
            by Justin Turney, Rob Parrish, and Andy Simmonett
                              RHF Reference
                       24 Threads,   2000 MiB Core
         ---------------------------------------------------------

  ==> Geometry <==

    Molecular point group: c1
    Full point group: C1

    Geometry (in Angstrom), charge = 0, multiplicity = 1:

       Center              X                  Y                   Z               Mass       
    ------------   -----------------  -----------------  -----------------  -----------------
           H         -3.871043635941    -2.177928935067     0.708261099975     1.007825032070
           C         -3.249660635941    -1.311024935067     0.593641099975    12.000000000000
           C         -2.009635635941    -1.444377935067     0.183708099975    12.000000000000
           H         -3.666063635941    -0.347051935067     0.821514099975     1.007825032070
           O         -1.174953635941    -0.379693935067     0.055979099975    15.994914619560
           H         -1.576903635941    -2.399264935067    -0.055380900025     1.007825032070
           C          0.057046364059    -0.579693935067    -0.547020900025    12.000000000000
           C          1.049046364059     0.494306064933    -0.161020900025    12.000000000000
           H         -0.011953635941    -0.601693935067    -1.629020900025     1.007825032070
           H          0.443046364059    -1.526693935067    -0.201020900025     1.007825032070
           F          0.848679364059     0.846850064933     1.100543099975    18.998403224000
           F          2.297112364059     0.069506064933    -0.264864900025    18.998403224000
           F          0.927318364059     1.571773064933    -0.907717900025    18.998403224000

  Running in c1 symmetry.

  Rotational constants: A =      0.17077  B =      0.03370  C =      0.03317 [cm^-1]
  Rotational constants: A =   5119.70122  B =   1010.25405  C =    994.28876 [MHz]
  Nuclear repulsion =  405.675545951548941

  Charge       = 0
  Multiplicity = 1
  Electrons    = 64
  Nalpha       = 32
  Nbeta        = 32

  ==> Algorithm <==

  SCF Algorithm Type is DF.
  DIIS enabled.
  MOM disabled.
  Fractional occupation disabled.
  Guess Type is CORE.
  Energy threshold   = 1.00e-06
  Density threshold  = 1.00e-06
  Integral threshold = 0.00e+00

  ==> Primary Basis <==

  Basis Set: 6-31G*
    Number of shells: 58
    Number of basis function: 130
    Number of Cartesian functions: 130
    Spherical Harmonics?: false
    Max angular momentum: 2

  ==> Pre-Iterations <==

   -------------------------------------------------------
    Irrep   Nso     Nmo     Nalpha   Nbeta   Ndocc  Nsocc
   -------------------------------------------------------
     A        130     130       0       0       0       0
   -------------------------------------------------------
    Total     130     130      32      32      32       0
   -------------------------------------------------------

 OEINTS: Overlap, kinetic, potential, dipole, and quadrupole integrals
         stored in file 35.

  ==> Integral Setup <==

  ==> DFJK: Density-Fitted J/K Matrices <==

    J tasked:                  Yes
    K tasked:                  Yes
    wK tasked:                  No
    OpenMP threads:             24
    Integrals threads:          24
    Memory (MB):              1430
    Algorithm:                Core
    Integral Cache:           NONE
    Schwarz Cutoff:          1E-12
    Fitting Condition:       1E-12

   => Auxiliary Basis Set <=

  Basis Set: 
    Number of shells: 237
    Number of basis function: 773
    Number of Cartesian functions: 773
    Spherical Harmonics?: false
    Max angular momentum: 3

  Minimum eigenvalue in the overlap matrix is 1.7525348186E-03.
  Using Symmetric Orthogonalization.
  SCF Guess: Core (One-Electron) Hamiltonian.

  ==> Iterations <==

                           Total Energy        Delta E     RMS |[F,P]|

   @DF-RHF iter   1:  -441.25652041933705   -4.41257e+02   7.45843e-02 
   @DF-RHF iter   2:  -165.13921790528065    2.76117e+02   1.00584e-01 DIIS
   @DF-RHF iter   3:  -489.74211316866030   -3.24603e+02   3.67339e-02 DIIS
   @DF-RHF iter   4:  -364.35726262596989    1.25385e+02   7.72810e-02 DIIS
   @DF-RHF iter   5:  -498.96816506482475   -1.34611e+02   4.59915e-02 DIIS
   @DF-RHF iter   6:  -526.71277322487958   -2.77446e+01   9.99862e-03 DIIS
   @DF-RHF iter   7:  -527.41003151810946   -6.97258e-01   4.36737e-03 DIIS
   @DF-RHF iter   8:  -527.52126409770540   -1.11233e-01   7.27466e-04 DIIS
   @DF-RHF iter   9:  -527.52894061601933   -7.67652e-03   2.37619e-04 DIIS
   @DF-RHF iter  10:  -527.52967341010481   -7.32794e-04   9.00256e-05 DIIS
   @DF-RHF iter  11:  -527.52980823107100   -1.34821e-04   3.47287e-05 DIIS
   @DF-RHF iter  12:  -527.52982658703854   -1.83560e-05   7.55241e-06 DIIS
   @DF-RHF iter  13:  -527.52982766091213   -1.07387e-06   2.87007e-06 DIIS
   @DF-RHF iter  14:  -527.52982783740435   -1.76492e-07   1.04376e-06 DIIS
   @DF-RHF iter  15:  -527.52982785706536   -1.96610e-08   3.61918e-07 DIIS

  ==> Post-Iterations <==

    Orbital Energies (a.u.)
    -----------------------

    Doubly Occupied:                                                      

       1A    -26.347086     2A    -26.341978     3A    -26.333096  
       4A    -20.604990     5A    -11.506381     6A    -11.318300  
       7A    -11.302989     8A    -11.219083     9A     -1.740356  
      10A     -1.641018    11A     -1.632629    12A     -1.436241  
      13A     -1.086679    14A     -1.016393    15A     -0.922875  
      16A     -0.836925    17A     -0.829171    18A     -0.807701  
      19A     -0.799983    20A     -0.723355    21A     -0.713656  
      22A     -0.696144    23A     -0.679855    24A     -0.657706  
      25A     -0.653934    26A     -0.640197    27A     -0.635817  
      28A     -0.578549    29A     -0.558111    30A     -0.526283  
      31A     -0.512174    32A     -0.353270  

    Virtual:                                                              

      33A      0.184838    34A      0.228784    35A      0.266401  
      36A      0.284391    37A      0.294534    38A      0.311983  
      39A      0.338336    40A      0.408676    41A      0.433062  
      42A      0.461010    43A      0.480699    44A      0.499538  
      45A      0.518351    46A      0.687873    47A      0.718126  
      48A      0.735909    49A      0.743104    50A      0.751088  
      51A      0.770063    52A      0.808736    53A      0.844284  
      54A      0.852946    55A      0.923021    56A      0.944438  
      57A      0.970828    58A      1.073338    59A      1.084525  
      60A      1.121639    61A      1.134502    62A      1.153132  
      63A      1.208779    64A      1.253426    65A      1.270901  
      66A      1.332151    67A      1.346162    68A      1.361329  
      69A      1.405258    70A      1.416760    71A      1.442798  
      72A      1.481676    73A      1.503422    74A      1.610655  
      75A      1.625154    76A      1.636790    77A      1.665979  
      78A      1.669203    79A      1.681442    80A      1.711881  
      81A      1.729175    82A      1.817893    83A      1.833768  
      84A      1.930868    85A      1.944692    86A      1.987944  
      87A      2.009439    88A      2.023412    89A      2.121422  
      90A      2.140162    91A      2.146572    92A      2.160424  
      93A      2.213001    94A      2.243795    95A      2.279985  
      96A      2.294174    97A      2.318299    98A      2.337349  
      99A      2.378403   100A      2.406003   101A      2.415147  
     102A      2.441661   103A      2.448776   104A      2.493447  
     105A      2.551612   106A      2.622783   107A      2.628435  
     108A      2.698667   109A      2.753821   110A      2.794050  
     111A      2.852049   112A      2.875049   113A      3.003398  
     114A      3.110677   115A      3.128766   116A      3.160035  
     117A      3.196940   118A      3.335516   119A      3.413987  
     120A      3.426834   121A      3.457684   122A      3.481532  
     123A      4.364341   124A      4.550540   125A      4.609018  
     126A      4.736274   127A      4.815898   128A      4.933772  
     129A      5.071005   130A      5.784805  

    Final Occupation by Irrep:
              A 
    DOCC [    32 ]

  Energy converged.

  @DF-RHF Final Energy:  -527.52982785706536

   => Energetics <=

    Nuclear Repulsion Energy =            405.6755459515489406
    One-Electron Energy =               -1535.1047716268503791
    Two-Electron Energy =                 601.8993978182361388
    DFT Exchange-Correlation Energy =       0.0000000000000000
    Empirical Dispersion Energy =           0.0000000000000000
    PCM Polarization Energy =               0.0000000000000000
    EFP Energy =                            0.0000000000000000
    Total Energy =                       -527.5298278570653565

    Alert: EFP and PCM quantities not currently incorporated into SCF psivars.

Properties will be evaluated at   0.000000,   0.000000,   0.000000 Bohr
  ==> Properties <==


Properties computed using the SCF density matrix

  Nuclear Dipole Moment: (a.u.)
     X:   -11.9880      Y:    -8.9606      Z:    -0.2652

  Electronic Dipole Moment: (a.u.)
     X:    11.7733      Y:     7.9384      Z:    -0.1819

  Dipole Moment: (a.u.)
     X:    -0.2147      Y:    -1.0223      Z:    -0.4471     Total:     1.1362

  Dipole Moment: (Debye)
     X:    -0.5458      Y:    -2.5984      Z:    -1.1364     Total:     2.8880


  Saving occupied orbitals to File 180.

*** tstop() called on cx1b.hpc.ic.ac.uk at Tue Jul 26 13:31:00 2016
Module time:
	user time   =      63.79 seconds =       1.06 minutes
	system time =       2.67 seconds =       0.04 minutes
	total time  =          6 seconds =       0.10 minutes
Total time:
	user time   =      63.79 seconds =       1.06 minutes
	system time =       2.67 seconds =       0.04 minutes
	total time  =          6 seconds =       0.10 minutes


Properties will be evaluated at   0.000000,   0.000000,   0.000000 Bohr

Properties computed using the  density matrix

  Nuclear Dipole Moment: (a.u.)
     X:   -11.9880      Y:    -8.9606      Z:    -0.2652

  Electronic Dipole Moment: (a.u.)
     X:    11.7733      Y:     7.9384      Z:    -0.1819

  Dipole Moment: (a.u.)
     X:    -0.2147      Y:    -1.0223      Z:    -0.4471     Total:     1.1362

  Dipole Moment: (Debye)
     X:    -0.5458      Y:    -2.5984      Z:    -1.1364     Total:     2.8880

  Quadrupole Moment: (Debye Ang)
    XX:   -45.4364     YY:   -41.6098     ZZ:   -45.4756
    XY:     0.6926     XZ:    -0.7796     YZ:     0.8898

  Traceless Quadrupole Moment: (Debye Ang)
    XX:    -1.2625     YY:     2.5641     ZZ:    -1.3017
    XY:     0.6926     XZ:    -0.7796     YZ:     0.8898

  Mulliken Charges: (a.u.)
   Center  Symbol    Alpha    Beta     Spin     Total
       1     H     0.40700  0.40700  0.00000  0.18601
       2     C     3.23428  3.23428  0.00000 -0.46856
       3     C     2.89532  2.89532  0.00000  0.20937
       4     H     0.40024  0.40024  0.00000  0.19952
       5     O     4.30381  4.30381  0.00000 -0.60763
       6     H     0.40884  0.40884  0.00000  0.18232
       7     C     3.05541  3.05541  0.00000 -0.11083
       8     C     2.44692  2.44692  0.00000  1.10616
       9     H     0.40404  0.40404  0.00000  0.19191
      10     H     0.40829  0.40829  0.00000  0.18342
      11     F     4.67827  4.67827  0.00000 -0.35654
      12     F     4.68122  4.68122  0.00000 -0.36243
      13     F     4.67636  4.67636  0.00000 -0.35272

   Total alpha = 32.00000, Total beta = 32.00000, Total charge = -0.00000


*** PSI4 exiting successfully. Buy a developer a beer!
