
    -----------------------------------------------------------------------
          Psi4: An Open-Source Ab Initio Electronic Structure Package
                               Psi4 1.1 release

                         Git: Rev {HEAD} add49b9 


    R. M. Parrish, L. A. Burns, D. G. A. Smith, A. C. Simmonett,
    A. E. DePrince III, E. G. Hohenstein, U. Bozkaya, A. Yu. Sokolov,
    R. Di Remigio, R. M. Richard, J. F. Gonthier, A. M. James,
    H. R. McAlexander, A. Kumar, M. Saitow, X. Wang, B. P. Pritchard,
    P. Verma, H. F. Schaefer III, K. Patkowski, R. A. King, E. F. Valeev,
    F. A. Evangelista, J. M. Turney, T. D. Crawford, and C. D. Sherrill,
    J. Chem. Theory Comput. in press (2017).
    (doi: 10.1021/acs.jctc.7b00174)

    -----------------------------------------------------------------------


    Psi4 started on: Friday, 11 August 2017 01:51PM

    Process ID:   4526
    PSIDATADIR: /home/raimis/opt/miniconda3/envs/htmd/share/psi4
    Memory:     500.0 MiB
    Threads:    1
    
  ==> Input File <==

--------------------------------------------------------------------------
set {
	reference rks
	basis cc-pvdz
}


set_num_threads( 8 )
memory 2 gb

molecule MOL {
0 1

O	 1.014300	 -0.002300	 0.060500
O	 2.462400	 -0.107500	 -0.002400
H	 0.826130	 -0.943798	 -0.116061
H	 2.655500	 0.713700	 0.488700

	symmetry c1
}
set optking { dynamic_level = 1 }
set optking {
	frozen_dihedral = ("
		3 1 2 4
	")
}

ee,wfn = energy('b3lyp-d3', return_wfn=True)
oeprop( wfn, 'DIPOLE', 'QUADRUPOLE', 'MULLIKEN_CHARGES')
f=open( 'psi4out.xyz', 'w' )
f.write( "4  " )
f.write( str(ee) + "\n" )
f.write( MOL.save_string_xyz() )
f.close()
--------------------------------------------------------------------------
  Threads set to 8 by Python driver.

  Memory set to   1.863 GiB by Python driver.

*** tstart() called on computer03
*** at Fri Aug 11 13:51:55 2017

   => Loading Basis Set <=

    Name: CC-PVDZ
    Role: ORBITAL
    Keyword: BASIS
    atoms 1-2 entry O          line   190 file /home/raimis/opt/miniconda3/envs/htmd/share/psi4/basis/cc-pvdz.gbs 
    atoms 3-4 entry H          line    20 file /home/raimis/opt/miniconda3/envs/htmd/share/psi4/basis/cc-pvdz.gbs 


         ---------------------------------------------------------
                                   SCF
            by Justin Turney, Rob Parrish, and Andy Simmonett
                              RKS Reference
                        8 Threads,   1907 MiB Core
         ---------------------------------------------------------

  ==> Geometry <==

    Molecular point group: c1
    Full point group: C1

    Geometry (in Angstrom), charge = 0, multiplicity = 1:

       Center              X                  Y                   Z               Mass       
    ------------   -----------------  -----------------  -----------------  -----------------
           O         -0.724196111083     0.056165288247     0.022127964720    15.994914619560
           O          0.723903888917    -0.049034711753    -0.040772035280    15.994914619560
           H         -0.912366111083    -0.885332711753    -0.154433035280     1.007825032070
           H          0.917003888917     0.772165288247     0.450327964720     1.007825032070

  Running in c1 symmetry.

  Rotational constants: A =      9.71309  B =      0.91035  C =      0.83678 [cm^-1]
  Rotational constants: A = 291191.09859  B =  27291.46770  C =  25086.00463 [MHz]
  Nuclear repulsion =   36.784600403214021

  Charge       = 0
  Multiplicity = 1
  Electrons    = 18
  Nalpha       = 9
  Nbeta        = 9

  ==> Algorithm <==

  SCF Algorithm Type is DF.
  DIIS enabled.
  MOM disabled.
  Fractional occupation disabled.
  Guess Type is SAD.
  Energy threshold   = 1.00e-06
  Density threshold  = 1.00e-06
  Integral threshold = 0.00e+00

  ==> Primary Basis <==

  Basis Set: CC-PVDZ
    Blend: CC-PVDZ
    Number of shells: 18
    Number of basis function: 38
    Number of Cartesian functions: 40
    Spherical Harmonics?: true
    Max angular momentum: 2

  ==> DFT Potential <==

   => B3LYP Composite Functional <= 

    B3LYP Hybrid-GGA Exchange-Correlation Functional (VWN1-RPA)

    P.J. Stephens et. al., J. Phys. Chem., 98, 11623-11627, 1994

    Points   =           5000
    Deriv    =              1
    GGA      =           TRUE
    Meta     =          FALSE

    X_LRC        =          FALSE
    X_Hybrid     =           TRUE
    X_Alpha      =   2.000000E-01
    X_Omega      =   0.000000E+00
    C_LRC        =          FALSE
    C_Hybrid     =          FALSE
    C_Alpha      =   0.000000E+00
    C_Omega      =   0.000000E+00

   => Exchange Functionals <=

    0.8000    B3_X
    0.2000      HF 

   => Correlation Functionals <=

    0.1900 VWN3RPA_C
    0.8100   LYP_C

   => Molecular Quadrature <=

    Radial Scheme    =       TREUTLER
    Pruning Scheme   =           FLAT
    Nuclear Scheme   =       TREUTLER

    BS radius alpha  =              1
    Pruning alpha    =              1
    Radial Points    =             75
    Spherical Points =            302
    Total Points     =          88340
    Total Blocks     =             88
    Max Points       =           4964
    Max Functions    =             38

   => -D3ZERO: Empirical Dispersion <=

    Grimme's -D3 (zero-damping) Dispersion Correction
    Grimme S.; Antony J.; Ehrlich S.; Krieg H. (2010), J. Chem. Phys., 132: 154104

        S6 =   1.000000E+00
        S8 =   1.703000E+00
       SR6 =   1.261000E+00
    ALPHA6 =   1.400000E+01

   => Loading Basis Set <=

    Name: (CC-PVDZ AUX)
    Role: JKFIT
    Keyword: DF_BASIS_SCF
    atoms 1-2 entry O          line   220 file /home/raimis/opt/miniconda3/envs/htmd/share/psi4/basis/cc-pvdz-jkfit.gbs 
    atoms 3-4 entry H          line    50 file /home/raimis/opt/miniconda3/envs/htmd/share/psi4/basis/cc-pvdz-jkfit.gbs 

  ==> Pre-Iterations <==

   -------------------------------------------------------
    Irrep   Nso     Nmo     Nalpha   Nbeta   Ndocc  Nsocc
   -------------------------------------------------------
     A         38      38       0       0       0       0
   -------------------------------------------------------
    Total      38      38       9       9       9       0
   -------------------------------------------------------

  ==> Integral Setup <==

  ==> DFJK: Density-Fitted J/K Matrices <==

    J tasked:                  Yes
    K tasked:                  Yes
    wK tasked:                  No
    OpenMP threads:              8
    Integrals threads:           8
    Memory (MB):              1430
    Algorithm:                Core
    Integral Cache:           NONE
    Schwarz Cutoff:          1E-12
    Fitting Condition:       1E-12

   => Auxiliary Basis Set <=

  Basis Set: (CC-PVDZ AUX)
    Blend: CC-PVDZ-JKFIT
    Number of shells: 66
    Number of basis function: 186
    Number of Cartesian functions: 212
    Spherical Harmonics?: true
    Max angular momentum: 3

  Minimum eigenvalue in the overlap matrix is 2.4053049118E-02.
  Using Symmetric Orthogonalization.

  SCF Guess: Superposition of Atomic Densities via on-the-fly atomic UHF.

  ==> Iterations <==

                           Total Energy        Delta E     RMS |[F,P]|

   @DF-RKS iter   0:  -151.77013860070059   -1.51770e+02   9.35476e-02 
   @DF-RKS iter   1:  -151.52944112081528    2.40697e-01   1.17029e-02 
   @DF-RKS iter   2:  -151.54234526108164   -1.29041e-02   6.08101e-03 DIIS
   @DF-RKS iter   3:  -151.54918224859082   -6.83699e-03   1.61649e-03 DIIS
   @DF-RKS iter   4:  -151.54985187977420   -6.69631e-04   2.46458e-04 DIIS
   @DF-RKS iter   5:  -151.54986244166574   -1.05619e-05   4.36779e-05 DIIS
   @DF-RKS iter   6:  -151.54986262245512   -1.80789e-07   3.06645e-05 DIIS
   @DF-RKS iter   7:  -151.54986292142448   -2.98969e-07   1.81454e-06 DIIS
   @DF-RKS iter   8:  -151.54986292239272   -9.68242e-10   1.89724e-07 DIIS

  ==> Post-Iterations <==

    Orbital Energies (a.u.)
    -----------------------

    Doubly Occupied:                                                      

       1A    -19.185622     2A    -19.185581     3A     -1.109612  
       4A     -0.886420     5A     -0.502517     6A     -0.495871  
       7A     -0.394804     8A     -0.350433     9A     -0.244621  

    Virtual:                                                              

      10A      0.026553    11A      0.051598    12A      0.105343  
      13A      0.573294    14A      0.578029    15A      0.844569  
      16A      0.851894    17A      0.870585    18A      0.971367  
      19A      1.001824    20A      1.069915    21A      1.249202  
      22A      1.314213    23A      1.335147    24A      1.471624  
      25A      1.654403    26A      1.787144    27A      2.045719  
      28A      2.103420    29A      2.311010    30A      2.387649  
      31A      2.647397    32A      2.867590    33A      2.925940  
      34A      2.997540    35A      3.164775    36A      3.513440  
      37A      3.513953    38A      3.839375  

    Final Occupation by Irrep:
              A 
    DOCC [     9 ]

  Energy converged.

  @DF-RKS Final Energy:  -151.54986292239272

   => Energetics <=

    Nuclear Repulsion Energy =             36.7846004032140215
    One-Electron Energy =                -281.5728584737171900
    Two-Electron Energy =                 107.7019436079850578
    DFT Exchange-Correlation Energy =     -14.4632270298746022
    Empirical Dispersion Energy =          -0.0003214300000000
    PCM Polarization Energy =               0.0000000000000000
    EFP Energy =                            0.0000000000000000
    Total Energy =                       -151.5498629223926912



Properties will be evaluated at   0.000000,   0.000000,   0.000000 Bohr

Properties computed using the SCF density matrix

  Nuclear Dipole Moment: (a.u.)
     X:     0.0043      Y:    -0.1061      Z:     0.2773

  Electronic Dipole Moment: (a.u.)
     X:    -0.0010      Y:     0.0235      Z:    -0.0613

  Dipole Moment: (a.u.)
     X:     0.0034      Y:    -0.0826      Z:     0.2160     Total:     0.2313

  Dipole Moment: (Debye)
     X:     0.0086      Y:    -0.2099      Z:     0.5490     Total:     0.5878


*** tstop() called on computer03 at Fri Aug 11 13:52:00 2017
Module time:
	user time   =      16.69 seconds =       0.28 minutes
	system time =       0.56 seconds =       0.01 minutes
	total time  =          5 seconds =       0.08 minutes
Total time:
	user time   =      16.69 seconds =       0.28 minutes
	system time =       0.56 seconds =       0.01 minutes
	total time  =          5 seconds =       0.08 minutes


Properties will be evaluated at   0.000000,   0.000000,   0.000000 Bohr

Properties computed using the  density matrix

  Nuclear Dipole Moment: (a.u.)
     X:     0.0043      Y:    -0.1061      Z:     0.2773

  Electronic Dipole Moment: (a.u.)
     X:    -0.0010      Y:     0.0235      Z:    -0.0613

  Dipole Moment: (a.u.)
     X:     0.0034      Y:    -0.0826      Z:     0.2160     Total:     0.2313

  Dipole Moment: (Debye)
     X:     0.0086      Y:    -0.2099      Z:     0.5490     Total:     0.5878

  Quadrupole Moment: (Debye Ang)
    XX:   -10.7911     YY:    -8.9406     ZZ:   -11.7778
    XY:     3.1647     XZ:     1.1871     YZ:     1.2033

  Traceless Quadrupole Moment: (Debye Ang)
    XX:    -0.2879     YY:     1.5625     ZZ:    -1.2747
    XY:     3.1647     XZ:     1.1871     YZ:     1.2033

  Mulliken Charges: (a.u.)
   Center  Symbol    Alpha    Beta     Spin     Total
       1     O     4.09136  4.09136  0.00000 -0.18272
       2     O     4.09134  4.09134  0.00000 -0.18268
       3     H     0.40864  0.40864  0.00000  0.18272
       4     H     0.40866  0.40866  0.00000  0.18268

   Total alpha =  9.00000, Total beta =  9.00000, Total charge = -0.00000


*** Psi4 exiting successfully. Buy a developer a beer!
