    -----------------------------------------------------------------------
          Psi4: An Open-Source Ab Initio Electronic Structure Package
                              Psi4 (no tag) Driver

                          Git: Rev {detached?}  

    J. M. Turney, A. C. Simmonett, R. M. Parrish, E. G. Hohenstein,
    F. A. Evangelista, J. T. Fermann, B. J. Mintz, L. A. Burns, J. J. Wilke,
    M. L. Abrams, N. J. Russ, M. L. Leininger, C. L. Janssen, E. T. Seidl,
    W. D. Allen, H. F. Schaefer, R. A. King, E. F. Valeev, C. D. Sherrill,
    and T. D. Crawford, WIREs Comput. Mol. Sci. 2, 556-565 (2012)
    (doi: 10.1002/wcms.93)

                         Additional Contributions by
    A. E. DePrince, M. Saitow, U. Bozkaya, A. Yu. Sokolov
    -----------------------------------------------------------------------


    Psi4 started on: Tue Jul  5 17:39:35 2016

    Process ID:   8887
    PSI4DATADIR: /export131/home/mjharvey/miniconda3/share
    Memory level set to 256.000 MB

  ==> Input File <==

--------------------------------------------------------------------------
set {
	reference rhf
	basis 6-31G*
}


set_num_threads( 1 )
memory 2 gb

molecule MOL {
0 1

O	 0.027013	 0.818016	 -1.543889
C	 0.788116	 1.716284	 -1.379704
C	 2.030214	 1.669790	 -0.523610
O	 0.640172	 2.906476	 -1.947763
C	 2.880795	 0.424839	 -0.756530
H	 2.595803	 2.575995	 -0.722646
H	 1.712826	 1.741513	 0.513135
C	 3.228908	 0.227576	 -2.232661
H	 2.350564	 -0.445506	 -0.382974
H	 3.790824	 0.498480	 -0.169390
C	 2.042418	 -0.258500	 -3.066827
H	 3.598538	 1.164138	 -2.647657
H	 4.045691	 -0.487168	 -2.321480
C	 0.812193	 0.638164	 -2.933442
H	 1.784793	 -1.272257	 -2.768389
H	 2.337296	 -0.314309	 -4.112327
H	 0.471826	 0.686606	 -1.902900
H	 -0.011198	 0.267824	 -3.536208
H	 1.028884	 1.652358	 -3.257116
C	 1.792514	 3.724689	 -2.034891
H	 2.180449	 3.940881	 -1.049855
H	 1.472688	 4.634305	 -2.518819
H	 2.560106	 3.239076	 -2.620117

	symmetry c1
}
set optking {
	frozen_dihedral = ("
		15 11 8 12,
		9 5 8 12,
		1 2 3 6,
		9 5 3 6
	")
}

ee = energy('scf')
oeprop('DIPOLE', 'QUADRUPOLE', 'MULLIKEN_CHARGES')
f=open( 'psi4out.xyz', 'w' )
f.write( "23  " )
f.write( str(ee) + "\n" )
f.write( MOL.save_string_xyz() )
f.close()
--------------------------------------------------------------------------

  Memory set to   2.000 GiB by Python script.

*** tstart() called on cx1-1-1-4.cx1.hpc.ic.ac.uk
*** at Tue Jul  5 17:39:35 2016


         ---------------------------------------------------------
                                   SCF
            by Justin Turney, Rob Parrish, and Andy Simmonett
                              RHF Reference
                        1 Threads,   2000 MiB Core
         ---------------------------------------------------------

  ==> Geometry <==

    Molecular point group: c1
    Full point group: C1

    Geometry (in Angstrom), charge = 0, multiplicity = 1:

       Center              X                  Y                   Z               Mass       
    ------------   -----------------  -----------------  -----------------  -----------------
           O         -1.538918147694    -0.529483878049     0.290805078398    15.994914619560
           C         -0.777815147694     0.368784121951     0.454990078398    12.000000000000
           C          0.464282852306     0.322290121951     1.311084078398    12.000000000000
           O         -0.925759147694     1.558976121951    -0.113068921602    15.994914619560
           C          1.314863852306    -0.922660878049     1.078164078398    12.000000000000
           H          1.029871852306     1.228495121951     1.112048078398     1.007825032070
           H          0.146894852306     0.394013121951     2.347829078398     1.007825032070
           C          1.662976852306    -1.119923878049    -0.397966921602    12.000000000000
           H          0.784632852306    -1.793005878049     1.451720078398     1.007825032070
           H          2.224892852306    -0.849019878049     1.665304078398     1.007825032070
           C          0.476486852306    -1.605999878049    -1.232132921602    12.000000000000
           H          2.032606852306    -0.183361878049    -0.812962921602     1.007825032070
           H          2.479759852306    -1.834667878049    -0.486785921602     1.007825032070
           C         -0.753738147694    -0.709335878049    -1.098747921602    12.000000000000
           H          0.218861852306    -2.619756878049    -0.933694921602     1.007825032070
           H          0.771364852306    -1.661808878049    -2.277632921602     1.007825032070
           H         -1.094105147694    -0.660893878049    -0.068205921602     1.007825032070
           H         -1.577129147694    -1.079675878049    -1.701513921602     1.007825032070
           H         -0.537047147694     0.304858121951    -1.422421921602     1.007825032070
           C          0.226582852306     2.377189121951    -0.200196921602    12.000000000000
           H          0.614517852306     2.593381121951     0.784839078398     1.007825032070
           H         -0.093243147694     3.286805121951    -0.684124921602     1.007825032070
           H          0.994174852306     1.891576121951    -0.785422921602     1.007825032070

  Running in c1 symmetry.

  Rotational constants: A =      0.07643  B =      0.05152  C =      0.04392 [cm^-1]
  Rotational constants: A =   2291.30253  B =   1544.45620  C =   1316.78622 [MHz]
  Nuclear repulsion =  539.891716716221026

  Charge       = 0
  Multiplicity = 1
  Electrons    = 72
  Nalpha       = 36
  Nbeta        = 36

  ==> Algorithm <==

  SCF Algorithm Type is DF.
  DIIS enabled.
  MOM disabled.
  Fractional occupation disabled.
  Guess Type is CORE.
  Energy threshold   = 1.00e-06
  Density threshold  = 1.00e-06
  Integral threshold = 0.00e+00

  ==> Primary Basis <==

  Basis Set: 6-31G*
    Number of shells: 82
    Number of basis function: 163
    Number of Cartesian functions: 163
    Spherical Harmonics?: false
    Max angular momentum: 2

  ==> Pre-Iterations <==

   -------------------------------------------------------
    Irrep   Nso     Nmo     Nalpha   Nbeta   Ndocc  Nsocc
   -------------------------------------------------------
     A        163     163       0       0       0       0
   -------------------------------------------------------
    Total     163     163      36      36      36       0
   -------------------------------------------------------

 OEINTS: Overlap, kinetic, potential, dipole, and quadrupole integrals
         stored in file 35.

  ==> Integral Setup <==

  ==> DFJK: Density-Fitted J/K Matrices <==

    J tasked:                  Yes
    K tasked:                  Yes
    wK tasked:                  No
    OpenMP threads:              1
    Integrals threads:           1
    Memory (MB):              1430
    Algorithm:                Core
    Integral Cache:           NONE
    Schwarz Cutoff:          1E-12
    Fitting Condition:       1E-12

   => Auxiliary Basis Set <=

  Basis Set: 
    Number of shells: 342
    Number of basis function: 1079
    Number of Cartesian functions: 1079
    Spherical Harmonics?: false
    Max angular momentum: 3

  Minimum eigenvalue in the overlap matrix is 1.7851469025E-03.
  Using Symmetric Orthogonalization.
  SCF Guess: Core (One-Electron) Hamiltonian.

  ==> Iterations <==

                           Total Energy        Delta E     RMS |[F,P]|

   @DF-RHF iter   1:  -269.66615331074365   -2.69666e+02   7.95835e-02 
   @DF-RHF iter   2:  -221.46574553197649    4.82004e+01   5.74807e-02 DIIS
   @DF-RHF iter   3:  -319.29081487991289   -9.78251e+01   6.17584e-02 DIIS
   @DF-RHF iter   4:  -404.36455229926128   -8.50737e+01   2.89624e-02 DIIS
   @DF-RHF iter   5:  -420.64947480071476   -1.62849e+01   9.72584e-03 DIIS
   @DF-RHF iter   6:  -421.71790964925958   -1.06843e+00   3.78008e-03 DIIS
   @DF-RHF iter   7:  -421.90731063951534   -1.89401e-01   8.47359e-04 DIIS
   @DF-RHF iter   8:  -421.92160563452160   -1.42950e-02   3.30018e-04 DIIS
   @DF-RHF iter   9:  -421.92360405712463   -1.99842e-03   1.02139e-04 DIIS
   @DF-RHF iter  10:  -421.92415360478765   -5.49548e-04   8.12403e-05 DIIS
   @DF-RHF iter  11:  -421.92438725417435   -2.33649e-04   5.31557e-05 DIIS
   @DF-RHF iter  12:  -421.92473397823494   -3.46724e-04   4.37768e-05 DIIS
   @DF-RHF iter  13:  -421.92489045815216   -1.56480e-04   1.58135e-05 DIIS
   @DF-RHF iter  14:  -421.92492417401479   -3.37159e-05   4.89065e-06 DIIS
   @DF-RHF iter  15:  -421.92492615051640   -1.97650e-06   8.00958e-07 DIIS
   @DF-RHF iter  16:  -421.92492618297354   -3.24571e-08   3.07458e-07 DIIS

  ==> Post-Iterations <==

    Orbital Energies (a.u.)
    -----------------------

    Doubly Occupied:                                                      

       1A    -20.573818     2A    -20.556623     3A    -11.319277  
       4A    -11.283071     5A    -11.247532     6A    -11.219021  
       7A    -11.216439     8A    -11.215830     9A    -11.215095  
      10A     -1.767712    11A     -1.415847    12A     -1.092089  
      13A     -1.050045    14A     -0.991922    15A     -0.951400  
      16A     -0.918127    17A     -0.822201    18A     -0.816993  
      19A     -0.775307    20A     -0.723537    21A     -0.690373  
      22A     -0.664711    23A     -0.634954    24A     -0.618336  
      25A     -0.600703    26A     -0.585889    27A     -0.569263  
      28A     -0.551824    29A     -0.535713    30A     -0.495737  
      31A     -0.470223    32A     -0.467058    33A     -0.460065  
      34A     -0.458440    35A     -0.433420    36A     -0.178154  

    Virtual:                                                              

      37A      0.139311    38A      0.223168    39A      0.255926  
      40A      0.271029    41A      0.280229    42A      0.289958  
      43A      0.301550    44A      0.309457    45A      0.314648  
      46A      0.329479    47A      0.337980    48A      0.355181  
      49A      0.367448    50A      0.388910    51A      0.399766  
      52A      0.420348    53A      0.431070    54A      0.460020  
      55A      0.463762    56A      0.490237    57A      0.520156  
      58A      0.581302    59A      0.662312    60A      0.710169  
      61A      0.727520    62A      0.730949    63A      0.744756  
      64A      0.763353    65A      0.783578    66A      0.796575  
      67A      0.820641    68A      0.851091    69A      0.868587  
      70A      0.910254    71A      0.918547    72A      0.943118  
      73A      0.952601    74A      0.965971    75A      1.008940  
      76A      1.016075    77A      1.045283    78A      1.070501  
      79A      1.102808    80A      1.114195    81A      1.124613  
      82A      1.148775    83A      1.157331    84A      1.161658  
      85A      1.167319    86A      1.190741    87A      1.215599  
      88A      1.218694    89A      1.234313    90A      1.255176  
      91A      1.256853    92A      1.269866    93A      1.294878  
      94A      1.307104    95A      1.323836    96A      1.393840  
      97A      1.407171    98A      1.447854    99A      1.461478  
     100A      1.500610   101A      1.534523   102A      1.589483  
     103A      1.638442   104A      1.666611   105A      1.729319  
     106A      1.789168   107A      1.797363   108A      1.827686  
     109A      1.867584   110A      1.882623   111A      1.936164  
     112A      1.983430   113A      2.019415   114A      2.056361  
     115A      2.066237   116A      2.109867   117A      2.131940  
     118A      2.189375   119A      2.208610   120A      2.230713  
     121A      2.246244   122A      2.265406   123A      2.307712  
     124A      2.355317   125A      2.380643   126A      2.398916  
     127A      2.419771   128A      2.419991   129A      2.482417  
     130A      2.494828   131A      2.540763   132A      2.581977  
     133A      2.624212   134A      2.643291   135A      2.669772  
     136A      2.692476   137A      2.701777   138A      2.717696  
     139A      2.754847   140A      2.784416   141A      2.839387  
     142A      2.882829   143A      2.924551   144A      2.944265  
     145A      3.006569   146A      3.018884   147A      3.071327  
     148A      3.120312   149A      3.158033   150A      3.219900  
     151A      3.300998   152A      3.456031   153A      3.566674  
     154A      4.471899   155A      4.584956   156A      4.624151  
     157A      4.711415   158A      4.774896   159A      4.799312  
     160A      4.971223   161A      5.032680   162A      5.072063  
     163A      5.317184  

    Final Occupation by Irrep:
              A 
    DOCC [    36 ]

  Energy converged.

  @DF-RHF Final Energy:  -421.92492618297354

   => Energetics <=

    Nuclear Repulsion Energy =            539.8917167162210262
    One-Electron Energy =               -1644.4598423036127315
    Two-Electron Energy =                 682.6431994044183966
    DFT Exchange-Correlation Energy =       0.0000000000000000
    Empirical Dispersion Energy =           0.0000000000000000
    PCM Polarization Energy =               0.0000000000000000
    EFP Energy =                            0.0000000000000000
    Total Energy =                       -421.9249261829733086

    Alert: EFP and PCM quantities not currently incorporated into SCF psivars.

Properties will be evaluated at   0.000000,   0.000000,   0.000000 Bohr
  ==> Properties <==


Properties computed using the SCF density matrix

  Nuclear Dipole Moment: (a.u.)
     X:     7.4842      Y:    -0.9166      Z:    -1.6969

  Electronic Dipole Moment: (a.u.)
     X:    -6.6897      Y:     1.1767      Z:     1.7501

  Dipole Moment: (a.u.)
     X:     0.7945      Y:     0.2601      Z:     0.0532     Total:     0.8377

  Dipole Moment: (Debye)
     X:     2.0195      Y:     0.6611      Z:     0.1352     Total:     2.1293


  Saving occupied orbitals to File 180.

*** tstop() called on cx1-1-1-4.cx1.hpc.ic.ac.uk at Tue Jul  5 17:40:00 2016
Module time:
	user time   =      24.29 seconds =       0.40 minutes
	system time =       0.23 seconds =       0.00 minutes
	total time  =         25 seconds =       0.42 minutes
Total time:
	user time   =      24.29 seconds =       0.40 minutes
	system time =       0.23 seconds =       0.00 minutes
	total time  =         25 seconds =       0.42 minutes


Properties will be evaluated at   0.000000,   0.000000,   0.000000 Bohr

Properties computed using the  density matrix

  Nuclear Dipole Moment: (a.u.)
     X:     7.4842      Y:    -0.9166      Z:    -1.6969

  Electronic Dipole Moment: (a.u.)
     X:    -6.6897      Y:     1.1767      Z:     1.7501

  Dipole Moment: (a.u.)
     X:     0.7945      Y:     0.2601      Z:     0.0532     Total:     0.8377

  Dipole Moment: (Debye)
     X:     2.0195      Y:     0.6611      Z:     0.1352     Total:     2.1293

  Quadrupole Moment: (Debye Ang)
    XX:   -59.7600     YY:   -53.8135     ZZ:   -57.6670
    XY:     2.7915     XZ:     0.2867     YZ:     0.9200

  Traceless Quadrupole Moment: (Debye Ang)
    XX:    -2.6798     YY:     3.2667     ZZ:    -0.5868
    XY:     2.7915     XZ:     0.2867     YZ:     0.9200

  Mulliken Charges: (a.u.)
   Center  Symbol    Alpha    Beta     Spin     Total
       1     O     4.10704  4.10704  0.00000 -0.21408
       2     C     2.78135  2.78135  0.00000  0.43731
       3     C     3.18408  3.18408  0.00000 -0.36816
       4     O     4.31168  4.31168  0.00000 -0.62336
       5     C     3.15899  3.15899  0.00000 -0.31798
       6     H     0.40993  0.40993  0.00000  0.18014
       7     H     0.42408  0.42408  0.00000  0.15185
       8     C     3.15349  3.15349  0.00000 -0.30697
       9     H     0.41895  0.41895  0.00000  0.16211
      10     H     0.41790  0.41790  0.00000  0.16421
      11     C     3.14336  3.14336  0.00000 -0.28672
      12     H     0.42620  0.42620  0.00000  0.14760
      13     H     0.41861  0.41861  0.00000  0.16278
      14     C     3.26900  3.26900  0.00000 -0.53800
      15     H     0.42178  0.42178  0.00000  0.15644
      16     H     0.41597  0.41597  0.00000  0.16806
      17     H     0.40886  0.40886  0.00000  0.18228
      18     H     0.40125  0.40125  0.00000  0.19750
      19     H     0.39670  0.39670  0.00000  0.20660
      20     C     3.10539  3.10539  0.00000 -0.21078
      21     H     0.40870  0.40870  0.00000  0.18260
      22     H     0.40219  0.40219  0.00000  0.19563
      23     H     0.41452  0.41452  0.00000  0.17095

   Total alpha = 36.00000, Total beta = 36.00000, Total charge =  0.00000


*** PSI4 exiting successfully. Buy a developer a beer!
