    -----------------------------------------------------------------------
          Psi4: An Open-Source Ab Initio Electronic Structure Package
                              Psi4 (no tag) Driver

                          Git: Rev {detached?}  

    J. M. Turney, A. C. Simmonett, R. M. Parrish, E. G. Hohenstein,
    F. A. Evangelista, J. T. Fermann, B. J. Mintz, L. A. Burns, J. J. Wilke,
    M. L. Abrams, N. J. Russ, M. L. Leininger, C. L. Janssen, E. T. Seidl,
    W. D. Allen, H. F. Schaefer, R. A. King, E. F. Valeev, C. D. Sherrill,
    and T. D. Crawford, WIREs Comput. Mol. Sci. 2, 556-565 (2012)
    (doi: 10.1002/wcms.93)

                         Additional Contributions by
    A. E. DePrince, M. Saitow, U. Bozkaya, A. Yu. Sokolov
    -----------------------------------------------------------------------


    Psi4 started on: Tue Jul  5 16:33:22 2016

    Process ID:  24526
    PSI4DATADIR: /export131/home/mjharvey/miniconda3/share
    Memory level set to 256.000 MB

  ==> Input File <==

--------------------------------------------------------------------------
set {
	reference rhf
	basis 6-31G*
}


set_num_threads( 1 )
memory 2 gb

molecule MOL {
0 1

H	 -2.798360	 -0.862255	 -0.071053
N	 -1.863561	 -0.715187	 0.256814
C	 -1.344686	 0.554728	 -0.219830
H	 -1.300452	 -1.461917	 -0.101532
C	 -0.758920	 1.340035	 0.934858
H	 -0.579497	 0.454667	 -0.990852
H	 -2.163618	 1.126152	 -0.645984
O	 -1.796386	 1.665067	 1.815258
H	 -0.003563	 0.746387	 1.449306
H	 -0.285582	 2.244506	 0.559200
C	 -1.410704	 2.465582	 2.886704
H	 -2.287869	 2.647651	 3.492615
H	 -0.656479	 1.974581	 3.499113
H	 -1.012144	 3.419343	 2.547147

	symmetry c1
}
set optking {
	frozen_dihedral = ("
		8 5 3 6,
		5 8 11 13,
		11 8 5 3
	")
}

ee = energy('scf')
oeprop('DIPOLE', 'QUADRUPOLE', 'MULLIKEN_CHARGES')
f=open( 'psi4out.xyz', 'w' )
f.write( "14  " )
f.write( str(ee) + "\n" )
f.write( MOL.save_string_xyz() )
f.close()
--------------------------------------------------------------------------

  Memory set to   2.000 GiB by Python script.

*** tstart() called on cx1-3-6-4.cx1.hpc.ic.ac.uk
*** at Tue Jul  5 16:33:22 2016


         ---------------------------------------------------------
                                   SCF
            by Justin Turney, Rob Parrish, and Andy Simmonett
                              RHF Reference
                        1 Threads,   2000 MiB Core
         ---------------------------------------------------------

  ==> Geometry <==

    Molecular point group: c1
    Full point group: C1

    Geometry (in Angstrom), charge = 0, multiplicity = 1:

       Center              X                  Y                   Z               Mass       
    ------------   -----------------  -----------------  -----------------  -----------------
           H         -1.357345568038    -1.918778663326    -1.212225719042     1.007825032070
           N         -0.422546568038    -1.771710663326    -0.884358719042    14.003074004780
           C          0.096328431962    -0.501795663326    -1.361002719042    12.000000000000
           H          0.140562431962    -2.518440663326    -1.242704719042     1.007825032070
           C          0.682094431962     0.283511336674    -0.206314719042    12.000000000000
           H          0.861517431962    -0.601856663326    -2.132024719042     1.007825032070
           H         -0.722603568038     0.069628336674    -1.787156719042     1.007825032070
           O         -0.355371568038     0.608543336674     0.674085280958    15.994914619560
           H          1.437451431962    -0.310136663326     0.308133280958     1.007825032070
           H          1.155432431962     1.187982336674    -0.581972719042     1.007825032070
           C          0.030310431962     1.409058336674     1.745531280958    12.000000000000
           H         -0.846854568038     1.591127336674     2.351442280958     1.007825032070
           H          0.784535431962     0.918057336674     2.357940280958     1.007825032070
           H          0.428870431962     2.362819336674     1.405974280958     1.007825032070

  Running in c1 symmetry.

  Rotational constants: A =      0.44931  B =      0.08808  C =      0.08062 [cm^-1]
  Rotational constants: A =  13470.00681  B =   2640.54107  C =   2416.92005 [MHz]
  Nuclear repulsion =  193.873187471362940

  Charge       = 0
  Multiplicity = 1
  Electrons    = 42
  Nalpha       = 21
  Nbeta        = 21

  ==> Algorithm <==

  SCF Algorithm Type is DF.
  DIIS enabled.
  MOM disabled.
  Fractional occupation disabled.
  Guess Type is CORE.
  Energy threshold   = 1.00e-06
  Density threshold  = 1.00e-06
  Integral threshold = 0.00e+00

  ==> Primary Basis <==

  Basis Set: 6-31G*
    Number of shells: 48
    Number of basis function: 93
    Number of Cartesian functions: 93
    Spherical Harmonics?: false
    Max angular momentum: 2

  ==> Pre-Iterations <==

   -------------------------------------------------------
    Irrep   Nso     Nmo     Nalpha   Nbeta   Ndocc  Nsocc
   -------------------------------------------------------
     A         93      93       0       0       0       0
   -------------------------------------------------------
    Total      93      93      21      21      21       0
   -------------------------------------------------------

 OEINTS: Overlap, kinetic, potential, dipole, and quadrupole integrals
         stored in file 35.

  ==> Integral Setup <==

  ==> DFJK: Density-Fitted J/K Matrices <==

    J tasked:                  Yes
    K tasked:                  Yes
    wK tasked:                  No
    OpenMP threads:              1
    Integrals threads:           1
    Memory (MB):              1430
    Algorithm:                Core
    Integral Cache:           NONE
    Schwarz Cutoff:          1E-12
    Fitting Condition:       1E-12

   => Auxiliary Basis Set <=

  Basis Set: 
    Number of shells: 201
    Number of basis function: 630
    Number of Cartesian functions: 630
    Spherical Harmonics?: false
    Max angular momentum: 3

  Minimum eigenvalue in the overlap matrix is 4.5758073981E-03.
  Using Symmetric Orthogonalization.
  SCF Guess: Core (One-Electron) Hamiltonian.

  ==> Iterations <==

                           Total Energy        Delta E     RMS |[F,P]|

   @DF-RHF iter   1:  -201.84465327337006   -2.01845e+02   7.96921e-02 
   @DF-RHF iter   2:  -154.53748628036516    4.73072e+01   6.63193e-02 DIIS
   @DF-RHF iter   3:  -210.11779982939305   -5.55803e+01   6.11406e-02 DIIS
   @DF-RHF iter   4:  -238.32861477099675   -2.82108e+01   4.24279e-02 DIIS
   @DF-RHF iter   5:  -247.72691403298558   -9.39830e+00   9.43642e-03 DIIS
   @DF-RHF iter   6:  -248.05717106270686   -3.30257e-01   3.72762e-03 DIIS
   @DF-RHF iter   7:  -248.11328084371951   -5.61098e-02   9.26918e-04 DIIS
   @DF-RHF iter   8:  -248.11696773264561   -3.68689e-03   2.93274e-04 DIIS
   @DF-RHF iter   9:  -248.11744577619515   -4.78044e-04   9.59834e-05 DIIS
   @DF-RHF iter  10:  -248.11750516548011   -5.93893e-05   3.11675e-05 DIIS
   @DF-RHF iter  11:  -248.11751231382271   -7.14834e-06   8.60566e-06 DIIS
   @DF-RHF iter  12:  -248.11751281517155   -5.01349e-07   3.12938e-06 DIIS
   @DF-RHF iter  13:  -248.11751288520179   -7.00302e-08   6.33664e-07 DIIS

  ==> Post-Iterations <==

    Orbital Energies (a.u.)
    -----------------------

    Doubly Occupied:                                                      

       1A    -20.545059     2A    -15.530442     3A    -11.258284  
       4A    -11.257985     5A    -11.241991     6A     -1.369272  
       7A     -1.175682     8A     -0.995197     9A     -0.900041  
      10A     -0.812198    11A     -0.681127    12A     -0.666726  
      13A     -0.634810    14A     -0.625254    15A     -0.593258  
      16A     -0.536936    17A     -0.515668    18A     -0.501224  
      19A     -0.463433    20A     -0.408884    21A     -0.379718  

    Virtual:                                                              

      22A      0.227651    23A      0.252548    24A      0.276005  
      25A      0.292541    26A      0.319688    27A      0.327249  
      28A      0.336602    29A      0.344746    30A      0.358419  
      31A      0.381493    32A      0.433101    33A      0.443233  
      34A      0.459119    35A      0.731904    36A      0.765411  
      37A      0.779656    38A      0.800440    39A      0.826351  
      40A      0.837642    41A      0.893066    42A      0.929133  
      43A      1.001323    44A      1.015983    45A      1.064622  
      46A      1.112905    47A      1.118838    48A      1.154696  
      49A      1.158564    50A      1.169228    51A      1.193975  
      52A      1.206346    53A      1.212911    54A      1.235010  
      55A      1.246450    56A      1.263936    57A      1.329799  
      58A      1.393519    59A      1.444882    60A      1.558814  
      61A      1.656720    62A      1.682858    63A      1.728455  
      64A      1.771321    65A      1.795280    66A      1.953585  
      67A      1.986550    68A      2.102639    69A      2.220295  
      70A      2.248192    71A      2.338213    72A      2.389958  
      73A      2.421713    74A      2.458193    75A      2.477487  
      76A      2.490084    77A      2.544783    78A      2.571046  
      79A      2.627089    80A      2.657041    81A      2.738576  
      82A      2.837197    83A      2.907664    84A      2.936927  
      85A      3.026739    86A      3.090196    87A      3.199976  
      88A      3.347754    89A      4.228246    90A      4.375339  
      91A      4.662183    92A      4.701875    93A      4.894695  

    Final Occupation by Irrep:
              A 
    DOCC [    21 ]

  Energy converged.

  @DF-RHF Final Energy:  -248.11751288520179

   => Energetics <=

    Nuclear Repulsion Energy =            193.8731874713629395
    One-Electron Energy =                -721.7949126452258497
    Two-Electron Energy =                 279.8042122886614607
    DFT Exchange-Correlation Energy =       0.0000000000000000
    Empirical Dispersion Energy =           0.0000000000000000
    PCM Polarization Energy =               0.0000000000000000
    EFP Energy =                            0.0000000000000000
    Total Energy =                       -248.1175128852014495

    Alert: EFP and PCM quantities not currently incorporated into SCF psivars.

Properties will be evaluated at   0.000000,   0.000000,   0.000000 Bohr
  ==> Properties <==


Properties computed using the SCF density matrix

  Nuclear Dipole Moment: (a.u.)
     X:     1.7634      Y:     0.7397      Z:    -0.4935

  Electronic Dipole Moment: (a.u.)
     X:    -1.3316      Y:    -0.6590      Z:    -0.0585

  Dipole Moment: (a.u.)
     X:     0.4319      Y:     0.0806      Z:    -0.5520     Total:     0.7055

  Dipole Moment: (Debye)
     X:     1.0977      Y:     0.2049      Z:    -1.4030     Total:     1.7931


  Saving occupied orbitals to File 180.

*** tstop() called on cx1-3-6-4.cx1.hpc.ic.ac.uk at Tue Jul  5 16:33:28 2016
Module time:
	user time   =       4.92 seconds =       0.08 minutes
	system time =       0.06 seconds =       0.00 minutes
	total time  =          6 seconds =       0.10 minutes
Total time:
	user time   =       4.92 seconds =       0.08 minutes
	system time =       0.06 seconds =       0.00 minutes
	total time  =          6 seconds =       0.10 minutes


Properties will be evaluated at   0.000000,   0.000000,   0.000000 Bohr

Properties computed using the  density matrix

  Nuclear Dipole Moment: (a.u.)
     X:     1.7634      Y:     0.7397      Z:    -0.4935

  Electronic Dipole Moment: (a.u.)
     X:    -1.3316      Y:    -0.6590      Z:    -0.0585

  Dipole Moment: (a.u.)
     X:     0.4319      Y:     0.0806      Z:    -0.5520     Total:     0.7055

  Dipole Moment: (Debye)
     X:     1.0977      Y:     0.2049      Z:    -1.4030     Total:     1.7931

  Quadrupole Moment: (Debye Ang)
    XX:   -31.0197     YY:   -29.9216     ZZ:   -28.2729
    XY:     0.3984     XZ:     1.1678     YZ:     4.7954

  Traceless Quadrupole Moment: (Debye Ang)
    XX:    -1.2816     YY:    -0.1836     ZZ:     1.4652
    XY:     0.3984     XZ:     1.1678     YZ:     4.7954

  Mulliken Charges: (a.u.)
   Center  Symbol    Alpha    Beta     Spin     Total
       1     H     0.32907  0.32907  0.00000  0.34186
       2     N     3.91431  3.91431  0.00000 -0.82861
       3     C     3.08300  3.08300  0.00000 -0.16600
       4     H     0.33458  0.33458  0.00000  0.33084
       5     C     2.97320  2.97320  0.00000  0.05360
       6     H     0.42697  0.42697  0.00000  0.14605
       7     H     0.41565  0.41565  0.00000  0.16869
       8     O     4.30174  4.30174  0.00000 -0.60348
       9     H     0.43090  0.43090  0.00000  0.13819
      10     H     0.43691  0.43691  0.00000  0.12619
      11     C     3.07703  3.07703  0.00000 -0.15406
      12     H     0.41327  0.41327  0.00000  0.17346
      13     H     0.43039  0.43039  0.00000  0.13921
      14     H     0.43298  0.43298  0.00000  0.13405

   Total alpha = 21.00000, Total beta = 21.00000, Total charge = -0.00000


*** PSI4 exiting successfully. Buy a developer a beer!
