    -----------------------------------------------------------------------
          Psi4: An Open-Source Ab Initio Electronic Structure Package
                              Psi4 (no tag) Driver

                          Git: Rev {detached?}  

    J. M. Turney, A. C. Simmonett, R. M. Parrish, E. G. Hohenstein,
    F. A. Evangelista, J. T. Fermann, B. J. Mintz, L. A. Burns, J. J. Wilke,
    M. L. Abrams, N. J. Russ, M. L. Leininger, C. L. Janssen, E. T. Seidl,
    W. D. Allen, H. F. Schaefer, R. A. King, E. F. Valeev, C. D. Sherrill,
    and T. D. Crawford, WIREs Comput. Mol. Sci. 2, 556-565 (2012)
    (doi: 10.1002/wcms.93)

                         Additional Contributions by
    A. E. DePrince, M. Saitow, U. Bozkaya, A. Yu. Sokolov
    -----------------------------------------------------------------------


    Psi4 started on: Tue Jul  5 16:32:32 2016

    Process ID:   5283
    PSI4DATADIR: /export131/home/mjharvey/miniconda3/share
    Memory level set to 256.000 MB

  ==> Input File <==

--------------------------------------------------------------------------
set {
	reference rhf
	basis 6-31G*
}


set_num_threads( 1 )
memory 2 gb

molecule MOL {
0 1

H	 2.866480	 -0.465706	 0.876907
C	 2.405773	 -0.024801	 0.000000
N	 0.988830	 -0.304158	 0.000000
H	 2.866480	 -0.465706	 -0.876907
H	 2.629928	 1.045948	 0.000000
C	 0.190393	 0.885042	 -0.232960
C	 0.558323	 -0.981162	 1.209255
H	 0.343468	 1.632900	 0.551753
H	 0.486547	 1.331893	 -1.176815
C	 -1.282066	 0.512331	 -0.287209
H	 1.123893	 -1.900829	 1.321455
H	 0.738210	 -0.369293	 2.099062
C	 -0.923892	 -1.304383	 1.116760
H	 -1.898498	 1.397741	 -0.371340
H	 -1.466134	 -0.122468	 -1.152148
O	 -1.675238	 -0.146267	 0.883951
H	 -1.281976	 -1.729356	 2.045303
H	 -1.091108	 -2.024656	 0.317876

	symmetry c1
}
ee = energy('scf')
oeprop('DIPOLE', 'QUADRUPOLE', 'MULLIKEN_CHARGES')
f=open( 'psi4out.xyz', 'w' )
f.write( "18  " )
f.write( str(ee) + "\n" )
f.write( MOL.save_string_xyz() )
f.close()
--------------------------------------------------------------------------

  Memory set to   2.000 GiB by Python script.

*** tstart() called on cx1-3-15-4.cx1.hpc.ic.ac.uk
*** at Tue Jul  5 16:32:33 2016


         ---------------------------------------------------------
                                   SCF
            by Justin Turney, Rob Parrish, and Andy Simmonett
                              RHF Reference
                        1 Threads,   2000 MiB Core
         ---------------------------------------------------------

  ==> Geometry <==

    Molecular point group: c1
    Full point group: C1

    Geometry (in Angstrom), charge = 0, multiplicity = 1:

       Center              X                  Y                   Z               Mass       
    ------------   -----------------  -----------------  -----------------  -----------------
           H          2.828960328686    -0.275399570437     0.486415538202     1.007825032070
           C          2.368253328686     0.165505429563    -0.390491461798    12.000000000000
           N          0.951310328686    -0.113851570437    -0.390491461798    14.003074004780
           H          2.828960328686    -0.275399570437    -1.267398461798     1.007825032070
           H          2.592408328686     1.236254429563    -0.390491461798     1.007825032070
           C          0.152873328686     1.075348429563    -0.623451461798    12.000000000000
           C          0.520803328686    -0.790855570437     0.818763538202    12.000000000000
           H          0.305948328686     1.823206429563     0.161261538202     1.007825032070
           H          0.449027328686     1.522199429563    -1.567306461798     1.007825032070
           C         -1.319585671314     0.702637429563    -0.677700461798    12.000000000000
           H          1.086373328686    -1.710522570437     0.930963538202     1.007825032070
           H          0.700690328686    -0.178986570437     1.708570538202     1.007825032070
           C         -0.961411671314    -1.114076570437     0.726268538202    12.000000000000
           H         -1.936017671314     1.588047429563    -0.761831461798     1.007825032070
           H         -1.503653671314     0.067838429563    -1.542639461798     1.007825032070
           O         -1.712757671314     0.044039429563     0.493459538202    15.994914619560
           H         -1.319495671314    -1.539049570437     1.654811538202     1.007825032070
           H         -1.128627671314    -1.834349570437    -0.072615461798     1.007825032070

  Running in c1 symmetry.

  Rotational constants: A =      0.16245  B =      0.07907  C =      0.05780 [cm^-1]
  Rotational constants: A =   4870.01126  B =   2370.48504  C =   1732.78574 [MHz]
  Nuclear repulsion =  341.566127520336863

  Charge       = 0
  Multiplicity = 1
  Electrons    = 56
  Nalpha       = 28
  Nbeta        = 28

  ==> Algorithm <==

  SCF Algorithm Type is DF.
  DIIS enabled.
  MOM disabled.
  Fractional occupation disabled.
  Guess Type is CORE.
  Energy threshold   = 1.00e-06
  Density threshold  = 1.00e-06
  Integral threshold = 0.00e+00

  ==> Primary Basis <==

  Basis Set: 6-31G*
    Number of shells: 64
    Number of basis function: 127
    Number of Cartesian functions: 127
    Spherical Harmonics?: false
    Max angular momentum: 2

  ==> Pre-Iterations <==

   -------------------------------------------------------
    Irrep   Nso     Nmo     Nalpha   Nbeta   Ndocc  Nsocc
   -------------------------------------------------------
     A        127     127       0       0       0       0
   -------------------------------------------------------
    Total     127     127      28      28      28       0
   -------------------------------------------------------

 OEINTS: Overlap, kinetic, potential, dipole, and quadrupole integrals
         stored in file 35.

  ==> Integral Setup <==

  ==> DFJK: Density-Fitted J/K Matrices <==

    J tasked:                  Yes
    K tasked:                  Yes
    wK tasked:                  No
    OpenMP threads:              1
    Integrals threads:           1
    Memory (MB):              1430
    Algorithm:                Core
    Integral Cache:           NONE
    Schwarz Cutoff:          1E-12
    Fitting Condition:       1E-12

   => Auxiliary Basis Set <=

  Basis Set: 
    Number of shells: 267
    Number of basis function: 842
    Number of Cartesian functions: 842
    Spherical Harmonics?: false
    Max angular momentum: 3

  Minimum eigenvalue in the overlap matrix is 3.2392201780E-03.
  Using Symmetric Orthogonalization.
  SCF Guess: Core (One-Electron) Hamiltonian.

  ==> Iterations <==

                           Total Energy        Delta E     RMS |[F,P]|

   @DF-RHF iter   1:  -254.48403480387844   -2.54484e+02   7.04800e-02 
   @DF-RHF iter   2:  -175.56922823343962    7.89148e+01   7.64612e-02 DIIS
   @DF-RHF iter   3:  -270.43764328276336   -9.48684e+01   5.03581e-02 DIIS
   @DF-RHF iter   4:  -264.76803077347051    5.66961e+00   6.32366e-02 DIIS
   @DF-RHF iter   5:  -324.44418802683822   -5.96762e+01   8.83820e-03 DIIS
   @DF-RHF iter   6:  -324.95988439381972   -5.15696e-01   3.03402e-03 DIIS
   @DF-RHF iter   7:  -325.01526786669285   -5.53835e-02   9.40678e-04 DIIS
   @DF-RHF iter   8:  -325.02139618449723   -6.12832e-03   1.98658e-04 DIIS
   @DF-RHF iter   9:  -325.02184164063954   -4.45456e-04   5.82283e-05 DIIS
   @DF-RHF iter  10:  -325.02187603345635   -3.43928e-05   1.69639e-05 DIIS
   @DF-RHF iter  11:  -325.02187968371197   -3.65026e-06   4.47752e-06 DIIS
   @DF-RHF iter  12:  -325.02188001568493   -3.31973e-07   1.56182e-06 DIIS
   @DF-RHF iter  13:  -325.02188004739480   -3.17099e-08   4.40093e-07 DIIS

  ==> Post-Iterations <==

    Orbital Energies (a.u.)
    -----------------------

    Doubly Occupied:                                                      

       1A    -20.553605     2A    -15.546099     3A    -11.265553  
       4A    -11.265392     5A    -11.244051     6A    -11.243900  
       7A    -11.239431     8A     -1.382949     9A     -1.231591  
      10A     -1.038125    11A     -0.980523    12A     -0.883105  
      13A     -0.868446    14A     -0.775015    15A     -0.682653  
      16A     -0.644178    17A     -0.643300    18A     -0.631574  
      19A     -0.627938    20A     -0.571102    21A     -0.559117  
      22A     -0.544254    23A     -0.527212    24A     -0.500250  
      25A     -0.482481    26A     -0.451924    27A     -0.406215  
      28A     -0.350324  

    Virtual:                                                              

      29A      0.238783    30A      0.259443    31A      0.278569  
      32A      0.282064    33A      0.300628    34A      0.306004  
      35A      0.311147    36A      0.324827    37A      0.330789  
      38A      0.344693    39A      0.351161    40A      0.360680  
      41A      0.385567    42A      0.423253    43A      0.437957  
      44A      0.450923    45A      0.473693    46A      0.494900  
      47A      0.732783    48A      0.735396    49A      0.755794  
      50A      0.789112    51A      0.794169    52A      0.801583  
      53A      0.827932    54A      0.865273    55A      0.884786  
      56A      0.922969    57A      0.929029    58A      0.944063  
      59A      0.960966    60A      1.052740    61A      1.087019  
      62A      1.100505    63A      1.110204    64A      1.137439  
      65A      1.140400    66A      1.147995    67A      1.154885  
      68A      1.168554    69A      1.177075    70A      1.185132  
      71A      1.200981    72A      1.221726    73A      1.238200  
      74A      1.245699    75A      1.303023    76A      1.343169  
      77A      1.381703    78A      1.474866    79A      1.521101  
      80A      1.593640    81A      1.625389    82A      1.662460  
      83A      1.668033    84A      1.703383    85A      1.716900  
      86A      1.876865    87A      1.905850    88A      1.984344  
      89A      2.003338    90A      2.090997    91A      2.157159  
      92A      2.173619    93A      2.218192    94A      2.246238  
      95A      2.309587    96A      2.324361    97A      2.335035  
      98A      2.377065    99A      2.382100   100A      2.442769  
     101A      2.451640   102A      2.496986   103A      2.509364  
     104A      2.580770   105A      2.591727   106A      2.627877  
     107A      2.669981   108A      2.684757   109A      2.774303  
     110A      2.787371   111A      2.806632   112A      2.896174  
     113A      2.903112   114A      2.943189   115A      3.082944  
     116A      3.136405   117A      3.160364   118A      3.235647  
     119A      3.256067   120A      3.327558   121A      4.401101  
     122A      4.525868   123A      4.641711   124A      4.684813  
     125A      4.777906   126A      4.944705   127A      4.953156  

    Final Occupation by Irrep:
              A 
    DOCC [    28 ]

  Energy converged.

  @DF-RHF Final Energy:  -325.02188004739480

   => Energetics <=

    Nuclear Repulsion Energy =            341.5661275203368632
    One-Electron Energy =               -1118.8953238586657335
    Two-Electron Energy =                 452.3073162909340112
    DFT Exchange-Correlation Energy =       0.0000000000000000
    Empirical Dispersion Energy =           0.0000000000000000
    PCM Polarization Energy =               0.0000000000000000
    EFP Energy =                            0.0000000000000000
    Total Energy =                       -325.0218800473948590

    Alert: EFP and PCM quantities not currently incorporated into SCF psivars.

Properties will be evaluated at   0.000000,   0.000000,   0.000000 Bohr
  ==> Properties <==


Properties computed using the SCF density matrix

  Nuclear Dipole Moment: (a.u.)
     X:     4.5869      Y:     0.3979      Z:    -0.6155

  Electronic Dipole Moment: (a.u.)
     X:    -4.0150      Y:    -0.3581      Z:     0.5369

  Dipole Moment: (a.u.)
     X:     0.5719      Y:     0.0398      Z:    -0.0786     Total:     0.5787

  Dipole Moment: (Debye)
     X:     1.4537      Y:     0.1011      Z:    -0.1997     Total:     1.4708


  Saving occupied orbitals to File 180.

*** tstop() called on cx1-3-15-4.cx1.hpc.ic.ac.uk at Tue Jul  5 16:32:43 2016
Module time:
	user time   =       9.80 seconds =       0.16 minutes
	system time =       0.05 seconds =       0.00 minutes
	total time  =         10 seconds =       0.17 minutes
Total time:
	user time   =       9.80 seconds =       0.16 minutes
	system time =       0.05 seconds =       0.00 minutes
	total time  =         10 seconds =       0.17 minutes


Properties will be evaluated at   0.000000,   0.000000,   0.000000 Bohr

Properties computed using the  density matrix

  Nuclear Dipole Moment: (a.u.)
     X:     4.5869      Y:     0.3979      Z:    -0.6155

  Electronic Dipole Moment: (a.u.)
     X:    -4.0150      Y:    -0.3581      Z:     0.5369

  Dipole Moment: (a.u.)
     X:     0.5719      Y:     0.0398      Z:    -0.0786     Total:     0.5787

  Dipole Moment: (Debye)
     X:     1.4537      Y:     0.1011      Z:    -0.1997     Total:     1.4708

  Quadrupole Moment: (Debye Ang)
    XX:   -46.4055     YY:   -41.7872     ZZ:   -44.1075
    XY:     0.5419     XZ:     2.5362     YZ:    -3.0125

  Traceless Quadrupole Moment: (Debye Ang)
    XX:    -2.3054     YY:     2.3129     ZZ:    -0.0074
    XY:     0.5419     XZ:     2.5362     YZ:    -3.0125

  Mulliken Charges: (a.u.)
   Center  Symbol    Alpha    Beta     Spin     Total
       1     H     0.42076  0.42076  0.00000  0.15848
       2     C     3.14128  3.14128  0.00000 -0.28256
       3     N     3.78700  3.78700  0.00000 -0.57400
       4     H     0.41460  0.41460  0.00000  0.17080
       5     H     0.42367  0.42367  0.00000  0.15266
       6     C     3.07050  3.07050  0.00000 -0.14100
       7     C     3.07157  3.07157  0.00000 -0.14314
       8     H     0.42820  0.42820  0.00000  0.14360
       9     H     0.41592  0.41592  0.00000  0.16816
      10     C     2.99772  2.99772  0.00000  0.00457
      11     H     0.41586  0.41586  0.00000  0.16827
      12     H     0.42831  0.42831  0.00000  0.14338
      13     C     2.99759  2.99759  0.00000  0.00483
      14     H     0.41356  0.41356  0.00000  0.17288
      15     H     0.42396  0.42396  0.00000  0.15208
      16     O     4.31208  4.31208  0.00000 -0.62417
      17     H     0.41349  0.41349  0.00000  0.17301
      18     H     0.42392  0.42392  0.00000  0.15216

   Total alpha = 28.00000, Total beta = 28.00000, Total charge = -0.00000


*** PSI4 exiting successfully. Buy a developer a beer!
