    -----------------------------------------------------------------------
          Psi4: An Open-Source Ab Initio Electronic Structure Package
                              Psi4 (no tag) Driver

                          Git: Rev {detached?}  

    J. M. Turney, A. C. Simmonett, R. M. Parrish, E. G. Hohenstein,
    F. A. Evangelista, J. T. Fermann, B. J. Mintz, L. A. Burns, J. J. Wilke,
    M. L. Abrams, N. J. Russ, M. L. Leininger, C. L. Janssen, E. T. Seidl,
    W. D. Allen, H. F. Schaefer, R. A. King, E. F. Valeev, C. D. Sherrill,
    and T. D. Crawford, WIREs Comput. Mol. Sci. 2, 556-565 (2012)
    (doi: 10.1002/wcms.93)

                         Additional Contributions by
    A. E. DePrince, M. Saitow, U. Bozkaya, A. Yu. Sokolov
    -----------------------------------------------------------------------


    Psi4 started on: Tue Jul  5 16:35:07 2016

    Process ID:  18716
    PSI4DATADIR: /export131/home/mjharvey/miniconda3/share
    Memory level set to 256.000 MB

  ==> Input File <==

--------------------------------------------------------------------------
set {
	reference rhf
	basis 6-31G*
}


set_num_threads( 1 )
memory 2 gb

molecule MOL {
0 1

H	 -2.403371	 -0.864947	 -0.670946
O	 -2.347518	 -0.290803	 0.079804
C	 -1.184022	 0.487508	 -0.006784
C	 0.062599	 -0.378592	 0.031606
H	 -1.176523	 1.099369	 -0.904519
H	 -1.187323	 1.153111	 0.844927
O	 -0.043959	 -1.331029	 -0.978982
H	 0.152937	 -0.862108	 1.006301
H	 0.944499	 0.244194	 -0.106143
C	 1.051901	 -2.183439	 -1.086827
H	 1.203606	 -2.754072	 -0.172501
H	 0.853769	 -2.869137	 -1.898901
H	 1.964096	 -1.631937	 -1.304857

	symmetry c1
}
set optking {
	frozen_dihedral = ("
		8 4 3 5,
		10 7 4 8,
		4 7 10 13
	")
}

ee = energy('scf')
oeprop('DIPOLE', 'QUADRUPOLE', 'MULLIKEN_CHARGES')
f=open( 'psi4out.xyz', 'w' )
f.write( "13  " )
f.write( str(ee) + "\n" )
f.write( MOL.save_string_xyz() )
f.close()
--------------------------------------------------------------------------

  Memory set to   2.000 GiB by Python script.

*** tstart() called on cx1-49-4-2.cx1.hpc.ic.ac.uk
*** at Tue Jul  5 16:35:08 2016


         ---------------------------------------------------------
                                   SCF
            by Justin Turney, Rob Parrish, and Andy Simmonett
                              RHF Reference
                        1 Threads,   2000 MiB Core
         ---------------------------------------------------------

  ==> Geometry <==

    Molecular point group: c1
    Full point group: C1

    Geometry (in Angstrom), charge = 0, multiplicity = 1:

       Center              X                  Y                   Z               Mass       
    ------------   -----------------  -----------------  -----------------  -----------------
           H         -1.894100057560    -0.110577715488    -0.271773132123     1.007825032070
           O         -1.838247057560     0.463566284512     0.478976867877    15.994914619560
           C         -0.674751057560     1.241877284512     0.392388867877    12.000000000000
           C          0.571869942440     0.375777284512     0.430778867877    12.000000000000
           H         -0.667252057560     1.853738284512    -0.505346132123     1.007825032070
           H         -0.678052057560     1.907480284512     1.244099867877     1.007825032070
           O          0.465311942440    -0.576659715488    -0.579809132123    15.994914619560
           H          0.662207942440    -0.107738715488     1.405473867877     1.007825032070
           H          1.453769942440     0.998563284512     0.293029867877     1.007825032070
           C          1.561171942440    -1.429069715488    -0.687654132123    12.000000000000
           H          1.712876942440    -1.999702715488     0.226671867877     1.007825032070
           H          1.363039942440    -2.114767715488    -1.499728132123     1.007825032070
           H          2.473366942440    -0.877567715488    -0.905684132123     1.007825032070

  Running in c1 symmetry.

  Rotational constants: A =      0.44423  B =      0.09310  C =      0.08297 [cm^-1]
  Rotational constants: A =  13317.75552  B =   2791.19030  C =   2487.49467 [MHz]
  Nuclear repulsion =  194.537145566163929

  Charge       = 0
  Multiplicity = 1
  Electrons    = 42
  Nalpha       = 21
  Nbeta        = 21

  ==> Algorithm <==

  SCF Algorithm Type is DF.
  DIIS enabled.
  MOM disabled.
  Fractional occupation disabled.
  Guess Type is CORE.
  Energy threshold   = 1.00e-06
  Density threshold  = 1.00e-06
  Integral threshold = 0.00e+00

  ==> Primary Basis <==

  Basis Set: 6-31G*
    Number of shells: 46
    Number of basis function: 91
    Number of Cartesian functions: 91
    Spherical Harmonics?: false
    Max angular momentum: 2

  ==> Pre-Iterations <==

   -------------------------------------------------------
    Irrep   Nso     Nmo     Nalpha   Nbeta   Ndocc  Nsocc
   -------------------------------------------------------
     A         91      91       0       0       0       0
   -------------------------------------------------------
    Total      91      91      21      21      21       0
   -------------------------------------------------------

 OEINTS: Overlap, kinetic, potential, dipole, and quadrupole integrals
         stored in file 35.

  ==> Integral Setup <==

  ==> DFJK: Density-Fitted J/K Matrices <==

    J tasked:                  Yes
    K tasked:                  Yes
    wK tasked:                  No
    OpenMP threads:              1
    Integrals threads:           1
    Memory (MB):              1430
    Algorithm:                Core
    Integral Cache:           NONE
    Schwarz Cutoff:          1E-12
    Fitting Condition:       1E-12

   => Auxiliary Basis Set <=

  Basis Set: 
    Number of shells: 192
    Number of basis function: 605
    Number of Cartesian functions: 605
    Spherical Harmonics?: false
    Max angular momentum: 3

  Minimum eigenvalue in the overlap matrix is 4.5359983262E-03.
  Using Symmetric Orthogonalization.
  SCF Guess: Core (One-Electron) Hamiltonian.

  ==> Iterations <==

                           Total Energy        Delta E     RMS |[F,P]|

   @DF-RHF iter   1:  -223.67133455225786   -2.23671e+02   7.94397e-02 
   @DF-RHF iter   2:  -168.54702237173689    5.51243e+01   6.72972e-02 DIIS
   @DF-RHF iter   3:  -230.34283036948835   -6.17958e+01   6.88778e-02 DIIS
   @DF-RHF iter   4:  -255.59998540432554   -2.52572e+01   4.01610e-02 DIIS
   @DF-RHF iter   5:  -267.53815406127717   -1.19382e+01   9.94053e-03 DIIS
   @DF-RHF iter   6:  -267.87856643267679   -3.40412e-01   4.26224e-03 DIIS
   @DF-RHF iter   7:  -267.94295764655442   -6.43912e-02   1.46765e-03 DIIS
   @DF-RHF iter   8:  -267.95144051790294   -8.48287e-03   5.94427e-04 DIIS
   @DF-RHF iter   9:  -267.95313499332980   -1.69448e-03   2.14794e-04 DIIS
   @DF-RHF iter  10:  -267.95337933322901   -2.44340e-04   6.16186e-05 DIIS
   @DF-RHF iter  11:  -267.95340153592690   -2.22027e-05   2.11897e-05 DIIS
   @DF-RHF iter  12:  -267.95340402883227   -2.49291e-06   3.96315e-06 DIIS
   @DF-RHF iter  13:  -267.95340415457264   -1.25740e-07   8.35337e-07 DIIS

  ==> Post-Iterations <==

    Orbital Energies (a.u.)
    -----------------------

    Doubly Occupied:                                                      

       1A    -20.567012     2A    -20.547384     3A    -11.273250  
       4A    -11.272365     5A    -11.268940     6A     -1.395073  
       7A     -1.350995     8A     -1.019513     9A     -0.922050  
      10A     -0.834648    11A     -0.703489    12A     -0.678203  
      13A     -0.664874    14A     -0.638752    15A     -0.580395  
      16A     -0.575381    17A     -0.544948    18A     -0.491498  
      19A     -0.482416    20A     -0.434276    21A     -0.423700  

    Virtual:                                                              

      22A      0.233886    23A      0.258451    24A      0.272006  
      25A      0.298943    26A      0.312520    27A      0.320483  
      28A      0.331098    29A      0.341383    30A      0.359749  
      31A      0.411024    32A      0.437249    33A      0.451172  
      34A      0.724973    35A      0.752930    36A      0.765085  
      37A      0.809339    38A      0.816097    39A      0.840749  
      40A      0.880907    41A      0.937782    42A      0.983939  
      43A      1.075302    44A      1.092244    45A      1.110663  
      46A      1.139950    47A      1.153535    48A      1.164226  
      49A      1.180148    50A      1.207059    51A      1.225410  
      52A      1.236910    53A      1.287042    54A      1.345274  
      55A      1.383225    56A      1.400873    57A      1.520834  
      58A      1.569088    59A      1.652628    60A      1.708493  
      61A      1.719862    62A      1.758231    63A      1.862400  
      64A      1.944316    65A      1.953897    66A      2.029838  
      67A      2.129472    68A      2.237240    69A      2.260061  
      70A      2.380013    71A      2.412822    72A      2.439113  
      73A      2.456371    74A      2.472817    75A      2.521168  
      76A      2.588806    77A      2.643651    78A      2.704980  
      79A      2.768973    80A      2.819262    81A      2.864596  
      82A      2.913573    83A      3.046988    84A      3.164949  
      85A      3.214565    86A      3.335688    87A      4.181051  
      88A      4.364172    89A      4.637838    90A      4.683340  
      91A      4.871166  

    Final Occupation by Irrep:
              A 
    DOCC [    21 ]

  Energy converged.

  @DF-RHF Final Energy:  -267.95340415457264

   => Energetics <=

    Nuclear Repulsion Energy =            194.5371455661639288
    One-Electron Energy =                -751.6426989529052207
    Two-Electron Energy =                 289.1521492321691085
    DFT Exchange-Correlation Energy =       0.0000000000000000
    Empirical Dispersion Energy =           0.0000000000000000
    PCM Polarization Energy =               0.0000000000000000
    EFP Energy =                            0.0000000000000000
    Total Energy =                       -267.9534041545722403

    Alert: EFP and PCM quantities not currently incorporated into SCF psivars.

Properties will be evaluated at   0.000000,   0.000000,   0.000000 Bohr
  ==> Properties <==


Properties computed using the SCF density matrix

  Nuclear Dipole Moment: (a.u.)
     X:     4.1425      Y:    -0.4229      Z:    -0.0129

  Electronic Dipole Moment: (a.u.)
     X:    -3.1882      Y:     0.3528      Z:    -0.2093

  Dipole Moment: (a.u.)
     X:     0.9544      Y:    -0.0701      Z:    -0.2222     Total:     0.9824

  Dipole Moment: (Debye)
     X:     2.4257      Y:    -0.1783      Z:    -0.5649     Total:     2.4970


  Saving occupied orbitals to File 180.

*** tstop() called on cx1-49-4-2.cx1.hpc.ic.ac.uk at Tue Jul  5 16:35:13 2016
Module time:
	user time   =       4.55 seconds =       0.08 minutes
	system time =       0.04 seconds =       0.00 minutes
	total time  =          5 seconds =       0.08 minutes
Total time:
	user time   =       4.55 seconds =       0.08 minutes
	system time =       0.04 seconds =       0.00 minutes
	total time  =          5 seconds =       0.08 minutes


Properties will be evaluated at   0.000000,   0.000000,   0.000000 Bohr

Properties computed using the  density matrix

  Nuclear Dipole Moment: (a.u.)
     X:     4.1425      Y:    -0.4229      Z:    -0.0129

  Electronic Dipole Moment: (a.u.)
     X:    -3.1882      Y:     0.3528      Z:    -0.2093

  Dipole Moment: (a.u.)
     X:     0.9544      Y:    -0.0701      Z:    -0.2222     Total:     0.9824

  Dipole Moment: (Debye)
     X:     2.4257      Y:    -0.1783      Z:    -0.5649     Total:     2.4970

  Quadrupole Moment: (Debye Ang)
    XX:   -33.0862     YY:   -28.6909     ZZ:   -31.7345
    XY:     0.2078     XZ:     2.8568     YZ:     1.0558

  Traceless Quadrupole Moment: (Debye Ang)
    XX:    -1.9157     YY:     2.4796     ZZ:    -0.5639
    XY:     0.2078     XZ:     2.8568     YZ:     1.0558

  Mulliken Charges: (a.u.)
   Center  Symbol    Alpha    Beta     Spin     Total
       1     H     0.27326  0.27326  0.00000  0.45347
       2     O     4.37267  4.37267  0.00000 -0.74534
       3     C     3.00006  3.00006  0.00000 -0.00012
       4     C     2.99941  2.99941  0.00000  0.00119
       5     H     0.42521  0.42521  0.00000  0.14958
       6     H     0.41608  0.41608  0.00000  0.16784
       7     O     4.31101  4.31101  0.00000 -0.62202
       8     H     0.42500  0.42500  0.00000  0.15000
       9     H     0.43210  0.43210  0.00000  0.13580
      10     C     3.07996  3.07996  0.00000 -0.15991
      11     H     0.42636  0.42636  0.00000  0.14727
      12     H     0.41097  0.41097  0.00000  0.17806
      13     H     0.42791  0.42791  0.00000  0.14419

   Total alpha = 21.00000, Total beta = 21.00000, Total charge = -0.00000


*** PSI4 exiting successfully. Buy a developer a beer!
