    -----------------------------------------------------------------------
          Psi4: An Open-Source Ab Initio Electronic Structure Package
                              Psi4 (no tag) Driver

                          Git: Rev {detached?}  

    J. M. Turney, A. C. Simmonett, R. M. Parrish, E. G. Hohenstein,
    F. A. Evangelista, J. T. Fermann, B. J. Mintz, L. A. Burns, J. J. Wilke,
    M. L. Abrams, N. J. Russ, M. L. Leininger, C. L. Janssen, E. T. Seidl,
    W. D. Allen, H. F. Schaefer, R. A. King, E. F. Valeev, C. D. Sherrill,
    and T. D. Crawford, WIREs Comput. Mol. Sci. 2, 556-565 (2012)
    (doi: 10.1002/wcms.93)

                         Additional Contributions by
    A. E. DePrince, M. Saitow, U. Bozkaya, A. Yu. Sokolov
    -----------------------------------------------------------------------


    Psi4 started on: Tue Jul  5 16:52:22 2016

    Process ID:  17227
    PSI4DATADIR: /export131/home/mjharvey/miniconda3/share
    Memory level set to 256.000 MB

  ==> Input File <==

--------------------------------------------------------------------------
set {
	reference rhf
	basis 6-31G*
}


set_num_threads( 1 )
memory 2 gb

molecule MOL {
0 1

H	 -2.074013	 2.261891	 0.385027
C	 -1.694808	 1.270038	 0.224380
C	 -2.555177	 0.202469	 0.032001
C	 -0.334931	 1.045545	 0.207482
H	 -3.619110	 0.357057	 0.041579
C	 -2.053062	 -1.068868	 -0.173694
H	 0.356499	 1.849032	 0.352769
C	 0.154804	 -0.237046	 -0.000077
H	 -2.737114	 -1.883984	 -0.321190
C	 -0.686000	 -1.337526	 -0.197611
N	 1.611208	 -0.370857	 -0.000034
C	 -0.248004	 -2.766736	 -0.430951
O	 2.274126	 0.622059	 -0.008063
O	 2.068510	 -1.474748	 0.007823
H	 0.334090	 -3.144491	 0.398264
H	 -1.124600	 -3.390545	 -0.552678
H	 0.366000	 -2.854814	 -1.316595

	symmetry c1
}
ee = energy('scf')
oeprop('DIPOLE', 'QUADRUPOLE', 'MULLIKEN_CHARGES')
f=open( 'psi4out.xyz', 'w' )
f.write( "17  " )
f.write( str(ee) + "\n" )
f.write( MOL.save_string_xyz() )
f.close()
--------------------------------------------------------------------------

  Memory set to   2.000 GiB by Python script.

*** tstart() called on cx1-3-4-1.cx1.hpc.ic.ac.uk
*** at Tue Jul  5 16:52:23 2016


         ---------------------------------------------------------
                                   SCF
            by Justin Turney, Rob Parrish, and Andy Simmonett
                              RHF Reference
                        1 Threads,   2000 MiB Core
         ---------------------------------------------------------

  ==> Geometry <==

    Molecular point group: c1
    Full point group: C1

    Geometry (in Angstrom), charge = 0, multiplicity = 1:

       Center              X                  Y                   Z               Mass       
    ------------   -----------------  -----------------  -----------------  -----------------
           H         -2.033523980264     2.702587438415     0.422143311062     1.007825032070
           C         -1.654318980264     1.710734438415     0.261496311062    12.000000000000
           C         -2.514687980264     0.643165438415     0.069117311062    12.000000000000
           C         -0.294441980264     1.486241438415     0.244598311062    12.000000000000
           H         -3.578620980264     0.797753438415     0.078695311062     1.007825032070
           C         -2.012572980264    -0.628171561585    -0.136577688938    12.000000000000
           H          0.396988019736     2.289728438415     0.389885311062     1.007825032070
           C          0.195293019736     0.203650438415     0.037039311062    12.000000000000
           H         -2.696624980264    -1.443287561585    -0.284073688938     1.007825032070
           C         -0.645510980264    -0.896829561585    -0.160494688938    12.000000000000
           N          1.651697019736     0.069839438415     0.037082311062    14.003074004780
           C         -0.207514980264    -2.326039561585    -0.393834688938    12.000000000000
           O          2.314615019736     1.062755438415     0.029053311062    15.994914619560
           O          2.108999019736    -1.034051561585     0.044939311062    15.994914619560
           H          0.374579019736    -2.703794561585     0.435380311062     1.007825032070
           H         -1.084110980264    -2.949848561585    -0.515561688938     1.007825032070
           H          0.406489019736    -2.414117561585    -1.279478688938     1.007825032070

  Running in c1 symmetry.

  Rotational constants: A =      0.07612  B =      0.04300  C =      0.02770 [cm^-1]
  Rotational constants: A =   2281.88797  B =   1289.15876  C =    830.33337 [MHz]
  Nuclear repulsion =  509.687781045184920

  Charge       = 0
  Multiplicity = 1
  Electrons    = 72
  Nalpha       = 36
  Nbeta        = 36

  ==> Algorithm <==

  SCF Algorithm Type is DF.
  DIIS enabled.
  MOM disabled.
  Fractional occupation disabled.
  Guess Type is CORE.
  Energy threshold   = 1.00e-06
  Density threshold  = 1.00e-06
  Integral threshold = 0.00e+00

  ==> Primary Basis <==

  Basis Set: 6-31G*
    Number of shells: 74
    Number of basis function: 164
    Number of Cartesian functions: 164
    Spherical Harmonics?: false
    Max angular momentum: 2

  ==> Pre-Iterations <==

   -------------------------------------------------------
    Irrep   Nso     Nmo     Nalpha   Nbeta   Ndocc  Nsocc
   -------------------------------------------------------
     A        164     164       0       0       0       0
   -------------------------------------------------------
    Total     164     164      36      36      36       0
   -------------------------------------------------------

 OEINTS: Overlap, kinetic, potential, dipole, and quadrupole integrals
         stored in file 35.

  ==> Integral Setup <==

  ==> DFJK: Density-Fitted J/K Matrices <==

    J tasked:                  Yes
    K tasked:                  Yes
    wK tasked:                  No
    OpenMP threads:              1
    Integrals threads:           1
    Memory (MB):              1430
    Algorithm:                Core
    Integral Cache:           NONE
    Schwarz Cutoff:          1E-12
    Fitting Condition:       1E-12

   => Auxiliary Basis Set <=

  Basis Set: 
    Number of shells: 303
    Number of basis function: 985
    Number of Cartesian functions: 985
    Spherical Harmonics?: false
    Max angular momentum: 3

  Minimum eigenvalue in the overlap matrix is 3.7406277209E-04.
  Using Symmetric Orthogonalization.
  SCF Guess: Core (One-Electron) Hamiltonian.

  ==> Iterations <==

                           Total Energy        Delta E     RMS |[F,P]|

   @DF-RHF iter   1:  -358.89549040778229   -3.58895e+02   6.72695e-02 
   @DF-RHF iter   2:  -293.13897584894630    6.57565e+01   5.83898e-02 DIIS
   @DF-RHF iter   3:  -356.02187617438040   -6.28829e+01   6.07237e-02 DIIS
   @DF-RHF iter   4:  -445.74388989286581   -8.97220e+01   4.01321e-02 DIIS
   @DF-RHF iter   5:  -455.27430271889523   -9.53041e+00   3.18704e-02 DIIS
   @DF-RHF iter   6:  -471.20161693572311   -1.59273e+01   9.60912e-03 DIIS
   @DF-RHF iter   7:  -472.71719800518326   -1.51558e+00   5.57038e-03 DIIS
   @DF-RHF iter   8:  -473.17840753584710   -4.61210e-01   1.12462e-03 DIIS
   @DF-RHF iter   9:  -473.20135805661107   -2.29505e-02   4.83138e-04 DIIS
   @DF-RHF iter  10:  -473.20469625572525   -3.33820e-03   3.04564e-04 DIIS
   @DF-RHF iter  11:  -473.20616848976465   -1.47223e-03   1.02730e-04 DIIS
   @DF-RHF iter  12:  -473.20637678632147   -2.08297e-04   4.09510e-05 DIIS
   @DF-RHF iter  13:  -473.20641313511339   -3.63488e-05   1.24647e-05 DIIS
   @DF-RHF iter  14:  -473.20641908457515   -5.94946e-06   5.22573e-06 DIIS
   @DF-RHF iter  15:  -473.20642027395536   -1.18938e-06   2.08755e-06 DIIS
   @DF-RHF iter  16:  -473.20642043434918   -1.60394e-07   9.04737e-07 DIIS

  ==> Post-Iterations <==

    Orbital Energies (a.u.)
    -----------------------

    Doubly Occupied:                                                      

       1A    -20.597171     2A    -20.596951     3A    -15.853126  
       4A    -11.301199     5A    -11.283367     6A    -11.265954  
       7A    -11.264607     8A    -11.253870     9A    -11.252957  
      10A    -11.232441    11A     -1.631589    12A     -1.413267  
      13A     -1.199309    14A     -1.091279    15A     -1.071622  
      16A     -0.979773    17A     -0.930156    18A     -0.846517  
      19A     -0.822921    20A     -0.768553    21A     -0.731239  
      22A     -0.724791    23A     -0.693195    24A     -0.664206  
      25A     -0.637948    26A     -0.597762    27A     -0.588543  
      28A     -0.561515    29A     -0.540767    30A     -0.519970  
      31A     -0.518663    32A     -0.484898    33A     -0.476068  
      34A     -0.447993    35A     -0.370020    36A     -0.353454  

    Virtual:                                                              

      37A      0.064673    38A      0.123643    39A      0.175557  
      40A      0.225236    41A      0.258396    42A      0.278935  
      43A      0.304472    44A      0.312434    45A      0.314943  
      46A      0.337968    47A      0.379526    48A      0.391278  
      49A      0.402881    50A      0.457226    51A      0.478042  
      52A      0.497811    53A      0.531546    54A      0.533429  
      55A      0.609461    56A      0.677642    57A      0.700356  
      58A      0.711835    59A      0.726555    60A      0.748982  
      61A      0.768598    62A      0.793316    63A      0.799639  
      64A      0.810151    65A      0.821237    66A      0.827255  
      67A      0.841375    68A      0.853297    69A      0.890428  
      70A      0.897286    71A      0.919764    72A      0.948188  
      73A      0.980372    74A      0.986255    75A      1.035384  
      76A      1.054484    77A      1.077247    78A      1.082473  
      79A      1.091111    80A      1.103123    81A      1.146716  
      82A      1.150741    83A      1.169986    84A      1.182715  
      85A      1.203186    86A      1.228057    87A      1.248523  
      88A      1.263599    89A      1.281572    90A      1.294654  
      91A      1.303552    92A      1.314366    93A      1.319670  
      94A      1.388489    95A      1.448169    96A      1.474172  
      97A      1.477026    98A      1.525395    99A      1.554489  
     100A      1.612668   101A      1.632820   102A      1.638182  
     103A      1.675188   104A      1.699161   105A      1.707245  
     106A      1.731371   107A      1.746903   108A      1.757643  
     109A      1.883790   110A      1.971068   111A      2.007837  
     112A      2.045292   113A      2.056208   114A      2.092555  
     115A      2.114058   116A      2.126434   117A      2.138056  
     118A      2.193915   119A      2.217063   120A      2.244267  
     121A      2.267934   122A      2.278089   123A      2.285421  
     124A      2.357248   125A      2.385773   126A      2.437981  
     127A      2.453122   128A      2.467669   129A      2.472320  
     130A      2.490658   131A      2.536080   132A      2.549453  
     133A      2.591907   134A      2.611121   135A      2.635550  
     136A      2.704073   137A      2.719768   138A      2.806707  
     139A      2.880573   140A      2.921925   141A      2.948538  
     142A      2.971529   143A      2.976288   144A      3.054338  
     145A      3.093707   146A      3.100405   147A      3.126361  
     148A      3.197597   149A      3.269598   150A      3.292194  
     151A      3.319215   152A      3.496543   153A      3.622608  
     154A      3.822834   155A      4.193156   156A      4.339871  
     157A      4.476498   158A      4.503778   159A      4.528459  
     160A      4.547516   161A      4.685352   162A      4.774539  
     163A      4.814272   164A      5.139398  

    Final Occupation by Irrep:
              A 
    DOCC [    36 ]

  Energy converged.

  @DF-RHF Final Energy:  -473.20642043434918

   => Energetics <=

    Nuclear Repulsion Energy =            509.6877810451849200
    One-Electron Energy =               -1654.6532217768112787
    Two-Electron Energy =                 671.7590202972783118
    DFT Exchange-Correlation Energy =       0.0000000000000000
    Empirical Dispersion Energy =           0.0000000000000000
    PCM Polarization Energy =               0.0000000000000000
    EFP Energy =                            0.0000000000000000
    Total Energy =                       -473.2064204343480469

    Alert: EFP and PCM quantities not currently incorporated into SCF psivars.

Properties will be evaluated at   0.000000,   0.000000,   0.000000 Bohr
  ==> Properties <==


Properties computed using the SCF density matrix

  Nuclear Dipole Moment: (a.u.)
     X:    -7.6847      Y:    -3.4884      Z:    -0.7057

  Electronic Dipole Moment: (a.u.)
     X:     5.7828      Y:     3.5340      Z:     0.6936

  Dipole Moment: (a.u.)
     X:    -1.9019      Y:     0.0457      Z:    -0.0121     Total:     1.9025

  Dipole Moment: (Debye)
     X:    -4.8341      Y:     0.1161      Z:    -0.0308     Total:     4.8356


  Saving occupied orbitals to File 180.

*** tstop() called on cx1-3-4-1.cx1.hpc.ic.ac.uk at Tue Jul  5 16:52:45 2016
Module time:
	user time   =      21.70 seconds =       0.36 minutes
	system time =       0.23 seconds =       0.00 minutes
	total time  =         22 seconds =       0.37 minutes
Total time:
	user time   =      21.70 seconds =       0.36 minutes
	system time =       0.23 seconds =       0.00 minutes
	total time  =         22 seconds =       0.37 minutes


Properties will be evaluated at   0.000000,   0.000000,   0.000000 Bohr

Properties computed using the  density matrix

  Nuclear Dipole Moment: (a.u.)
     X:    -7.6847      Y:    -3.4884      Z:    -0.7057

  Electronic Dipole Moment: (a.u.)
     X:     5.7828      Y:     3.5340      Z:     0.6936

  Dipole Moment: (a.u.)
     X:    -1.9019      Y:     0.0457      Z:    -0.0121     Total:     1.9025

  Dipole Moment: (Debye)
     X:    -4.8341      Y:     0.1161      Z:    -0.0308     Total:     4.8356

  Quadrupole Moment: (Debye Ang)
    XX:   -62.0057     YY:   -53.3870     ZZ:   -58.8862
    XY:    -0.8705     XZ:    -0.0941     YZ:     1.7699

  Traceless Quadrupole Moment: (Debye Ang)
    XX:    -3.9128     YY:     4.7060     ZZ:    -0.7932
    XY:    -0.8705     XZ:    -0.0941     YZ:     1.7699

  Mulliken Charges: (a.u.)
   Center  Symbol    Alpha    Beta     Spin     Total
       1     H     0.38932  0.38932  0.00000  0.22136
       2     C     3.11198  3.11198  0.00000 -0.22397
       3     C     3.08041  3.08041  0.00000 -0.16082
       4     C     3.08453  3.08453  0.00000 -0.16906
       5     H     0.38937  0.38937  0.00000  0.22126
       6     C     3.12617  3.12617  0.00000 -0.25234
       7     H     0.36337  0.36337  0.00000  0.27326
       8     C     2.93581  2.93581  0.00000  0.12839
       9     H     0.39264  0.39264  0.00000  0.21472
      10     C     2.96297  2.96297  0.00000  0.07406
      11     N     3.24407  3.24407  0.00000  0.51187
      12     C     3.23584  3.23584  0.00000 -0.47167
      13     O     4.23646  4.23646  0.00000 -0.47292
      14     O     4.23683  4.23683  0.00000 -0.47366
      15     H     0.39467  0.39467  0.00000  0.21066
      16     H     0.41532  0.41532  0.00000  0.16936
      17     H     0.40024  0.40024  0.00000  0.19952

   Total alpha = 36.00000, Total beta = 36.00000, Total charge =  0.00000


*** PSI4 exiting successfully. Buy a developer a beer!
