    -----------------------------------------------------------------------
          Psi4: An Open-Source Ab Initio Electronic Structure Package
                              Psi4 (no tag) Driver

                          Git: Rev {detached?}  

    J. M. Turney, A. C. Simmonett, R. M. Parrish, E. G. Hohenstein,
    F. A. Evangelista, J. T. Fermann, B. J. Mintz, L. A. Burns, J. J. Wilke,
    M. L. Abrams, N. J. Russ, M. L. Leininger, C. L. Janssen, E. T. Seidl,
    W. D. Allen, H. F. Schaefer, R. A. King, E. F. Valeev, C. D. Sherrill,
    and T. D. Crawford, WIREs Comput. Mol. Sci. 2, 556-565 (2012)
    (doi: 10.1002/wcms.93)

                         Additional Contributions by
    A. E. DePrince, M. Saitow, U. Bozkaya, A. Yu. Sokolov
    -----------------------------------------------------------------------


    Psi4 started on: Tue Jul  5 16:25:39 2016

    Process ID:   9090
    PSI4DATADIR: /export131/home/mjharvey/miniconda3/share
    Memory level set to 256.000 MB

  ==> Input File <==

--------------------------------------------------------------------------
set {
	reference rhf
	basis 6-31G*
}


set_num_threads( 1 )
memory 2 gb

molecule MOL {
0 1

H	 -1.821000	 -2.218000	 -0.014000
C	 -1.415000	 -1.222000	 -0.022000
N	 -0.127000	 -1.098000	 -0.269000
C	 -2.223000	 -0.123000	 0.214000
C	 0.378000	 0.125000	 -0.285000
H	 -3.273000	 -0.236000	 0.414000
N	 -1.732000	 1.100000	 0.202000
C	 -0.444000	 1.222000	 -0.046000
C	 1.856000	 0.270000	 -0.549000
H	 -0.043000	 2.220000	 -0.059000
C	 2.712000	 -0.228000	 0.620000
H	 2.099000	 -0.298000	 -1.441000
H	 2.086000	 1.310000	 -0.759000
H	 3.767000	 -0.135000	 0.387000
H	 2.500000	 -1.269000	 0.831000
H	 2.515000	 0.346000	 1.521000

	symmetry c1
}
ee = optimize('scf')
oeprop('DIPOLE', 'QUADRUPOLE', 'MULLIKEN_CHARGES')
f=open( 'psi4out.xyz', 'w' )
f.write( "16  " )
f.write( str(ee) + "\n" )
f.write( MOL.save_string_xyz() )
f.close()
--------------------------------------------------------------------------

  Memory set to   2.000 GiB by Python script.
gradient() will perform analytic gradient computation.

*** tstart() called on cx1-3-6-2.cx1.hpc.ic.ac.uk
*** at Tue Jul  5 16:25:40 2016


         ---------------------------------------------------------
                                   SCF
            by Justin Turney, Rob Parrish, and Andy Simmonett
                              RHF Reference
                        1 Threads,   2000 MiB Core
         ---------------------------------------------------------

  ==> Geometry <==

    Molecular point group: c1
    Full point group: C1

    Geometry (in Angstrom), charge = 0, multiplicity = 1:

       Center              X                  Y                   Z               Mass       
    ------------   -----------------  -----------------  -----------------  -----------------
           H         -1.749078702692    -2.220533712506    -0.005974368686     1.007825032070
           C         -1.343078702692    -1.224533712506    -0.013974368686    12.000000000000
           N         -0.055078702692    -1.100533712506    -0.260974368686    14.003074004780
           C         -2.151078702692    -0.125533712506     0.222025631314    12.000000000000
           C          0.449921297308     0.122466287494    -0.276974368686    12.000000000000
           H         -3.201078702692    -0.238533712506     0.422025631314     1.007825032070
           N         -1.660078702692     1.097466287494     0.210025631314    14.003074004780
           C         -0.372078702692     1.219466287494    -0.037974368686    12.000000000000
           C          1.927921297308     0.267466287494    -0.540974368686    12.000000000000
           H          0.028921297308     2.217466287494    -0.050974368686     1.007825032070
           C          2.783921297308    -0.230533712506     0.628025631314    12.000000000000
           H          2.170921297308    -0.300533712506    -1.432974368686     1.007825032070
           H          2.157921297308     1.307466287494    -0.750974368686     1.007825032070
           H          3.838921297308    -0.137533712506     0.395025631314     1.007825032070
           H          2.571921297308    -1.271533712506     0.839025631314     1.007825032070
           H          2.586921297308     0.343466287494     1.529025631314     1.007825032070

  Running in c1 symmetry.

  Rotational constants: A =      0.16462  B =      0.05170  C =      0.04281 [cm^-1]
  Rotational constants: A =   4935.04880  B =   1549.97944  C =   1283.51912 [MHz]
  Nuclear repulsion =  349.863347642977203

  Charge       = 0
  Multiplicity = 1
  Electrons    = 58
  Nalpha       = 29
  Nbeta        = 29

  ==> Algorithm <==

  SCF Algorithm Type is DF.
  DIIS enabled.
  MOM disabled.
  Fractional occupation disabled.
  Guess Type is CORE.
  Energy threshold   = 1.00e-08
  Density threshold  = 1.00e-08
  Integral threshold = 0.00e+00

  ==> Primary Basis <==

  Basis Set: 6-31G*
    Number of shells: 64
    Number of basis function: 136
    Number of Cartesian functions: 136
    Spherical Harmonics?: false
    Max angular momentum: 2

  ==> Pre-Iterations <==

   -------------------------------------------------------
    Irrep   Nso     Nmo     Nalpha   Nbeta   Ndocc  Nsocc
   -------------------------------------------------------
     A        136     136       0       0       0       0
   -------------------------------------------------------
    Total     136     136      29      29      29       0
   -------------------------------------------------------

 OEINTS: Overlap, kinetic, potential, dipole, and quadrupole integrals
         stored in file 35.

  ==> Integral Setup <==

  ==> DFJK: Density-Fitted J/K Matrices <==

    J tasked:                  Yes
    K tasked:                  Yes
    wK tasked:                  No
    OpenMP threads:              1
    Integrals threads:           1
    Memory (MB):              1430
    Algorithm:                Core
    Integral Cache:           NONE
    Schwarz Cutoff:          1E-12
    Fitting Condition:       1E-12

   => Auxiliary Basis Set <=

  Basis Set: 
    Number of shells: 264
    Number of basis function: 848
    Number of Cartesian functions: 848
    Spherical Harmonics?: false
    Max angular momentum: 3

  Minimum eigenvalue in the overlap matrix is 1.1644455975E-03.
  Using Symmetric Orthogonalization.
  SCF Guess: Core (One-Electron) Hamiltonian.

  ==> Iterations <==

                           Total Energy        Delta E     RMS |[F,P]|

   @DF-RHF iter   1:  -252.34904684050576   -2.52349e+02   6.95710e-02 
   @DF-RHF iter   2:  -126.71077026628751    1.25638e+02   8.15279e-02 DIIS
   @DF-RHF iter   3:  -232.52366354114810   -1.05813e+02   6.16499e-02 DIIS
   @DF-RHF iter   4:  -272.64866828139481   -4.01250e+01   6.69464e-02 DIIS
   @DF-RHF iter   5:  -337.02655206269316   -6.43779e+01   1.36729e-02 DIIS
   @DF-RHF iter   6:  -339.41382549588030   -2.38727e+00   1.21581e-02 DIIS
   @DF-RHF iter   7:  -340.61474007694909   -1.20091e+00   3.51901e-03 DIIS
   @DF-RHF iter   8:  -340.73447426356682   -1.19734e-01   1.47431e-03 DIIS
   @DF-RHF iter   9:  -340.75643614553286   -2.19619e-02   3.37025e-04 DIIS
   @DF-RHF iter  10:  -340.75808739947735   -1.65125e-03   1.15314e-04 DIIS
   @DF-RHF iter  11:  -340.75835666112954   -2.69262e-04   4.85405e-05 DIIS
   @DF-RHF iter  12:  -340.75842071297456   -6.40518e-05   2.31927e-05 DIIS
   @DF-RHF iter  13:  -340.75844033539948   -1.96224e-05   1.02570e-05 DIIS
   @DF-RHF iter  14:  -340.75844512363977   -4.78824e-06   4.20216e-06 DIIS
   @DF-RHF iter  15:  -340.75844568808890   -5.64449e-07   1.30413e-06 DIIS
   @DF-RHF iter  16:  -340.75844575308935   -6.50004e-08   4.72827e-07 DIIS
   @DF-RHF iter  17:  -340.75844575817092   -5.08157e-09   1.15214e-07 DIIS
   @DF-RHF iter  18:  -340.75844575853711   -3.66185e-10   3.20347e-08 DIIS
   @DF-RHF iter  19:  -340.75844575856678   -2.96723e-11   9.40223e-09 DIIS

  ==> Post-Iterations <==

    Orbital Energies (a.u.)
    -----------------------

    Doubly Occupied:                                                      

       1A    -15.586865     2A    -15.582533     3A    -11.281137  
       4A    -11.276646     5A    -11.272317     6A    -11.272041  
       7A    -11.232924     8A    -11.217827     9A     -1.313715  
      10A     -1.222331    11A     -1.084587    12A     -1.013910  
      13A     -0.905262    14A     -0.893070    15A     -0.827942  
      16A     -0.716447    17A     -0.709857    18A     -0.659088  
      19A     -0.613138    20A     -0.602929    21A     -0.580108  
      22A     -0.560886    23A     -0.522156    24A     -0.505894  
      25A     -0.499869    26A     -0.486942    27A     -0.428796  
      28A     -0.395084    29A     -0.345351  

    Virtual:                                                              

      30A      0.103303    31A      0.134757    32A      0.245403  
      33A      0.272262    34A      0.278980    35A      0.301027  
      36A      0.316962    37A      0.320429    38A      0.324938  
      39A      0.337435    40A      0.351745    41A      0.379602  
      42A      0.412262    43A      0.436480    44A      0.500888  
      45A      0.512616    46A      0.556141    47A      0.628564  
      48A      0.660206    49A      0.716649    50A      0.719573  
      51A      0.742431    52A      0.746384    53A      0.765961  
      54A      0.779351    55A      0.807173    56A      0.827322  
      57A      0.838291    58A      0.867072    59A      0.881009  
      60A      0.922181    61A      0.951969    62A      0.968349  
      63A      1.004590    64A      1.030367    65A      1.064451  
      66A      1.079713    67A      1.081005    68A      1.094735  
      69A      1.111395    70A      1.132187    71A      1.139815  
      72A      1.156364    73A      1.169145    74A      1.180463  
      75A      1.216508    76A      1.228601    77A      1.244854  
      78A      1.254555    79A      1.269778    80A      1.333337  
      81A      1.341583    82A      1.395076    83A      1.492915  
      84A      1.520728    85A      1.575709    86A      1.610639  
      87A      1.646915    88A      1.710699    89A      1.767904  
      90A      1.778390    91A      1.786284    92A      1.796930  
      93A      1.831695    94A      1.946991    95A      1.996488  
      96A      2.029701    97A      2.080017    98A      2.141619  
      99A      2.155301   100A      2.190003   101A      2.237325  
     102A      2.279195   103A      2.312674   104A      2.330153  
     105A      2.413541   106A      2.485557   107A      2.508810  
     108A      2.549724   109A      2.572117   110A      2.598605  
     111A      2.607104   112A      2.650296   113A      2.675855  
     114A      2.712350   115A      2.715438   116A      2.734871  
     117A      2.802850   118A      2.874520   119A      2.922578  
     120A      2.968281   121A      3.035358   122A      3.103761  
     123A      3.136590   124A      3.171024   125A      3.220972  
     126A      3.265786   127A      3.499738   128A      3.843470  
     129A      4.369439   130A      4.502705   131A      4.557935  
     132A      4.618779   133A      4.710375   134A      4.800469  
     135A      4.895918   136A      4.985612  

    Final Occupation by Irrep:
              A 
    DOCC [    29 ]

  Energy converged.

  @DF-RHF Final Energy:  -340.75844575856678

   => Energetics <=

    Nuclear Repulsion Energy =            349.8633476429772031
    One-Electron Energy =               -1154.0242808297100510
    Two-Electron Energy =                 463.4024874281660686
    DFT Exchange-Correlation Energy =       0.0000000000000000
    Empirical Dispersion Energy =           0.0000000000000000
    PCM Polarization Energy =               0.0000000000000000
    EFP Energy =                            0.0000000000000000
    Total Energy =                       -340.7584457585667224

    Alert: EFP and PCM quantities not currently incorporated into SCF psivars.

Properties will be evaluated at   0.000000,   0.000000,   0.000000 Bohr
  ==> Properties <==


Properties computed using the SCF density matrix

  Nuclear Dipole Moment: (a.u.)
     X:     7.8848      Y:    -0.2815      Z:     0.8853

  Electronic Dipole Moment: (a.u.)
     X:    -7.6855      Y:     0.2106      Z:    -0.9073

  Dipole Moment: (a.u.)
     X:     0.1993      Y:    -0.0709      Z:    -0.0220     Total:     0.2127

  Dipole Moment: (Debye)
     X:     0.5066      Y:    -0.1802      Z:    -0.0559     Total:     0.5406


  Saving occupied orbitals to File 180.

*** tstop() called on cx1-3-6-2.cx1.hpc.ic.ac.uk at Tue Jul  5 16:26:04 2016
Module time:
	user time   =      23.70 seconds =       0.40 minutes
	system time =       0.10 seconds =       0.00 minutes
	total time  =         24 seconds =       0.40 minutes
Total time:
	user time   =      23.70 seconds =       0.40 minutes
	system time =       0.10 seconds =       0.00 minutes
	total time  =         24 seconds =       0.40 minutes

*** tstart() called on cx1-3-6-2.cx1.hpc.ic.ac.uk
*** at Tue Jul  5 16:26:04 2016


         ------------------------------------------------------------
                                   SCF GRAD                          
                          Rob Parrish, Justin Turney,                
                       Andy Simmonett, and Alex Sokolov              
         ------------------------------------------------------------

  ==> Geometry <==

    Molecular point group: c1
    Full point group: C1

    Geometry (in Angstrom), charge = 0, multiplicity = 1:

       Center              X                  Y                   Z               Mass       
    ------------   -----------------  -----------------  -----------------  -----------------
           H         -1.749078702692    -2.220533712506    -0.005974368686     1.007825032070
           C         -1.343078702692    -1.224533712506    -0.013974368686    12.000000000000
           N         -0.055078702692    -1.100533712506    -0.260974368686    14.003074004780
           C         -2.151078702692    -0.125533712506     0.222025631314    12.000000000000
           C          0.449921297308     0.122466287494    -0.276974368686    12.000000000000
           H         -3.201078702692    -0.238533712506     0.422025631314     1.007825032070
           N         -1.660078702692     1.097466287494     0.210025631314    14.003074004780
           C         -0.372078702692     1.219466287494    -0.037974368686    12.000000000000
           C          1.927921297308     0.267466287494    -0.540974368686    12.000000000000
           H          0.028921297308     2.217466287494    -0.050974368686     1.007825032070
           C          2.783921297308    -0.230533712506     0.628025631314    12.000000000000
           H          2.170921297308    -0.300533712506    -1.432974368686     1.007825032070
           H          2.157921297308     1.307466287494    -0.750974368686     1.007825032070
           H          3.838921297308    -0.137533712506     0.395025631314     1.007825032070
           H          2.571921297308    -1.271533712506     0.839025631314     1.007825032070
           H          2.586921297308     0.343466287494     1.529025631314     1.007825032070

  Nuclear repulsion =  349.863347642977203

  ==> Basis Set <==

  Basis Set: 6-31G*
    Number of shells: 64
    Number of basis function: 136
    Number of Cartesian functions: 136
    Spherical Harmonics?: false
    Max angular momentum: 2

  ==> DFJKGrad: Density-Fitted SCF Gradients <==

    Gradient:                    1
    J tasked:                  Yes
    K tasked:                  Yes
    wK tasked:                  No
    OpenMP threads:              1
    Integrals threads:           1
    Memory (MB):              1430
    Schwarz Cutoff:          0E+00
    Fitting Condition:       1E-12

   => Auxiliary Basis Set <=

  Basis Set: 
    Number of shells: 264
    Number of basis function: 848
    Number of Cartesian functions: 848
    Spherical Harmonics?: false
    Max angular momentum: 3


  -Total Gradient:
     Atom            X                  Y                   Z
    ------   -----------------  -----------------  -----------------
       1       -0.000104232614    -0.000245144642    -0.000084453039
       2        0.000485337898     0.000702904511     0.000273271988
       3       -0.000199130020    -0.000356860965    -0.000005007932
       4        0.000075742717     0.000211288532    -0.000268771057
       5        0.000032778981     0.000182547945    -0.000302903281
       6       -0.000119257143     0.000021070795     0.000053229814
       7        0.000314293366    -0.000336924605     0.000068335825
       8       -0.000496839518    -0.000409369464     0.000076465992
       9       -0.000083351781     0.000049390165     0.000553162566
      10        0.000071900368     0.000239607736    -0.000008614118
      11        0.000641983018    -0.000644589209    -0.000791028179
      12       -0.000011146605    -0.000074620143    -0.000069623733
      13       -0.000025224196     0.000109396021    -0.000121702143
      14       -0.000507025699    -0.000022750295     0.000189263315
      15        0.000044269943     0.000378272737     0.000052204814
      16       -0.000120098714     0.000195780877     0.000386169168


*** tstop() called on cx1-3-6-2.cx1.hpc.ic.ac.uk at Tue Jul  5 16:26:28 2016
Module time:
	user time   =      24.19 seconds =       0.40 minutes
	system time =       0.11 seconds =       0.00 minutes
	total time  =         24 seconds =       0.40 minutes
Total time:
	user time   =      47.90 seconds =       0.80 minutes
	system time =       0.21 seconds =       0.00 minutes
	total time  =         48 seconds =       0.80 minutes
CURRENT ENERGY: -340.7584457586

			-----------------------------------------
			 OPTKING 2.0: for geometry optimizations 
			  - R.A. King,  Bethel University        
			-----------------------------------------

	Internal coordinates to be generated automatically.
	Detected frag with atoms:  1 2 3 4 5 6 7 8 9 10 11 12 13 14 15 16
	---Fragment 1 Bond Connectivity---
	 1 : 2
	 2 : 1 3 4
	 3 : 2 5
	 4 : 2 6 7
	 5 : 3 8 9
	 6 : 4
	 7 : 4 8
	 8 : 5 7 10
	 9 : 5 11 12 13
	 10 : 8
	 11 : 9 14 15 16
	 12 : 9
	 13 : 9
	 14 : 11
	 15 : 11
	 16 : 11

	---Fragment 1 Geometry and Gradient---
	 H          -3.3052797330       -4.1962005855       -0.0112899206
	 C          -2.5380509230       -2.3140333571       -0.0264077297
	 N          -0.1040836638       -2.0797073166       -0.4931700845
	 C          -4.0649496384       -0.2372243371        0.4195676377
	 C           0.8502280333        0.2314277439       -0.5234057026
	 H          -6.0491620779       -0.4507633901        0.7975128642
	 N          -3.1370941071        2.0739107234        0.3968909241
	 C          -0.7031268480        2.3044573116       -0.0717611569
	 C           3.6432432577        0.5054380331       -1.0222934017
	 H           0.0546533313        4.1904039923       -0.0963275966
	 C           5.2608488274       -0.4356455810        1.1867964476
	 H           4.1024467080       -0.5679264103       -2.7079291123
	 H           4.0778802682        2.4707532113       -1.4191358896
	 H           7.2545098976       -0.2599010507        0.7464902587
	 H           4.8602268872       -2.4028504854        1.5855286617
	 H           4.8885727792        0.6490572192        2.8894396933
	            -0.0001042326       -0.0002451446       -0.0000844530
	             0.0004853379        0.0007029045        0.0002732720
	            -0.0001991300       -0.0003568610       -0.0000050079
	             0.0000757427        0.0002112885       -0.0002687711
	             0.0000327790        0.0001825479       -0.0003029033
	            -0.0001192571        0.0000210708        0.0000532298
	             0.0003142934       -0.0003369246        0.0000683358
	            -0.0004968395       -0.0004093695        0.0000764660
	            -0.0000833518        0.0000493902        0.0005531626
	             0.0000719004        0.0002396077       -0.0000086141
	             0.0006419830       -0.0006445892       -0.0007910282
	            -0.0000111466       -0.0000746201       -0.0000696237
	            -0.0000252242        0.0001093960       -0.0001217021
	            -0.0005070257       -0.0000227503        0.0001892633
	             0.0000442699        0.0003782727        0.0000522048
	            -0.0001200987        0.0001957809        0.0003861692

	Previous optimization step data not found.  Starting new optimization.

	---Fragment 1 Intrafragment Coordinates---
	 - Coordinate -           - BOHR/RAD -       - ANG/DEG -
	 R(1,2)           =         2.032590	       1.075600
	 R(2,3)           =         2.489372	       1.317319
	 R(2,4)           =         2.615999	       1.384327
	 R(3,5)           =         2.500594	       1.323257
	 R(4,6)           =         2.031143	       1.074834
	 R(4,7)           =         2.490537	       1.317936
	 R(5,8)           =         2.629514	       1.391479
	 R(5,9)           =         2.850422	       1.508378
	 R(7,8)           =         2.489374	       1.317320
	 R(8,10)          =         2.032641	       1.075627
	 R(9,11)          =         2.895231	       1.532091
	 R(9,12)          =         2.050450	       1.085052
	 R(9,13)          =         2.051550	       1.085634
	 R(11,14)         =         2.049254	       1.084418
	 R(11,15)         =         2.046798	       1.083119
	 R(11,16)         =         2.052843	       1.086318
	 B(1,2,3)         =         2.046115	     117.233741
	 B(1,2,4)         =         2.110114	     120.900632
	 B(2,3,5)         =         2.051503	     117.542476
	 B(2,4,6)         =         2.115833	     121.228326
	 B(2,4,7)         =         2.114955	     121.178002
	 B(3,2,4)         =         2.126949	     121.865214
	 B(3,5,8)         =         2.095684	     120.073850
	 B(3,5,9)         =         2.054330	     117.704442
	 B(4,7,8)         =         2.039708	     116.866653
	 B(5,8,7)         =         2.137570	     122.473740
	 B(5,8,10)        =         2.105013	     120.608370
	 B(5,9,11)        =         1.963482	     112.499231
	 B(5,9,12)        =         1.889150	     108.240296
	 B(5,9,13)        =         1.910848	     109.483518
	 B(6,4,7)         =         2.052397	     117.593667
	 B(7,8,10)        =         2.040601	     116.917810
	 B(8,5,9)         =         2.133077	     122.216304
	 B(9,11,14)       =         1.930225	     110.593731
	 B(9,11,15)       =         1.930171	     110.590647
	 B(9,11,16)       =         1.938822	     111.086313
	 B(11,9,12)       =         1.909194	     109.388756
	 B(11,9,13)       =         1.918360	     109.913943
	 B(12,9,13)       =         1.870260	     107.158013
	 B(14,11,15)      =         1.890940	     108.342908
	 B(14,11,16)      =         1.885274	     108.018256
	 B(15,11,16)      =         1.886803	     108.105827
	 D(1,2,3,5)       =         3.137515	     179.766342
	 D(1,2,4,6)       =         0.003618	       0.207309
	 D(1,2,4,7)       =        -3.138428	    -179.818656
	 D(2,3,5,8)       =         0.000325	       0.018634
	 D(2,3,5,9)       =         3.127485	     179.191713
	 D(2,4,7,8)       =         0.001694	       0.097069
	 D(3,2,4,6)       =         3.141020	     179.967165
	 D(3,2,4,7)       =        -0.001026	      -0.058799
	 D(3,5,8,7)       =         0.000417	       0.023908
	 D(3,5,8,10)      =        -3.139322	    -179.869910
	 D(3,5,9,11)      =        -1.228790	     -70.404494
	 D(3,5,9,12)      =         0.882828	      50.582338
	 D(3,5,9,13)      =         2.916006	     167.074817
	 D(4,2,3,5)       =        -0.000033	      -0.001911
	 D(4,7,8,5)       =        -0.001416	      -0.081143
	 D(4,7,8,10)      =         3.138388	     179.816364
	 D(5,9,11,14)     =         3.114440	     178.444254
	 D(5,9,11,15)     =         1.019705	      58.424810
	 D(5,9,11,16)     =        -1.075463	     -61.619475
	 D(6,4,7,8)       =        -3.140336	    -179.927983
	 D(7,8,5,9)       =        -3.126072	    -179.110741
	 D(8,5,9,11)      =         1.898040	     108.749682
	 D(8,5,9,12)      =        -2.273527	    -130.263486
	 D(8,5,9,13)      =        -0.240349	     -13.771007
	 D(9,5,8,10)      =         0.017374	       0.995442
	 D(12,9,11,14)    =         1.014343	      58.117583
	 D(12,9,11,15)    =        -1.080391	     -61.901861
	 D(12,9,11,16)    =         3.107626	     178.053855
	 D(13,9,11,14)    =        -1.034594	     -59.277893
	 D(13,9,11,15)    =        -3.129329	    -179.297337
	 D(13,9,11,16)    =         1.058688	      60.658378

	Current energy   :      -340.7584457586

	Generating empirical Hessian (Schlegel '84) for each fragment.
	Taking RFO optimization step.
	Going to follow RFO solution 1.
	Using RFO vector 1.
	Norm of target step-size    0.01235
	Projected energy change by RFO approximation:        -0.0000146697

	Back-transformation to cartesian coordinates...
	Successfully converged to displaced geometry.

	--- Internal Coordinate Step in ANG or DEG, aJ/ANG or AJ/DEG ---
	 ---------------------------------------------------------------------------
	   Coordinate                Previous        Force       Change         New 
	   ----------                --------       ------       ------       ------
	    1 R(1,2)          =      1.075600    -0.002189    -0.000385     1.075215
	    2 R(2,3)          =      1.317319     0.002145     0.000214     1.317533
	    3 R(2,4)          =      1.384327     0.000785     0.000116     1.384443
	    4 R(3,5)          =      1.323257    -0.000500    -0.000068     1.323190
	    5 R(4,6)          =      1.074834    -0.001023    -0.000179     1.074655
	    6 R(4,7)          =      1.317936     0.003480     0.000373     1.318308
	    7 R(5,8)          =      1.391479     0.000373     0.000039     1.391518
	    8 R(5,9)          =      1.508378     0.000783     0.000160     1.508538
	    9 R(7,8)          =      1.317320     0.003315     0.000346     1.317666
	   10 R(8,10)         =      1.075627    -0.002053    -0.000361     1.075266
	   11 R(9,11)         =      1.532091     0.000505     0.000111     1.532201
	   12 R(9,12)         =      1.085052    -0.000773    -0.000140     1.084911
	   13 R(9,13)         =      1.085634    -0.001013    -0.000184     1.085449
	   14 R(11,14)        =      1.084418     0.004415     0.000800     1.085218
	   15 R(11,15)        =      1.083119     0.002983     0.000538     1.083657
	   16 R(11,16)        =      1.086318    -0.003671    -0.000669     1.085649
	   17 B(1,2,3)        =    117.233741     0.000010     0.036299   117.270041
	   18 B(1,2,4)        =    120.900632     0.000008     0.026255   120.926887
	   19 B(2,3,5)        =    117.542476     0.000019     0.049897   117.592373
	   20 B(2,4,6)        =    121.228326    -0.000006    -0.029031   121.199295
	   21 B(2,4,7)        =    121.178002     0.000007     0.031444   121.209445
	   22 B(3,2,4)        =    121.865214    -0.000019    -0.062156   121.803058
	   23 B(3,5,8)        =    120.073850     0.000004     0.007008   120.080858
	   24 B(3,5,9)        =    117.704442    -0.000002    -0.002298   117.702144
	   25 B(4,7,8)        =    116.866653    -0.000004    -0.000867   116.865786
	   26 B(5,8,7)        =    122.473740    -0.000008    -0.025595   122.448144
	   27 B(5,8,10)       =    120.608370     0.000002     0.005158   120.613528
	   28 B(5,9,11)       =    112.499231    -0.000012    -0.049191   112.450040
	   29 B(5,9,12)       =    108.240296     0.000006     0.058276   108.298572
	   30 B(5,9,13)       =    109.483518     0.000006     0.000498   109.484017
	   31 B(6,4,7)        =    117.593667    -0.000001    -0.002644   117.591023
	   32 B(7,8,10)       =    116.917810     0.000005     0.020429   116.938239
	   33 B(8,5,9)        =    122.216304    -0.000002    -0.002145   122.214159
	   34 B(9,11,14)      =    110.593731    -0.000007    -0.051462   110.542269
	   35 B(9,11,15)      =    110.590647    -0.000007    -0.034887   110.555760
	   36 B(9,11,16)      =    111.086313     0.000004     0.037915   111.124228
	   37 B(11,9,12)      =    109.388756     0.000005     0.039469   109.428225
	   38 B(11,9,13)      =    109.913943    -0.000004    -0.065520   109.848423
	   39 B(12,9,13)      =    107.158013    -0.000000     0.021891   107.179904
	   40 B(14,11,15)     =    108.342908     0.000002    -0.027650   108.315258
	   41 B(14,11,16)     =    108.018256     0.000002     0.014490   108.032746
	   42 B(15,11,16)     =    108.105827     0.000006     0.063528   108.169355
	   43 D(1,2,3,5)      =    179.766342     0.000001     0.168242   179.934584
	   44 D(1,2,4,6)      =      0.207309    -0.000001    -0.223640    -0.016331
	   45 D(1,2,4,7)      =   -179.818656    -0.000000    -0.016435  -179.835091
	   46 D(2,3,5,8)      =      0.018634    -0.000000    -0.072906    -0.054271
	   47 D(2,3,5,9)      =    179.191713     0.000001     0.154610   179.346323
	   48 D(2,4,7,8)      =      0.097069    -0.000001    -0.225069    -0.128000
	   49 D(3,2,4,6)      =    179.967165     0.000000     0.061426   180.028591
	   50 D(3,2,4,7)      =     -0.058799     0.000002     0.268631     0.209831
	   51 D(3,5,8,7)      =      0.023908     0.000000     0.109158     0.133066
	   52 D(3,5,8,10)     =   -179.869910     0.000000     0.114830  -179.755080
	   53 D(3,5,9,11)     =    -70.404494    -0.000001    -0.179565   -70.584059
	   54 D(3,5,9,12)     =     50.582338    -0.000001    -0.121549    50.460789
	   55 D(3,5,9,13)     =    167.074817     0.000001    -0.062521   167.012296
	   56 D(4,2,3,5)      =     -0.001911    -0.000001    -0.106859    -0.108769
	   57 D(4,7,8,5)      =     -0.081143     0.000000     0.044747    -0.036396
	   58 D(4,7,8,10)     =    179.816364     0.000000     0.039259   179.855623
	   59 D(5,9,11,14)    =    178.444254    -0.000000    -0.022943   178.421311
	   60 D(5,9,11,15)    =     58.424810     0.000001     0.067724    58.492534
	   61 D(5,9,11,16)    =    -61.619475     0.000000    -0.013936   -61.633411
	   62 D(6,4,7,8)      =   -179.927983    -0.000000    -0.025097  -179.953080
	   63 D(7,8,5,9)      =   -179.110741    -0.000000    -0.128934  -179.239674
	   64 D(8,5,9,11)     =    108.749682    -0.000000     0.053210   108.802892
	   65 D(8,5,9,12)     =   -130.263486     0.000000     0.111226  -130.152260
	   66 D(8,5,9,13)     =    -13.771007     0.000002     0.170254   -13.600754
	   67 D(9,5,8,10)     =      0.995442    -0.000000    -0.123263     0.872180
	   68 D(12,9,11,14)   =     58.117583    -0.000001    -0.091593    58.025990
	   69 D(12,9,11,15)   =    -61.901861     0.000001    -0.000926   -61.902787
	   70 D(12,9,11,16)   =    178.053855    -0.000001    -0.082586   177.971268
	   71 D(13,9,11,14)   =    -59.277893    -0.000001    -0.103156   -59.381049
	   72 D(13,9,11,15)   =   -179.297337     0.000001    -0.012489  -179.309826
	   73 D(13,9,11,16)   =     60.658378    -0.000001    -0.094149    60.564229
	 ---------------------------------------------------------------------------

  ==> Convergence Check <==

  Measures of convergence in internal coordinates in au.
  Criteria marked as inactive (o), active & met (*), and active & unmet ( ).
  --------------------------------------------------------------------------------------------- ~
   Step     Total Energy     Delta E     MAX Force     RMS Force      MAX Disp      RMS Disp    ~
  --------------------------------------------------------------------------------------------- ~
    Convergence Criteria    1.00e-06 *    3.00e-04 *             o    1.20e-03 *             o  ~
  --------------------------------------------------------------------------------------------- ~
      1    -340.75844576   -3.41e+02      5.36e-04      1.46e-04 o    4.69e-03      1.45e-03 o  ~
  ---------------------------------------------------------------------------------------------

	Writing optimization data to binary file.
	Structure for next step:
	Cartesian Geometry (in Angstrom)
	    H    -1.7496574726  -2.2207944111  -0.0063745647
	    C    -1.3440696281  -1.2250531794  -0.0156599571
	    N    -0.0556001415  -1.1003078513  -0.2609748120
	    C    -2.1512070789  -0.1257507895   0.2225530890
	    C     0.4500035886   0.1223909911  -0.2752381271
	    H    -3.2011077526  -0.2387718085   0.4220983698
	    N    -1.6604471040   1.0977348091   0.2093310558
	    C    -0.3719132273   1.2198184678  -0.0376894102
	    C     1.9278923024   0.2670816465  -0.5409374314
	    H     0.0291361265   2.2174039182  -0.0511169768
	    C     2.7840482557  -0.2299840280   0.6284915186
	    H     2.1708073660  -0.3006985346  -1.4329300127
	    H     2.1580010918   1.3070021120  -0.7502590084
	    H     3.8395769850  -0.1375638126   0.3939375273
	    H     2.5720280672  -1.2715316697   0.8395308085
	    H     2.5882499885   0.3444847190   1.5286480993
			--------------------------
			 OPTKING Finished Execution 
			--------------------------

    Structure for next step:
    Molecular point group: c1
    Full point group: C1

    Geometry (in Angstrom), charge = 0, multiplicity = 1:

    H           -1.749471658023    -2.220823723955    -0.006429920345
    C           -1.343883844495    -1.225082568292    -0.015715312082
    N           -0.055414456330    -1.100337249710    -0.261030148229
    C           -2.151021233638    -0.125780262347     0.222497715864
    C            0.450189235228     0.122361499309    -0.275293462257
    H           -3.200921827192    -0.238801272666     0.422042981394
    N           -1.660261296185     1.097705242856     0.209275683672
    C           -0.371727517898     1.219788892174    -0.037744763455
    C            1.928077836147     0.267052143632    -0.540992746223
    H            0.029321805240     2.217374266409    -0.051172329025
    C            2.784233724047    -0.230013492874     0.628436114518
    H            2.170992881171    -0.300727994039    -1.432985259379
    H            2.158186607973     1.306972529813    -0.750314307283
    H            3.839762372783    -0.137593284496     0.393882141069
    H            2.572213551747    -1.271561055041     0.839475388240
    H            2.588435471853     0.344455210292     1.528592626383

gradient() will perform analytic gradient computation.

*** tstart() called on cx1-3-6-2.cx1.hpc.ic.ac.uk
*** at Tue Jul  5 16:26:29 2016


         ---------------------------------------------------------
                                   SCF
            by Justin Turney, Rob Parrish, and Andy Simmonett
                              RHF Reference
                        1 Threads,   2000 MiB Core
         ---------------------------------------------------------

  ==> Geometry <==

    Molecular point group: c1
    Full point group: C1

    Geometry (in Angstrom), charge = 0, multiplicity = 1:

       Center              X                  Y                   Z               Mass       
    ------------   -----------------  -----------------  -----------------  -----------------
           H         -1.749471658023    -2.220823723955    -0.006429920345     1.007825032070
           C         -1.343883844495    -1.225082568292    -0.015715312082    12.000000000000
           N         -0.055414456330    -1.100337249710    -0.261030148229    14.003074004780
           C         -2.151021233638    -0.125780262347     0.222497715864    12.000000000000
           C          0.450189235228     0.122361499309    -0.275293462257    12.000000000000
           H         -3.200921827192    -0.238801272666     0.422042981394     1.007825032070
           N         -1.660261296185     1.097705242856     0.209275683672    14.003074004780
           C         -0.371727517898     1.219788892174    -0.037744763455    12.000000000000
           C          1.928077836147     0.267052143632    -0.540992746223    12.000000000000
           H          0.029321805240     2.217374266409    -0.051172329025     1.007825032070
           C          2.784233724047    -0.230013492874     0.628436114518    12.000000000000
           H          2.170992881171    -0.300727994039    -1.432985259379     1.007825032070
           H          2.158186607973     1.306972529813    -0.750314307283     1.007825032070
           H          3.839762372783    -0.137593284496     0.393882141069     1.007825032070
           H          2.572213551747    -1.271561055041     0.839475388240     1.007825032070
           H          2.588435471853     0.344455210292     1.528592626383     1.007825032070

  Running in c1 symmetry.

  Rotational constants: A =      0.16459  B =      0.05169  C =      0.04280 [cm^-1]
  Rotational constants: A =   4934.27051  B =   1549.66117  C =   1283.19128 [MHz]
  Nuclear repulsion =  349.831078727991326

  Charge       = 0
  Multiplicity = 1
  Electrons    = 58
  Nalpha       = 29
  Nbeta        = 29

  ==> Algorithm <==

  SCF Algorithm Type is DF.
  DIIS enabled.
  MOM disabled.
  Fractional occupation disabled.
  Guess Type is READ.
  Energy threshold   = 1.00e-08
  Density threshold  = 1.00e-08
  Integral threshold = 0.00e+00

  ==> Primary Basis <==

  Basis Set: 6-31G*
    Number of shells: 64
    Number of basis function: 136
    Number of Cartesian functions: 136
    Spherical Harmonics?: false
    Max angular momentum: 2

  ==> Pre-Iterations <==

   -------------------------------------------------------
    Irrep   Nso     Nmo     Nalpha   Nbeta   Ndocc  Nsocc
   -------------------------------------------------------
     A        136     136       0       0       0       0
   -------------------------------------------------------
    Total     136     136      29      29      29       0
   -------------------------------------------------------

 OEINTS: Overlap, kinetic, potential, dipole, and quadrupole integrals
         stored in file 35.

  ==> Integral Setup <==

  ==> DFJK: Density-Fitted J/K Matrices <==

    J tasked:                  Yes
    K tasked:                  Yes
    wK tasked:                  No
    OpenMP threads:              1
    Integrals threads:           1
    Memory (MB):              1430
    Algorithm:                Core
    Integral Cache:           NONE
    Schwarz Cutoff:          1E-12
    Fitting Condition:       1E-12

   => Auxiliary Basis Set <=

  Basis Set: 
    Number of shells: 264
    Number of basis function: 848
    Number of Cartesian functions: 848
    Spherical Harmonics?: false
    Max angular momentum: 3

  Minimum eigenvalue in the overlap matrix is 1.1645603901E-03.
  Using Symmetric Orthogonalization.
  SCF Guess: Reading in previously saved MOs, projecting if necessary.

  Using orbitals from previous SCF, no projection.
  Recomputing DOCC and SOCC from number of alpha and beta electrons from previous calculation.
              A 
    DOCC [    29 ]

  ==> Iterations <==

                           Total Energy        Delta E     RMS |[F,P]|

   @DF-RHF iter   0:  -340.75801175461129   -3.40758e+02   3.85161e-05 
   @DF-RHF iter   1:  -340.75844716355073   -4.35409e-04   5.26982e-06 
   @DF-RHF iter   2:  -340.75844762060592   -4.57055e-07   2.09488e-06 DIIS
   @DF-RHF iter   3:  -340.75844768481011   -6.42042e-08   1.07233e-06 DIIS
   @DF-RHF iter   4:  -340.75844770433855   -1.95284e-08   3.05406e-07 DIIS
   @DF-RHF iter   5:  -340.75844770739866   -3.06011e-09   1.65193e-07 DIIS
   @DF-RHF iter   6:  -340.75844770856668   -1.16802e-09   7.38803e-08 DIIS
   @DF-RHF iter   7:  -340.75844770882509   -2.58410e-10   2.62029e-08 DIIS
   @DF-RHF iter   8:  -340.75844770884987   -2.47837e-11   9.85614e-09 DIIS

  ==> Post-Iterations <==

    Orbital Energies (a.u.)
    -----------------------

    Doubly Occupied:                                                      

       1A    -15.586929     2A    -15.582501     3A    -11.281130  
       4A    -11.276663     5A    -11.272338     6A    -11.272076  
       7A    -11.232898     8A    -11.217887     9A     -1.313531  
      10A     -1.222133    11A     -1.084573    12A     -1.013883  
      13A     -0.905159    14A     -0.893070    15A     -0.827900  
      16A     -0.716427    17A     -0.709749    18A     -0.659272  
      19A     -0.613166    20A     -0.602974    21A     -0.580092  
      22A     -0.560852    23A     -0.521986    24A     -0.505928  
      25A     -0.499914    26A     -0.486830    27A     -0.428686  
      28A     -0.395049    29A     -0.345348  

    Virtual:                                                              

      30A      0.103279    31A      0.134716    32A      0.245391  
      33A      0.272324    34A      0.278966    35A      0.301042  
      36A      0.316983    37A      0.320338    38A      0.324987  
      39A      0.337450    40A      0.351728    41A      0.379534  
      42A      0.412076    43A      0.436382    44A      0.500714  
      45A      0.512577    46A      0.556059    47A      0.628633  
      48A      0.660204    49A      0.716695    50A      0.719653  
      51A      0.742501    52A      0.746376    53A      0.765893  
      54A      0.779331    55A      0.807078    56A      0.827224  
      57A      0.838301    58A      0.867041    59A      0.880895  
      60A      0.922064    61A      0.951845    62A      0.968385  
      63A      1.004383    64A      1.030185    65A      1.064711  
      66A      1.079944    67A      1.081091    68A      1.094819  
      69A      1.111299    70A      1.132257    71A      1.139894  
      72A      1.156384    73A      1.169034    74A      1.180411  
      75A      1.216534    76A      1.228811    77A      1.244983  
      78A      1.254454    79A      1.269480    80A      1.333531  
      81A      1.341555    82A      1.394761    83A      1.492537  
      84A      1.520794    85A      1.575860    86A      1.610946  
      87A      1.646762    88A      1.710690    89A      1.768005  
      90A      1.778163    91A      1.786151    92A      1.796853  
      93A      1.831771    94A      1.947182    95A      1.996553  
      96A      2.029854    97A      2.080189    98A      2.141662  
      99A      2.155249   100A      2.189864   101A      2.237036  
     102A      2.279278   103A      2.312936   104A      2.330274  
     105A      2.413457   106A      2.485636   107A      2.508304  
     108A      2.549457   109A      2.571813   110A      2.598104  
     111A      2.607272   112A      2.650105   113A      2.675751  
     114A      2.712654   115A      2.714905   116A      2.733870  
     117A      2.803048   118A      2.874511   119A      2.922427  
     120A      2.968042   121A      3.035465   122A      3.103424  
     123A      3.136393   124A      3.170430   125A      3.221029  
     126A      3.265426   127A      3.499437   128A      3.843303  
     129A      4.369284   130A      4.502685   131A      4.557895  
     132A      4.618753   133A      4.710123   134A      4.800168  
     135A      4.896216   136A      4.985587  

    Final Occupation by Irrep:
              A 
    DOCC [    29 ]

  Energy converged.

  @DF-RHF Final Energy:  -340.75844770884987

   => Energetics <=

    Nuclear Repulsion Energy =            349.8310787279913256
    One-Electron Energy =               -1153.9611635198602926
    Two-Electron Energy =                 463.3716370830190954
    DFT Exchange-Correlation Energy =       0.0000000000000000
    Empirical Dispersion Energy =           0.0000000000000000
    PCM Polarization Energy =               0.0000000000000000
    EFP Energy =                            0.0000000000000000
    Total Energy =                       -340.7584477088498716

    Alert: EFP and PCM quantities not currently incorporated into SCF psivars.

Properties will be evaluated at   0.000000,   0.000000,   0.000000 Bohr
  ==> Properties <==


Properties computed using the SCF density matrix

  Nuclear Dipole Moment: (a.u.)
     X:     7.8877      Y:    -0.2819      Z:     0.8843

  Electronic Dipole Moment: (a.u.)
     X:    -7.6883      Y:     0.2108      Z:    -0.9057

  Dipole Moment: (a.u.)
     X:     0.1994      Y:    -0.0711      Z:    -0.0214     Total:     0.2128

  Dipole Moment: (Debye)
     X:     0.5068      Y:    -0.1807      Z:    -0.0544     Total:     0.5408


  Saving occupied orbitals to File 180.

*** tstop() called on cx1-3-6-2.cx1.hpc.ic.ac.uk at Tue Jul  5 16:26:44 2016
Module time:
	user time   =      14.34 seconds =       0.24 minutes
	system time =       0.05 seconds =       0.00 minutes
	total time  =         15 seconds =       0.25 minutes
Total time:
	user time   =      62.41 seconds =       1.04 minutes
	system time =       0.29 seconds =       0.00 minutes
	total time  =         64 seconds =       1.07 minutes

*** tstart() called on cx1-3-6-2.cx1.hpc.ic.ac.uk
*** at Tue Jul  5 16:26:44 2016


         ------------------------------------------------------------
                                   SCF GRAD                          
                          Rob Parrish, Justin Turney,                
                       Andy Simmonett, and Alex Sokolov              
         ------------------------------------------------------------

  ==> Geometry <==

    Molecular point group: c1
    Full point group: C1

    Geometry (in Angstrom), charge = 0, multiplicity = 1:

       Center              X                  Y                   Z               Mass       
    ------------   -----------------  -----------------  -----------------  -----------------
           H         -1.749471658023    -2.220823723955    -0.006429920345     1.007825032070
           C         -1.343883844495    -1.225082568292    -0.015715312082    12.000000000000
           N         -0.055414456330    -1.100337249710    -0.261030148229    14.003074004780
           C         -2.151021233638    -0.125780262347     0.222497715864    12.000000000000
           C          0.450189235228     0.122361499309    -0.275293462257    12.000000000000
           H         -3.200921827192    -0.238801272666     0.422042981394     1.007825032070
           N         -1.660261296185     1.097705242856     0.209275683672    14.003074004780
           C         -0.371727517898     1.219788892174    -0.037744763455    12.000000000000
           C          1.928077836147     0.267052143632    -0.540992746223    12.000000000000
           H          0.029321805240     2.217374266409    -0.051172329025     1.007825032070
           C          2.784233724047    -0.230013492874     0.628436114518    12.000000000000
           H          2.170992881171    -0.300727994039    -1.432985259379     1.007825032070
           H          2.158186607973     1.306972529813    -0.750314307283     1.007825032070
           H          3.839762372783    -0.137593284496     0.393882141069     1.007825032070
           H          2.572213551747    -1.271561055041     0.839475388240     1.007825032070
           H          2.588435471853     0.344455210292     1.528592626383     1.007825032070

  Nuclear repulsion =  349.831078727991439

  ==> Basis Set <==

  Basis Set: 6-31G*
    Number of shells: 64
    Number of basis function: 136
    Number of Cartesian functions: 136
    Spherical Harmonics?: false
    Max angular momentum: 2

  ==> DFJKGrad: Density-Fitted SCF Gradients <==

    Gradient:                    1
    J tasked:                  Yes
    K tasked:                  Yes
    wK tasked:                  No
    OpenMP threads:              1
    Integrals threads:           1
    Memory (MB):              1430
    Schwarz Cutoff:          0E+00
    Fitting Condition:       1E-12

   => Auxiliary Basis Set <=

  Basis Set: 
    Number of shells: 264
    Number of basis function: 848
    Number of Cartesian functions: 848
    Spherical Harmonics?: false
    Max angular momentum: 3


  -Total Gradient:
     Atom            X                  Y                   Z
    ------   -----------------  -----------------  -----------------
       1       -0.000000953150    -0.000002925100     0.000100289249
       2       -0.000055864939    -0.000084216338    -0.000404789757
       3       -0.000100108151    -0.000069093708     0.000051593651
       4       -0.000006721555     0.000002434594     0.000264660640
       5        0.000139594895     0.000137667597     0.000320646273
       6        0.000021377478    -0.000026443318    -0.000014717879
       7        0.000000485039     0.000004308554    -0.000134792226
       8        0.000013064659     0.000059478922    -0.000035036123
       9       -0.000005927203    -0.000048346945    -0.000057931734
      10        0.000022217026    -0.000018879890    -0.000011303263
      11       -0.000040025140     0.000047003657    -0.000049577599
      12        0.000036457468     0.000004714571    -0.000055112372
      13        0.000005686468    -0.000021804970     0.000004252297
      14       -0.000003079209     0.000026609574    -0.000017873685
      15       -0.000033963156    -0.000010399459     0.000004295460
      16        0.000007759473    -0.000000107737     0.000035397065


*** tstop() called on cx1-3-6-2.cx1.hpc.ic.ac.uk at Tue Jul  5 16:27:00 2016
Module time:
	user time   =      15.89 seconds =       0.26 minutes
	system time =       0.09 seconds =       0.00 minutes
	total time  =         16 seconds =       0.27 minutes
Total time:
	user time   =      78.31 seconds =       1.31 minutes
	system time =       0.38 seconds =       0.01 minutes
	total time  =         80 seconds =       1.33 minutes
CURRENT ENERGY: -340.7584477088

			-----------------------------------------
			 OPTKING 2.0: for geometry optimizations 
			  - R.A. King,  Bethel University        
			-----------------------------------------

	Previous internal coordinate definitions found.
	---Fragment 1 Geometry and Gradient---
	 H          -3.3060223109       -4.1967486277       -0.0121507885
	 C          -2.5395724205       -2.3150705442       -0.0296976359
	 N          -0.1047181463       -2.0793360558       -0.4932754926
	 C          -4.0648410376       -0.2376902488        0.4204597482
	 C           0.8507343626        0.2312297229       -0.5202292498
	 H          -6.0488656262       -0.4512690055        0.7975456511
	 N          -3.1374391588        2.0743622836        0.3954737284
	 C          -0.7024632049        2.3050669461       -0.0713272659
	 C           3.6435390732        0.5046554147       -1.0223281302
	 H           0.0554101816        4.1902300976       -0.0967016874
	 C           5.2614392284       -0.4346625084        1.1875721485
	 H           4.1025819819       -0.5682935492       -2.7079496927
	 H           4.0783816327        2.4698201446       -1.4178885544
	 H           7.2560992999       -0.2600136254        0.7443293753
	 H           4.8607791681       -2.4029021553        1.5863785791
	 H           4.8914341544        0.6509260125        2.8886214326
	            -0.0000009532       -0.0000029251        0.0001002892
	            -0.0000558649       -0.0000842163       -0.0004047898
	            -0.0001001082       -0.0000690937        0.0000515937
	            -0.0000067216        0.0000024346        0.0002646606
	             0.0001395949        0.0001376676        0.0003206463
	             0.0000213775       -0.0000264433       -0.0000147179
	             0.0000004850        0.0000043086       -0.0001347922
	             0.0000130647        0.0000594789       -0.0000350361
	            -0.0000059272       -0.0000483469       -0.0000579317
	             0.0000222170       -0.0000188799       -0.0000113033
	            -0.0000400251        0.0000470037       -0.0000495776
	             0.0000364575        0.0000047146       -0.0000551124
	             0.0000056865       -0.0000218050        0.0000042523
	            -0.0000030792        0.0000266096       -0.0000178737
	            -0.0000339632       -0.0000103995        0.0000042955
	             0.0000077595       -0.0000001077        0.0000353971

	---Fragment 1 Intrafragment Coordinates---
	 - Coordinate -           - BOHR/RAD -       - ANG/DEG -
	 R(1,2)           =         2.031863	       1.075215
	 R(2,3)           =         2.489777	       1.317533
	 R(2,4)           =         2.616218	       1.384443
	 R(3,5)           =         2.500466	       1.323190
	 R(4,6)           =         2.030804	       1.074655
	 R(4,7)           =         2.491242	       1.318308
	 R(5,8)           =         2.629589	       1.391518
	 R(5,9)           =         2.850723	       1.508538
	 R(7,8)           =         2.490027	       1.317666
	 R(8,10)          =         2.031959	       1.075266
	 R(9,11)          =         2.895441	       1.532201
	 R(9,12)          =         2.050185	       1.084911
	 R(9,13)          =         2.051202	       1.085449
	 R(11,14)         =         2.050765	       1.085218
	 R(11,15)         =         2.047814	       1.083657
	 R(11,16)         =         2.051579	       1.085649
	 B(1,2,3)         =         2.046748	     117.270041
	 B(1,2,4)         =         2.110572	     120.926887
	 B(2,3,5)         =         2.052374	     117.592373
	 B(2,4,6)         =         2.115327	     121.199295
	 B(2,4,7)         =         2.115504	     121.209445
	 B(3,2,4)         =         2.125864	     121.803058
	 B(3,5,8)         =         2.095806	     120.080858
	 B(3,5,9)         =         2.054290	     117.702144
	 B(4,7,8)         =         2.039693	     116.865786
	 B(5,8,7)         =         2.137123	     122.448144
	 B(5,8,10)        =         2.105103	     120.613528
	 B(5,9,11)        =         1.962623	     112.450040
	 B(5,9,12)        =         1.890167	     108.298572
	 B(5,9,13)        =         1.910857	     109.484017
	 B(6,4,7)         =         2.052351	     117.591023
	 B(7,8,10)        =         2.040957	     116.938239
	 B(8,5,9)         =         2.133039	     122.214159
	 B(9,11,14)       =         1.929327	     110.542269
	 B(9,11,15)       =         1.929562	     110.555760
	 B(9,11,16)       =         1.939484	     111.124228
	 B(11,9,12)       =         1.909883	     109.428225
	 B(11,9,13)       =         1.917217	     109.848423
	 B(12,9,13)       =         1.870642	     107.179904
	 B(14,11,15)      =         1.890458	     108.315258
	 B(14,11,16)      =         1.885527	     108.032746
	 B(15,11,16)      =         1.887911	     108.169355
	 D(1,2,3,5)       =         3.140451	     179.934584
	 D(1,2,4,6)       =        -0.000285	      -0.016331
	 D(1,2,4,7)       =        -3.138714	    -179.835091
	 D(2,3,5,8)       =        -0.000947	      -0.054271
	 D(2,3,5,9)       =         3.130184	     179.346323
	 D(2,4,7,8)       =        -0.002234	      -0.128000
	 D(3,2,4,6)       =        -3.141094	    -179.971409
	 D(3,2,4,7)       =         0.003662	       0.209831
	 D(3,5,8,7)       =         0.002322	       0.133066
	 D(3,5,8,10)      =        -3.137318	    -179.755080
	 D(3,5,9,11)      =        -1.231924	     -70.584059
	 D(3,5,9,12)      =         0.880707	      50.460789
	 D(3,5,9,13)      =         2.914914	     167.012296
	 D(4,2,3,5)       =        -0.001898	      -0.108769
	 D(4,7,8,5)       =        -0.000635	      -0.036396
	 D(4,7,8,10)      =         3.139073	     179.855623
	 D(5,9,11,14)     =         3.114039	     178.421311
	 D(5,9,11,15)     =         1.020887	      58.492534
	 D(5,9,11,16)     =        -1.075706	     -61.633411
	 D(6,4,7,8)       =        -3.140774	    -179.953080
	 D(7,8,5,9)       =        -3.128322	    -179.239674
	 D(8,5,9,11)      =         1.898969	     108.802892
	 D(8,5,9,12)      =        -2.271585	    -130.152260
	 D(8,5,9,13)      =        -0.237378	     -13.600754
	 D(9,5,8,10)      =         0.015222	       0.872180
	 D(12,9,11,14)    =         1.012745	      58.025990
	 D(12,9,11,15)    =        -1.080407	     -61.902787
	 D(12,9,11,16)    =         3.106185	     177.971268
	 D(13,9,11,14)    =        -1.036395	     -59.381049
	 D(13,9,11,15)    =        -3.129547	    -179.309826
	 D(13,9,11,16)    =         1.057045	      60.564229

	Current energy   :      -340.7584477088

	Energy change for the previous step:
		Projected    :        -0.0000146697
		Actual       :        -0.0000019503
	Energy ratio indicates iffy step: Trust radius decreased to 1.250e-01.


	Performing BFGS update.
	Previous computed or guess Hessian on step 1.
	Steps to be used in Hessian update: 1
	Taking RFO optimization step.
	Going to follow RFO solution 1.
	Using RFO vector 1.
	Norm of target step-size    0.00888
	Projected energy change by RFO approximation:        -0.0000001548

	Back-transformation to cartesian coordinates...
	Successfully converged to displaced geometry.

	--- Internal Coordinate Step in ANG or DEG, aJ/ANG or AJ/DEG ---
	 ---------------------------------------------------------------------------
	   Coordinate                Previous        Force       Change         New 
	   ----------                --------       ------       ------       ------
	    1 R(1,2)          =      1.075215    -0.000032    -0.000072     1.075143
	    2 R(2,3)          =      1.317533     0.000107     0.000045     1.317579
	    3 R(2,4)          =      1.384443    -0.000220     0.000000     1.384443
	    4 R(3,5)          =      1.323190    -0.001265    -0.000105     1.323085
	    5 R(4,6)          =      1.074655     0.000172    -0.000011     1.074644
	    6 R(4,7)          =      1.318308    -0.000553     0.000027     1.318336
	    7 R(5,8)          =      1.391518     0.000227     0.000029     1.391547
	    8 R(5,9)          =      1.508538     0.000071     0.000038     1.508576
	    9 R(7,8)          =      1.317666    -0.000235     0.000045     1.317711
	   10 R(8,10)         =      1.075266     0.000075    -0.000055     1.075211
	   11 R(9,11)         =      1.532201     0.000662     0.000121     1.532322
	   12 R(9,12)         =      1.084911    -0.000420    -0.000078     1.084834
	   13 R(9,13)         =      1.085449     0.000169    -0.000011     1.085438
	   14 R(11,14)        =      1.085218    -0.000026     0.000139     1.085357
	   15 R(11,15)        =      1.083657    -0.000144     0.000077     1.083734
	   16 R(11,16)        =      1.085649    -0.000230    -0.000148     1.085501
	   17 B(1,2,3)        =    117.270041    -0.000004    -0.003801   117.266239
	   18 B(1,2,4)        =    120.926887    -0.000001     0.004723   120.931610
	   19 B(2,3,5)        =    117.592373    -0.000004    -0.000382   117.591991
	   20 B(2,4,6)        =    121.199295     0.000003     0.003016   121.202311
	   21 B(2,4,7)        =    121.209445    -0.000001     0.004355   121.213801
	   22 B(3,2,4)        =    121.803058     0.000004    -0.001101   121.801957
	   23 B(3,5,8)        =    120.080858     0.000001     0.002688   120.083546
	   24 B(3,5,9)        =    117.702144    -0.000001    -0.003565   117.698579
	   25 B(4,7,8)        =    116.865786    -0.000004    -0.007686   116.858100
	   26 B(5,8,7)        =    122.448144     0.000003     0.002456   122.450600
	   27 B(5,8,10)       =    120.613528     0.000001     0.004842   120.618370
	   28 B(5,9,11)       =    112.450040     0.000003    -0.001811   112.448230
	   29 B(5,9,12)       =    108.298572    -0.000002    -0.007387   108.291185
	   30 B(5,9,13)       =    109.484017    -0.000001     0.003528   109.487545
	   31 B(6,4,7)        =    117.591023    -0.000002    -0.007183   117.583840
	   32 B(7,8,10)       =    116.938239    -0.000004    -0.007295   116.930943
	   33 B(8,5,9)        =    122.214159    -0.000000    -0.001455   122.212704
	   34 B(9,11,14)      =    110.542269     0.000003    -0.000429   110.541840
	   35 B(9,11,15)      =    110.555760     0.000002     0.000315   110.556075
	   36 B(9,11,16)      =    111.124228    -0.000003    -0.002718   111.121511
	   37 B(11,9,12)      =    109.428225    -0.000002    -0.003573   109.424652
	   38 B(11,9,13)      =    109.848423     0.000000    -0.001433   109.846990
	   39 B(12,9,13)      =    107.179904     0.000001     0.011250   107.191154
	   40 B(14,11,15)     =    108.315258    -0.000003    -0.015224   108.300033
	   41 B(14,11,16)     =    108.032746     0.000000     0.003342   108.036088
	   42 B(15,11,16)     =    108.169355     0.000001     0.014738   108.184093
	   43 D(1,2,3,5)      =    179.934584    -0.000001    -0.110330   179.824254
	   44 D(1,2,4,6)      =     -0.016331     0.000002     0.121604     0.105273
	   45 D(1,2,4,7)      =   -179.835091     0.000000     0.021462  -179.813629
	   46 D(2,3,5,8)      =     -0.054271     0.000000     0.050547    -0.003725
	   47 D(2,3,5,9)      =    179.346323    -0.000001    -0.158969   179.187354
	   48 D(2,4,7,8)      =     -0.128000     0.000001     0.124003    -0.003997
	   49 D(3,2,4,6)      =   -179.971409    -0.000001    -0.087573  -180.058981
	   50 D(3,2,4,7)      =      0.209831    -0.000002    -0.187715     0.022116
	   51 D(3,5,8,7)      =      0.133066    -0.000001    -0.111086     0.021979
	   52 D(3,5,8,10)     =   -179.755080    -0.000001    -0.112633  -179.867713
	   53 D(3,5,9,11)     =    -70.584059     0.000001     0.143995   -70.440064
	   54 D(3,5,9,12)     =     50.460789     0.000001     0.133333    50.594122
	   55 D(3,5,9,13)     =    167.012296     0.000001     0.144543   167.156838
	   56 D(4,2,3,5)      =     -0.108769     0.000001     0.091530    -0.017239
	   57 D(4,7,8,5)      =     -0.036396    -0.000000     0.019148    -0.017248
	   58 D(4,7,8,10)     =    179.855623    -0.000000     0.020653   179.876277
	   59 D(5,9,11,14)    =    178.421311    -0.000000     0.018529   178.439840
	   60 D(5,9,11,15)    =     58.492534    -0.000000     0.037623    58.530156
	   61 D(5,9,11,16)    =    -61.633411    -0.000000     0.020663   -61.612747
	   62 D(6,4,7,8)      =   -179.953080     0.000000     0.027345  -179.925735
	   63 D(7,8,5,9)      =   -179.239674     0.000001     0.108180  -179.131494
	   64 D(8,5,9,11)     =    108.802892    -0.000000    -0.070254   108.732638
	   65 D(8,5,9,12)     =   -130.152260    -0.000001    -0.080916  -130.233176
	   66 D(8,5,9,13)     =    -13.600754    -0.000001    -0.069706   -13.670460
	   67 D(9,5,8,10)     =      0.872180     0.000001     0.106634     0.978813
	   68 D(12,9,11,14)   =     58.025990     0.000000     0.031486    58.057476
	   69 D(12,9,11,15)   =    -61.902787     0.000000     0.050580   -61.852207
	   70 D(12,9,11,16)   =    177.971268     0.000000     0.033621   178.004889
	   71 D(13,9,11,14)   =    -59.381049    -0.000000     0.020781   -59.360268
	   72 D(13,9,11,15)   =   -179.309826     0.000000     0.039875  -179.269951
	   73 D(13,9,11,16)   =     60.564229     0.000000     0.022916    60.587145
	 ---------------------------------------------------------------------------

  ==> Convergence Check <==

  Measures of convergence in internal coordinates in au.
  Criteria marked as inactive (o), active & met (*), and active & unmet ( ).
  ---------------------------------------------------------------------------------------------
   Step     Total Energy     Delta E     MAX Force     RMS Force      MAX Disp      RMS Disp   
  ---------------------------------------------------------------------------------------------
    Convergence Criteria    1.00e-06 *    3.00e-04 *             o    1.20e-03 *             o
  ---------------------------------------------------------------------------------------------
      2    -340.75844771   -1.95e-06      1.54e-04 *    4.26e-05 o    3.28e-03      1.04e-03 o  ~
  ---------------------------------------------------------------------------------------------

	Writing optimization data to binary file.
	Structure for next step:
	Cartesian Geometry (in Angstrom)
	    H    -1.7485719640  -2.2208589291  -0.0051541809
	    C    -1.3431184324  -1.2251371755  -0.0140177563
	    N    -0.0550013935  -1.1000907562  -0.2612648653
	    C    -2.1506902224  -0.1258063865   0.2225874022
	    C     0.4500584805   0.1226981556  -0.2772477243
	    H    -3.2005295196  -0.2388968114   0.4223571852
	    N    -1.6601231487   1.0977868628   0.2094553502
	    C    -0.3717152479   1.2199879569  -0.0384040121
	    C     1.9282358778   0.2674303205  -0.5415323354
	    H     0.0292201371   2.2175654470  -0.0514213685
	    C     2.7833212436  -0.2304156953   0.6285059105
	    H     2.1717989275  -0.3000140513  -1.4334672674
	    H     2.1586768418   1.3074267063  -0.7500507465
	    H     3.8392116797  -0.1376385506   0.3950820559
	    H     2.5714778161  -1.2723218831   0.8383470686
	    H     2.5864611866   0.3432736500   1.5287497535
			--------------------------
			 OPTKING Finished Execution 
			--------------------------

    Structure for next step:
    Molecular point group: c1
    Full point group: C1

    Geometry (in Angstrom), charge = 0, multiplicity = 1:

    H           -1.748660852303    -2.220942050279    -0.005015732809
    C           -1.343207351665    -1.225220372649    -0.013879307542
    N           -0.055090411133    -1.100173962949    -0.261126397662
    C           -2.150779080059    -0.125889667621     0.222725832818
    C            0.449969424300     0.122614855440    -0.277109255480
    H           -3.200618297049    -0.238980083868     0.422495600606
    N           -1.660212043744     1.097703488265     0.209593781824
    C           -0.371804241337     1.219904572946    -0.038265561532
    C            1.928146708746     0.267347009317    -0.541393846369
    H            0.029131112997     2.217481986890    -0.051282916887
    C            2.783232009225    -0.230498968468     0.628644310184
    H            2.171709739835    -0.300097319139    -1.433328710273
    H            2.158587655134     1.307343315698    -0.749912241565
    H            3.839122364645    -0.137721830796     0.395220473434
    H            2.571388597918    -1.272405076642     0.838485452255
    H            2.586371967242     0.343190332998     1.528888084380

gradient() will perform analytic gradient computation.

*** tstart() called on cx1-3-6-2.cx1.hpc.ic.ac.uk
*** at Tue Jul  5 16:27:00 2016


         ---------------------------------------------------------
                                   SCF
            by Justin Turney, Rob Parrish, and Andy Simmonett
                              RHF Reference
                        1 Threads,   2000 MiB Core
         ---------------------------------------------------------

  ==> Geometry <==

    Molecular point group: c1
    Full point group: C1

    Geometry (in Angstrom), charge = 0, multiplicity = 1:

       Center              X                  Y                   Z               Mass       
    ------------   -----------------  -----------------  -----------------  -----------------
           H         -1.748660852303    -2.220942050279    -0.005015732809     1.007825032070
           C         -1.343207351665    -1.225220372649    -0.013879307542    12.000000000000
           N         -0.055090411133    -1.100173962949    -0.261126397662    14.003074004780
           C         -2.150779080059    -0.125889667621     0.222725832818    12.000000000000
           C          0.449969424300     0.122614855440    -0.277109255480    12.000000000000
           H         -3.200618297049    -0.238980083868     0.422495600606     1.007825032070
           N         -1.660212043744     1.097703488265     0.209593781824    14.003074004780
           C         -0.371804241337     1.219904572946    -0.038265561532    12.000000000000
           C          1.928146708746     0.267347009317    -0.541393846369    12.000000000000
           H          0.029131112997     2.217481986890    -0.051282916887     1.007825032070
           C          2.783232009225    -0.230498968468     0.628644310184    12.000000000000
           H          2.171709739835    -0.300097319139    -1.433328710273     1.007825032070
           H          2.158587655134     1.307343315698    -0.749912241565     1.007825032070
           H          3.839122364645    -0.137721830796     0.395220473434     1.007825032070
           H          2.571388597918    -1.272405076642     0.838485452255     1.007825032070
           H          2.586371967242     0.343190332998     1.528888084380     1.007825032070

  Running in c1 symmetry.

  Rotational constants: A =      0.16453  B =      0.05171  C =      0.04281 [cm^-1]
  Rotational constants: A =   4932.60311  B =   1550.11173  C =   1283.55827 [MHz]
  Nuclear repulsion =  349.839749992143254

  Charge       = 0
  Multiplicity = 1
  Electrons    = 58
  Nalpha       = 29
  Nbeta        = 29

  ==> Algorithm <==

  SCF Algorithm Type is DF.
  DIIS enabled.
  MOM disabled.
  Fractional occupation disabled.
  Guess Type is READ.
  Energy threshold   = 1.00e-08
  Density threshold  = 1.00e-08
  Integral threshold = 0.00e+00

  ==> Primary Basis <==

  Basis Set: 6-31G*
    Number of shells: 64
    Number of basis function: 136
    Number of Cartesian functions: 136
    Spherical Harmonics?: false
    Max angular momentum: 2

  ==> Pre-Iterations <==

   -------------------------------------------------------
    Irrep   Nso     Nmo     Nalpha   Nbeta   Ndocc  Nsocc
   -------------------------------------------------------
     A        136     136       0       0       0       0
   -------------------------------------------------------
    Total     136     136      29      29      29       0
   -------------------------------------------------------

 OEINTS: Overlap, kinetic, potential, dipole, and quadrupole integrals
         stored in file 35.

  ==> Integral Setup <==

  ==> DFJK: Density-Fitted J/K Matrices <==

    J tasked:                  Yes
    K tasked:                  Yes
    wK tasked:                  No
    OpenMP threads:              1
    Integrals threads:           1
    Memory (MB):              1430
    Algorithm:                Core
    Integral Cache:           NONE
    Schwarz Cutoff:          1E-12
    Fitting Condition:       1E-12

   => Auxiliary Basis Set <=

  Basis Set: 
    Number of shells: 264
    Number of basis function: 848
    Number of Cartesian functions: 848
    Spherical Harmonics?: false
    Max angular momentum: 3

  Minimum eigenvalue in the overlap matrix is 1.1646057547E-03.
  Using Symmetric Orthogonalization.
  SCF Guess: Reading in previously saved MOs, projecting if necessary.

  Using orbitals from previous SCF, no projection.
  Recomputing DOCC and SOCC from number of alpha and beta electrons from previous calculation.
              A 
    DOCC [    29 ]

  ==> Iterations <==

                           Total Energy        Delta E     RMS |[F,P]|

   @DF-RHF iter   0:  -340.75841397222206   -3.40758e+02   3.17981e-05 
   @DF-RHF iter   1:  -340.75844798234817   -3.40101e-05   4.20748e-06 
   @DF-RHF iter   2:  -340.75844832940010   -3.47052e-07   1.45793e-06 DIIS
   @DF-RHF iter   3:  -340.75844838324264   -5.38425e-08   4.54049e-07 DIIS
   @DF-RHF iter   4:  -340.75844838660117   -3.35854e-09   2.01524e-07 DIIS
   @DF-RHF iter   5:  -340.75844838768268   -1.08150e-09   7.83591e-08 DIIS
   @DF-RHF iter   6:  -340.75844838793086   -2.48178e-10   2.66870e-08 DIIS
   @DF-RHF iter   7:  -340.75844838796121   -3.03544e-11   1.15577e-08 DIIS
   @DF-RHF iter   8:  -340.75844838796780   -6.59384e-12   4.30964e-09 DIIS

  ==> Post-Iterations <==

    Orbital Energies (a.u.)
    -----------------------

    Doubly Occupied:                                                      

       1A    -15.586940     2A    -15.582496     3A    -11.281127  
       4A    -11.276662     5A    -11.272336     6A    -11.272078  
       7A    -11.232897     8A    -11.217899     9A     -1.313532  
      10A     -1.222143    11A     -1.084553    12A     -1.013857  
      13A     -0.905150    14A     -0.893083    15A     -0.827909  
      16A     -0.716433    17A     -0.709744    18A     -0.659266  
      19A     -0.613203    20A     -0.602967    21A     -0.580033  
      22A     -0.560824    23A     -0.521989    24A     -0.505900  
      25A     -0.499943    26A     -0.486850    27A     -0.428689  
      28A     -0.395059    29A     -0.345345  

    Virtual:                                                              

      30A      0.103270    31A      0.134721    32A      0.245389  
      33A      0.272327    34A      0.278985    35A      0.301086  
      36A      0.316981    37A      0.320306    38A      0.325011  
      39A      0.337449    40A      0.351647    41A      0.379532  
      42A      0.412226    43A      0.436323    44A      0.500701  
      45A      0.512600    46A      0.556010    47A      0.628600  
      48A      0.660191    49A      0.716729    50A      0.719630  
      51A      0.742409    52A      0.746431    53A      0.765970  
      54A      0.779297    55A      0.807039    56A      0.827189  
      57A      0.838332    58A      0.867159    59A      0.880860  
      60A      0.921960    61A      0.951778    62A      0.968234  
      63A      1.004516    64A      1.030226    65A      1.064601  
      66A      1.079928    67A      1.081035    68A      1.094804  
      69A      1.111404    70A      1.132381    71A      1.139861  
      72A      1.156411    73A      1.169061    74A      1.180428  
      75A      1.216535    76A      1.228798    77A      1.244997  
      78A      1.254455    79A      1.269547    80A      1.333446  
      81A      1.341481    82A      1.394922    83A      1.492780  
      84A      1.520842    85A      1.575581    86A      1.610615  
      87A      1.646963    88A      1.710600    89A      1.767975  
      90A      1.778052    91A      1.786155    92A      1.796857  
      93A      1.831716    94A      1.947076    95A      1.996635  
      96A      2.029915    97A      2.079983    98A      2.141722  
      99A      2.155155   100A      2.189859   101A      2.237120  
     102A      2.279273   103A      2.312806   104A      2.330123  
     105A      2.413387   106A      2.485545   107A      2.508572  
     108A      2.549569   109A      2.571788   110A      2.598312  
     111A      2.606972   112A      2.650223   113A      2.675646  
     114A      2.712279   115A      2.715014   116A      2.734075  
     117A      2.802798   118A      2.874497   119A      2.922466  
     120A      2.967984   121A      3.035397   122A      3.103388  
     123A      3.136338   124A      3.170373   125A      3.221041  
     126A      3.265396   127A      3.499428   128A      3.843245  
     129A      4.369210   130A      4.502698   131A      4.557885  
     132A      4.618678   133A      4.710118   134A      4.800375  
     135A      4.895976   136A      4.985579  

    Final Occupation by Irrep:
              A 
    DOCC [    29 ]

  Energy converged.

  @DF-RHF Final Energy:  -340.75844838796780

   => Energetics <=

    Nuclear Repulsion Energy =            349.8397499921432541
    One-Electron Energy =               -1153.9785801112752779
    Two-Electron Energy =                 463.3803817311638227
    DFT Exchange-Correlation Energy =       0.0000000000000000
    Empirical Dispersion Energy =           0.0000000000000000
    PCM Polarization Energy =               0.0000000000000000
    EFP Energy =                            0.0000000000000000
    Total Energy =                       -340.7584483879682580

    Alert: EFP and PCM quantities not currently incorporated into SCF psivars.

Properties will be evaluated at   0.000000,   0.000000,   0.000000 Bohr
  ==> Properties <==


Properties computed using the SCF density matrix

  Nuclear Dipole Moment: (a.u.)
     X:     7.8863      Y:    -0.2832      Z:     0.8866

  Electronic Dipole Moment: (a.u.)
     X:    -7.6869      Y:     0.2120      Z:    -0.9080

  Dipole Moment: (a.u.)
     X:     0.1994      Y:    -0.0712      Z:    -0.0214     Total:     0.2128

  Dipole Moment: (Debye)
     X:     0.5068      Y:    -0.1810      Z:    -0.0544     Total:     0.5409


  Saving occupied orbitals to File 180.

*** tstop() called on cx1-3-6-2.cx1.hpc.ic.ac.uk at Tue Jul  5 16:27:11 2016
Module time:
	user time   =      10.83 seconds =       0.18 minutes
	system time =       0.05 seconds =       0.00 minutes
	total time  =         11 seconds =       0.18 minutes
Total time:
	user time   =      89.22 seconds =       1.49 minutes
	system time =       0.43 seconds =       0.01 minutes
	total time  =         91 seconds =       1.52 minutes

*** tstart() called on cx1-3-6-2.cx1.hpc.ic.ac.uk
*** at Tue Jul  5 16:27:11 2016


         ------------------------------------------------------------
                                   SCF GRAD                          
                          Rob Parrish, Justin Turney,                
                       Andy Simmonett, and Alex Sokolov              
         ------------------------------------------------------------

  ==> Geometry <==

    Molecular point group: c1
    Full point group: C1

    Geometry (in Angstrom), charge = 0, multiplicity = 1:

       Center              X                  Y                   Z               Mass       
    ------------   -----------------  -----------------  -----------------  -----------------
           H         -1.748660852303    -2.220942050279    -0.005015732809     1.007825032070
           C         -1.343207351665    -1.225220372649    -0.013879307542    12.000000000000
           N         -0.055090411133    -1.100173962949    -0.261126397662    14.003074004780
           C         -2.150779080059    -0.125889667621     0.222725832818    12.000000000000
           C          0.449969424300     0.122614855440    -0.277109255480    12.000000000000
           H         -3.200618297049    -0.238980083868     0.422495600606     1.007825032070
           N         -1.660212043744     1.097703488265     0.209593781824    14.003074004780
           C         -0.371804241337     1.219904572946    -0.038265561532    12.000000000000
           C          1.928146708746     0.267347009317    -0.541393846369    12.000000000000
           H          0.029131112997     2.217481986890    -0.051282916887     1.007825032070
           C          2.783232009225    -0.230498968468     0.628644310184    12.000000000000
           H          2.171709739835    -0.300097319139    -1.433328710273     1.007825032070
           H          2.158587655134     1.307343315698    -0.749912241565     1.007825032070
           H          3.839122364645    -0.137721830796     0.395220473434     1.007825032070
           H          2.571388597918    -1.272405076642     0.838485452255     1.007825032070
           H          2.586371967242     0.343190332998     1.528888084380     1.007825032070

  Nuclear repulsion =  349.839749992143254

  ==> Basis Set <==

  Basis Set: 6-31G*
    Number of shells: 64
    Number of basis function: 136
    Number of Cartesian functions: 136
    Spherical Harmonics?: false
    Max angular momentum: 2

  ==> DFJKGrad: Density-Fitted SCF Gradients <==

    Gradient:                    1
    J tasked:                  Yes
    K tasked:                  Yes
    wK tasked:                  No
    OpenMP threads:              1
    Integrals threads:           1
    Memory (MB):              1430
    Schwarz Cutoff:          0E+00
    Fitting Condition:       1E-12

   => Auxiliary Basis Set <=

  Basis Set: 
    Number of shells: 264
    Number of basis function: 848
    Number of Cartesian functions: 848
    Spherical Harmonics?: false
    Max angular momentum: 3


  -Total Gradient:
     Atom            X                  Y                   Z
    ------   -----------------  -----------------  -----------------
       1        0.000003174020     0.000050411593    -0.000031390055
       2       -0.000001216504    -0.000181039872     0.000106490615
       3       -0.000028157295     0.000014173707     0.000010537052
       4       -0.000047651947     0.000014893991    -0.000001007351
       5       -0.000007593509     0.000068904520    -0.000145481900
       6        0.000027931153    -0.000010803972    -0.000019633635
[...]
      14        0.000093841108     0.000010070557    -0.000027209825
      15       -0.000018429596    -0.000080043300    -0.000001711032
      16        0.000023014364    -0.000037186606    -0.000053977868


*** tstop() called on cx1-3-6-2.cx1.hpc.ic.ac.uk at Tue Jul  5 16:27:29 2016
Module time:
	user time   =      17.30 seconds =       0.29 minutes
	system time =       0.11 seconds =       0.00 minutes
	total time  =         18 seconds =       0.30 minutes
Total time:
	user time   =     106.52 seconds =       1.78 minutes
	system time =       0.54 seconds =       0.01 minutes
	total time  =        109 seconds =       1.82 minutes
CURRENT ENERGY: -340.7584483880

			-----------------------------------------
			 OPTKING 2.0: for geometry optimizations 
			  - R.A. King,  Bethel University        
			-----------------------------------------

	Previous internal coordinate definitions found.
	---Fragment 1 Geometry and Gradient---
	 H          -3.3044901102       -4.1969722320       -0.0094783614
	 C          -2.5382940343       -2.3153309567       -0.0262280902
	 N          -0.1041057896       -2.0790274885       -0.4934573776
	 C          -4.0643834337       -0.2378969948        0.4208908267
	 C           0.8503189801        0.2317084966       -0.5236606017
	 H          -6.0482920373       -0.4516069097        0.7984009775
	 N          -3.1373460852        2.0743589679        0.3960748468
	 C          -0.7026081912        2.3052855511       -0.0723114316
	 C           3.6436692236        0.5052126301       -1.0230860997
	 H           0.0550498255        4.1904336598       -0.0969106682
	 C           5.2595462617       -0.4355799243        1.1879655812
	 H           4.1039366484       -0.5671017464       -2.7085987208
	 H           4.0791395020        2.4705208283       -1.4171287603
	 H           7.2548898598       -0.2602565427        0.7468584569
	 H           4.8592202313       -2.4044971249        1.5845078712
	 H           4.8875346959        0.6485357408        2.8891797673
	             0.0000031740        0.0000504116       -0.0000313901
	            -0.0000012165       -0.0001810399        0.0001064906
	            -0.0000281573        0.0000141737        0.0000105371
	            -0.0000476519        0.0000148940       -0.0000010074
	            -0.0000075935        0.0000689045       -0.0001454819
	             0.0000279312       -0.0000108040       -0.0000196336
	            -0.0000597141        0.0000379752        0.0000037605
	             0.0000991661        0.0000715619        0.0000147949
	             0.0000315985       -0.0000362770        0.0000038773
	            -0.0000033332       -0.0000526109        0.0000164051
	            -0.0001015521        0.0001375757        0.0000972454
	            -0.0000139142        0.0000146887        0.0000043204
	             0.0000028371       -0.0000222943        0.0000229804
	             0.0000938411        0.0000100706       -0.0000272098
	            -0.0000184296       -0.0000800433       -0.0000017110
	             0.0000230144       -0.0000371866       -0.0000539779

	---Fragment 1 Intrafragment Coordinates---
	 - Coordinate -           - BOHR/RAD -       - ANG/DEG -
	 R(1,2)           =         2.031726	       1.075143
	 R(2,3)           =         2.489862	       1.317579
	 R(2,4)           =         2.616218	       1.384443
	 R(3,5)           =         2.500268	       1.323085
	 R(4,6)           =         2.030783	       1.074644
	 R(4,7)           =         2.491293	       1.318336
	 R(5,8)           =         2.629643	       1.391547
	 R(5,9)           =         2.850796	       1.508576
	 R(7,8)           =         2.490113	       1.317711
	 R(8,10)          =         2.031855	       1.075211
	 R(9,11)          =         2.895669	       1.532322
	 R(9,12)          =         2.050038	       1.084834
	 R(9,13)          =         2.051180	       1.085438
	 R(11,14)         =         2.051027	       1.085357
	 R(11,15)         =         2.047960	       1.083734
	 R(11,16)         =         2.051299	       1.085501
	 B(1,2,3)         =         2.046682	     117.266239
	 B(1,2,4)         =         2.110655	     120.931610
	 B(2,3,5)         =         2.052367	     117.591991
	 B(2,4,6)         =         2.115379	     121.202311
	 B(2,4,7)         =         2.115580	     121.213801
	 B(3,2,4)         =         2.125845	     121.801957
	 B(3,5,8)         =         2.095853	     120.083546
	 B(3,5,9)         =         2.054228	     117.698579
	 B(4,7,8)         =         2.039559	     116.858100
	 B(5,8,7)         =         2.137166	     122.450600
	 B(5,8,10)        =         2.105188	     120.618370
	 B(5,9,11)        =         1.962592	     112.448230
	 B(5,9,12)        =         1.890038	     108.291185
	 B(5,9,13)        =         1.910918	     109.487545
	 B(6,4,7)         =         2.052225	     117.583840
	 B(7,8,10)        =         2.040830	     116.930943
	 B(8,5,9)         =         2.133014	     122.212704
	 B(9,11,14)       =         1.929319	     110.541840
	 B(9,11,15)       =         1.929568	     110.556075
	 B(9,11,16)       =         1.939436	     111.121511
	 B(11,9,12)       =         1.909820	     109.424652
	 B(11,9,13)       =         1.917192	     109.846990
	 B(12,9,13)       =         1.870839	     107.191154
	 B(14,11,15)      =         1.890192	     108.300033
	 B(14,11,16)      =         1.885585	     108.036088
	 B(15,11,16)      =         1.888169	     108.184093
	 D(1,2,3,5)       =         3.138525	     179.824254
	 D(1,2,4,6)       =         0.001837	       0.105273
	 D(1,2,4,7)       =        -3.138340	    -179.813629
	 D(2,3,5,8)       =        -0.000065	      -0.003725
	 D(2,3,5,9)       =         3.127409	     179.187354
	 D(2,4,7,8)       =        -0.000070	      -0.003997
	 D(3,2,4,6)       =         3.140563	     179.941019
	 D(3,2,4,7)       =         0.000386	       0.022116
	 D(3,5,8,7)       =         0.000384	       0.021979
	 D(3,5,8,10)      =        -3.139284	    -179.867713
	 D(3,5,9,11)      =        -1.229411	     -70.440064
	 D(3,5,9,12)      =         0.883034	      50.594122
	 D(3,5,9,13)      =         2.917437	     167.156838
	 D(4,2,3,5)       =        -0.000301	      -0.017239
	 D(4,7,8,5)       =        -0.000301	      -0.017248
	 D(4,7,8,10)      =         3.139433	     179.876277
	 D(5,9,11,14)     =         3.114363	     178.439840
	 D(5,9,11,15)     =         1.021544	      58.530156
	 D(5,9,11,16)     =        -1.075345	     -61.612747
	 D(6,4,7,8)       =        -3.140296	    -179.925735
	 D(7,8,5,9)       =        -3.126434	    -179.131494
	 D(8,5,9,11)      =         1.897743	     108.732638
	 D(8,5,9,12)      =        -2.272998	    -130.233176
	 D(8,5,9,13)      =        -0.238595	     -13.670460
	 D(9,5,8,10)      =         0.017084	       0.978813
	 D(12,9,11,14)    =         1.013294	      58.057476
	 D(12,9,11,15)    =        -1.079525	     -61.852207
	 D(12,9,11,16)    =         3.106771	     178.004889
	 D(13,9,11,14)    =        -1.036032	     -59.360268
	 D(13,9,11,15)    =        -3.128851	    -179.269951
	 D(13,9,11,16)    =         1.057445	      60.587145

	Current energy   :      -340.7584483880

	Energy change for the previous step:
		Projected    :        -0.0000001548
		Actual       :        -0.0000006791
	Energy ratio indicates good step: Trust radius increased to 3.750e-01.


	Performing BFGS update.
	Previous computed or guess Hessian on step 1.
	Steps to be used in Hessian update: 2 1
	Taking RFO optimization step.
	Going to follow RFO solution 1.
	Using RFO vector 1.
	Norm of target step-size    0.00330
	Projected energy change by RFO approximation:        -0.0000003107

	Back-transformation to cartesian coordinates...
	Successfully converged to displaced geometry.

	--- Internal Coordinate Step in ANG or DEG, aJ/ANG or AJ/DEG ---
	 ---------------------------------------------------------------------------
	   Coordinate                Previous        Force       Change         New 
	   ----------                --------       ------       ------       ------
	    1 R(1,2)          =      1.075143     0.000397     0.000058     1.075201
	    2 R(2,3)          =      1.317579    -0.000110    -0.000015     1.317564
	    3 R(2,4)          =      1.384443    -0.000411    -0.000039     1.384404
	    4 R(3,5)          =      1.323085    -0.000455    -0.000031     1.323054
	    5 R(4,6)          =      1.074644     0.000246     0.000035     1.074679
	    6 R(4,7)          =      1.318336    -0.000552    -0.000053     1.318283
	    7 R(5,8)          =      1.391547     0.000071     0.000006     1.391553
	    8 R(5,9)          =      1.508576    -0.000064    -0.000014     1.508562
	    9 R(7,8)          =      1.317711    -0.000673    -0.000058     1.317653
	   10 R(8,10)         =      1.075211     0.000414     0.000060     1.075271
	   11 R(9,11)         =      1.532322     0.000006     0.000002     1.532324
	   12 R(9,12)         =      1.084834     0.000118     0.000016     1.084849
	   13 R(9,13)         =      1.085438     0.000207     0.000032     1.085470
	   14 R(11,14)        =      1.085357    -0.000807    -0.000122     1.085235
	   15 R(11,15)        =      1.083734    -0.000661    -0.000096     1.083639
	   16 R(11,16)        =      1.085501     0.000565     0.000088     1.085589
	   17 B(1,2,3)        =    117.266239    -0.000003    -0.008300   117.257939
	   18 B(1,2,4)        =    120.931610    -0.000001    -0.003142   120.928468
	   19 B(2,3,5)        =    117.591991    -0.000004    -0.009877   117.582114
	   20 B(2,4,6)        =    121.202311     0.000002     0.006772   121.209083
	   21 B(2,4,7)        =    121.213801    -0.000001    -0.004957   121.208844
	   22 B(3,2,4)        =    121.801957     0.000004     0.011536   121.813493
	   23 B(3,5,8)        =    120.083546    -0.000000     0.000210   120.083756
	   24 B(3,5,9)        =    117.698579     0.000001     0.001526   117.700106
	   25 B(4,7,8)        =    116.858100    -0.000000    -0.001526   116.856574
	   26 B(5,8,7)        =    122.450600     0.000002     0.004581   122.455181
	   27 B(5,8,10)       =    120.618370     0.000000     0.001317   120.619687
	   28 B(5,9,11)       =    112.448230    -0.000001     0.001684   112.449914
	   29 B(5,9,12)       =    108.291185     0.000001    -0.004109   108.287076
	   30 B(5,9,13)       =    109.487545    -0.000000     0.001774   109.489319
	   31 B(6,4,7)        =    117.583840    -0.000000    -0.001799   117.582042
	   32 B(7,8,10)       =    116.930943    -0.000002    -0.005906   116.925037
	   33 B(8,5,9)        =    122.212704    -0.000001    -0.000812   122.211892
	   34 B(9,11,14)      =    110.541840     0.000001     0.006078   110.547918
	   35 B(9,11,15)      =    110.556075     0.000002     0.006915   110.562990
	   36 B(9,11,16)      =    111.121511    -0.000002    -0.008051   111.113460
	   37 B(11,9,12)      =    109.424652    -0.000001    -0.008907   109.415746
	   38 B(11,9,13)      =    109.846990     0.000002     0.010967   109.857957
	   39 B(12,9,13)      =    107.191154    -0.000000    -0.001846   107.189308
	   40 B(14,11,15)     =    108.300033    -0.000001     0.001471   108.301504
	   41 B(14,11,16)     =    108.036088     0.000000    -0.000495   108.035593
	   42 B(15,11,16)     =    108.184093    -0.000001    -0.006109   108.177984
	   43 D(1,2,3,5)      =    179.824254     0.000000     0.030089   179.854343
	   44 D(1,2,4,6)      =      0.105273    -0.000000    -0.007263     0.098010
	   45 D(1,2,4,7)      =   -179.813629    -0.000000    -0.022851  -179.836480
	   46 D(2,3,5,8)      =     -0.003725    -0.000000    -0.016882    -0.020607
	   47 D(2,3,5,9)      =    179.187354     0.000001     0.058923   179.246277
	   48 D(2,4,7,8)      =     -0.003997    -0.000000     0.001659    -0.002338
	   49 D(3,2,4,6)      =    179.941019     0.000001     0.039177   179.980196
	   50 D(3,2,4,7)      =      0.022116     0.000000     0.023589     0.045705
	   51 D(3,5,8,7)      =      0.021979     0.000000     0.043265     0.065245
	   52 D(3,5,8,10)     =   -179.867713     0.000000     0.048023  -179.819690
	   53 D(3,5,9,11)     =    -70.440064    -0.000000    -0.046887   -70.486951
	   54 D(3,5,9,12)     =     50.594122    -0.000000    -0.059788    50.534335
	   55 D(3,5,9,13)     =    167.156838    -0.000000    -0.063326   167.093513
	   56 D(4,2,3,5)      =     -0.017239    -0.000000    -0.014731    -0.031970
	   57 D(4,7,8,5)      =     -0.017248    -0.000000    -0.034005    -0.051253
	   58 D(4,7,8,10)     =    179.876277    -0.000000    -0.038590   179.837687
	   59 D(5,9,11,14)    =    178.439840     0.000000    -0.028335   178.411505
	   60 D(5,9,11,15)    =     58.530156    -0.000000    -0.038596    58.491561
	   61 D(5,9,11,16)    =    -61.612747    -0.000000    -0.030209   -61.642956
	   62 D(6,4,7,8)      =   -179.925735    -0.000000    -0.013390  -179.939125
	   63 D(7,8,5,9)      =   -179.131494    -0.000000    -0.036082  -179.167576
	   64 D(8,5,9,11)     =    108.732638     0.000000     0.030649   108.763287
	   65 D(8,5,9,12)     =   -130.233176     0.000000     0.017748  -130.215428
	   66 D(8,5,9,13)     =    -13.670460     0.000000     0.014210   -13.656250
	   67 D(9,5,8,10)     =      0.978813    -0.000000    -0.031324     0.947489
	   68 D(12,9,11,14)   =     58.057476     0.000000    -0.018136    58.039340
	   69 D(12,9,11,15)   =    -61.852207    -0.000000    -0.028397   -61.880604
	   70 D(12,9,11,16)   =    178.004889     0.000000    -0.020010   177.984879
	   71 D(13,9,11,14)   =    -59.360268     0.000000    -0.017055   -59.377323
	   72 D(13,9,11,15)   =   -179.269951    -0.000000    -0.027316  -179.297267
	   73 D(13,9,11,16)   =     60.587145     0.000000    -0.018929    60.568216
	 ---------------------------------------------------------------------------

  ==> Convergence Check <==

  Measures of convergence in internal coordinates in au.
  Criteria marked as inactive (o), active & met (*), and active & unmet ( ).
  ---------------------------------------------------------------------------------------------
   Step     Total Energy     Delta E     MAX Force     RMS Force      MAX Disp      RMS Disp   
  ---------------------------------------------------------------------------------------------
    Convergence Criteria    1.00e-06 *    3.00e-04 *             o    1.20e-03 *             o
  ---------------------------------------------------------------------------------------------
      3    -340.75844839   -6.79e-07 *    9.80e-05 *    2.99e-05 o    1.11e-03 *    3.86e-04 o  ~
  ---------------------------------------------------------------------------------------------


  **** Optimization is complete! (in 3 steps) ****

  ==> Optimization Summary <==

  Measures of convergence in internal coordinates in au.
  --------------------------------------------------------------------------------------------------------------- ~
   Step         Total Energy             Delta E       MAX Force       RMS Force        MAX Disp        RMS Disp  ~
  --------------------------------------------------------------------------------------------------------------- ~
      1    -340.758445758567   -340.758445758567      0.00053589      0.00014615      0.00468849      0.00144541  ~
      2    -340.758447708850     -0.000001950283      0.00015358      0.00004263      0.00327624      0.00103915  ~
      3    -340.758448387968     -0.000000679118      0.00009801      0.00002991      0.00110524      0.00038575  ~
  --------------------------------------------------------------------------------------------------------------- ~

	Writing optimization data to binary file.
	Final energy is   -340.7584483879678
	Final (previous) structure:
	Cartesian Geometry (in Angstrom)
	    H    -1.7486609858  -2.2209422199  -0.0050157332
	    C    -1.3432074542  -1.2252204662  -0.0138793086
	    N    -0.0550904153  -1.1001740470  -0.2611264176
	    C    -2.1507792443  -0.1258896772   0.2227258498
	    C     0.4499694587   0.1226148648  -0.2771092766
	    H    -3.2006185415  -0.2389801021   0.4224956329
	    N    -1.6602121705   1.0977035721   0.2095937978
	    C    -0.3718042697   1.2199046661  -0.0382655645
	    C     1.9281468560   0.2673470297  -0.5413938877
	    H     0.0291311152   2.2174821562  -0.0512829208
	    C     2.7832322218  -0.2304989861   0.6286443582
	    H     2.1717099057  -0.3000973421  -1.4333288197
	    H     2.1585878200   1.3073434155  -0.7499122988
	    H     3.8391226578  -0.1377218413   0.3952205036
	    H     2.5713887943  -1.2724051738   0.8384855163
	    H     2.5863721647   0.3431903592   1.5288882011
	Saving final (previous) structure.
			--------------------------
			 OPTKING Finished Execution 
			--------------------------

    Final optimized geometry and variables:
    Molecular point group: c1
    Full point group: C1

    Geometry (in Angstrom), charge = 0, multiplicity = 1:

    H           -1.748660852303    -2.220942050279    -0.005015732809
    C           -1.343207351665    -1.225220372649    -0.013879307542
    N           -0.055090411133    -1.100173962949    -0.261126397662
    C           -2.150779080059    -0.125889667621     0.222725832818
    C            0.449969424300     0.122614855440    -0.277109255480
    H           -3.200618297049    -0.238980083868     0.422495600606
    N           -1.660212043744     1.097703488265     0.209593781824
    C           -0.371804241337     1.219904572946    -0.038265561532
    C            1.928146708746     0.267347009317    -0.541393846369
    H            0.029131112997     2.217481986890    -0.051282916887
    C            2.783232009225    -0.230498968468     0.628644310184
    H            2.171709739835    -0.300097319139    -1.433328710273
    H            2.158587655134     1.307343315698    -0.749912241565
    H            3.839122364645    -0.137721830796     0.395220473434
    H            2.571388597918    -1.272405076642     0.838485452255
    H            2.586371967242     0.343190332998     1.528888084380

	Cleaning optimization helper files.


Properties will be evaluated at   0.000000,   0.000000,   0.000000 Bohr

Properties computed using the  density matrix

  Nuclear Dipole Moment: (a.u.)
     X:     7.8863      Y:    -0.2832      Z:     0.8866

  Electronic Dipole Moment: (a.u.)
     X:    -7.6869      Y:     0.2120      Z:    -0.9080

  Dipole Moment: (a.u.)
     X:     0.1994      Y:    -0.0712      Z:    -0.0214     Total:     0.2128

  Dipole Moment: (Debye)
     X:     0.5068      Y:    -0.1810      Z:    -0.0544     Total:     0.5409

  Quadrupole Moment: (Debye Ang)
    XX:   -44.5999     YY:   -49.0573     ZZ:   -49.0812
    XY:     6.6254     XZ:    -0.5432     YZ:    -1.2534

  Traceless Quadrupole Moment: (Debye Ang)
    XX:     2.9796     YY:    -1.4779     ZZ:    -1.5018
    XY:     6.6254     XZ:    -0.5432     YZ:    -1.2534

  Mulliken Charges: (a.u.)
   Center  Symbol    Alpha    Beta     Spin     Total
       1     H     0.39377  0.39377  0.00000  0.21246
       2     C     2.99029  2.99029  0.00000  0.01941
       3     N     3.75273  3.75273  0.00000 -0.50545
       4     C     2.99780  2.99780  0.00000  0.00440
       5     C     2.87632  2.87632  0.00000  0.24736
       6     H     0.39425  0.39425  0.00000  0.21151
       7     N     3.72884  3.72884  0.00000 -0.45768
       8     C     2.99984  2.99984  0.00000  0.00033
       9     C     3.16753  3.16753  0.00000 -0.33506
      10     H     0.39507  0.39507  0.00000  0.20986
      11     C     3.24242  3.24242  0.00000 -0.48483
      12     H     0.40425  0.40425  0.00000  0.19150
      13     H     0.41476  0.41476  0.00000  0.17048
      14     H     0.41687  0.41687  0.00000  0.16626
      15     H     0.40677  0.40677  0.00000  0.18645
      16     H     0.41850  0.41850  0.00000  0.16300

   Total alpha = 29.00000, Total beta = 29.00000, Total charge =  0.00000


*** PSI4 exiting successfully. Buy a developer a beer!
