    -----------------------------------------------------------------------
          Psi4: An Open-Source Ab Initio Electronic Structure Package
                              Psi4 (no tag) Driver

                          Git: Rev {detached?}  

    J. M. Turney, A. C. Simmonett, R. M. Parrish, E. G. Hohenstein,
    F. A. Evangelista, J. T. Fermann, B. J. Mintz, L. A. Burns, J. J. Wilke,
    M. L. Abrams, N. J. Russ, M. L. Leininger, C. L. Janssen, E. T. Seidl,
    W. D. Allen, H. F. Schaefer, R. A. King, E. F. Valeev, C. D. Sherrill,
    and T. D. Crawford, WIREs Comput. Mol. Sci. 2, 556-565 (2012)
    (doi: 10.1002/wcms.93)

                         Additional Contributions by
    A. E. DePrince, M. Saitow, U. Bozkaya, A. Yu. Sokolov
    -----------------------------------------------------------------------


    Psi4 started on: Tue Jul  5 16:45:32 2016

    Process ID:  24441
    PSI4DATADIR: /export131/home/mjharvey/miniconda3/share
    Memory level set to 256.000 MB

  ==> Input File <==

--------------------------------------------------------------------------
set {
	reference rhf
	basis 6-31G*
}


set_num_threads( 1 )
memory 2 gb

molecule MOL {
0 1

H	 2.591676	 2.013956	 0.335017
O	 3.341076	 1.666752	 -0.126416
C	 3.569581	 0.339145	 0.272707
C	 2.539767	 -0.640285	 -0.279495
H	 4.553106	 0.084646	 -0.100901
H	 3.608576	 0.269204	 1.359154
C	 1.115811	 -0.397273	 0.226630
H	 2.556196	 -0.582511	 -1.364741
H	 2.852081	 -1.648031	 -0.010655
C	 0.115918	 -1.429151	 -0.302766
H	 0.797950	 0.599468	 -0.066350
H	 1.109961	 -0.420744	 1.316472
C	 0.413244	 -1.948728	 -1.714140
H	 0.069307	 -2.269419	 0.387615
H	 -0.875852	 -0.981835	 -0.302470
C	 1.693475	 -2.779376	 -1.838683
H	 -0.428042	 -2.557795	 -2.038319
H	 0.460354	 -1.107663	 -2.404233
C	 1.891659	 -3.362753	 -3.239337
H	 1.666806	 -3.591045	 -1.113015
H	 2.559466	 -2.172576	 -1.585396
C	 3.172137	 -4.187043	 -3.368130
H	 1.035847	 -3.983840	 -3.494923
H	 1.908827	 -2.553874	 -3.966871
H	 3.171003	 -5.023923	 -2.675415
H	 3.283009	 -4.588187	 -4.370840
H	 4.050259	 -3.584000	 -3.154580

	symmetry c1
}
set optking {
	frozen_dihedral = ("
		14 10 13 16,
		10 7 4 8,
		8 4 3 2,
		10 13 16 20,
		20 16 19 22,
		4 3 2 1
	")
}

ee = energy('scf')
oeprop('DIPOLE', 'QUADRUPOLE', 'MULLIKEN_CHARGES')
f=open( 'psi4out.xyz', 'w' )
f.write( "27  " )
f.write( str(ee) + "\n" )
f.write( MOL.save_string_xyz() )
f.close()
--------------------------------------------------------------------------

  Memory set to   2.000 GiB by Python script.

*** tstart() called on cx1-3-4-2.cx1.hpc.ic.ac.uk
*** at Tue Jul  5 16:45:32 2016


         ---------------------------------------------------------
                                   SCF
            by Justin Turney, Rob Parrish, and Andy Simmonett
                              RHF Reference
                        1 Threads,   2000 MiB Core
         ---------------------------------------------------------

  ==> Geometry <==

    Molecular point group: c1
    Full point group: C1

    Geometry (in Angstrom), charge = 0, multiplicity = 1:

       Center              X                  Y                   Z               Mass       
    ------------   -----------------  -----------------  -----------------  -----------------
           H          0.572065906812     3.386025776512     1.475156818034     1.007825032070
           O          1.321465906812     3.038821776512     1.013723818034    15.994914619560
           C          1.549970906812     1.711214776512     1.412846818034    12.000000000000
           C          0.520156906812     0.731784776512     0.860644818034    12.000000000000
           H          2.533495906812     1.456715776512     1.039238818034     1.007825032070
           H          1.588965906812     1.641273776512     2.499293818034     1.007825032070
           C         -0.903799093188     0.974796776512     1.366769818034    12.000000000000
           H          0.536585906812     0.789558776512    -0.224601181966     1.007825032070
           H          0.832470906812    -0.275961223488     1.129484818034     1.007825032070
           C         -1.903692093188    -0.057081223488     0.837373818034    12.000000000000
           H         -1.221660093188     1.971537776512     1.073789818034     1.007825032070
           H         -0.909649093188     0.951325776512     2.456611818034     1.007825032070
           C         -1.606366093188    -0.576658223488    -0.574000181966    12.000000000000
           H         -1.950303093188    -0.897349223488     1.527754818034     1.007825032070
           H         -2.895462093188     0.390234776512     0.837669818034     1.007825032070
           C         -0.326135093188    -1.407306223488    -0.698543181966    12.000000000000
           H         -2.447652093188    -1.185725223488    -0.898179181966     1.007825032070
           H         -1.559256093188     0.264406776512    -1.264093181966     1.007825032070
           C         -0.127951093188    -1.990683223488    -2.099197181966    12.000000000000
           H         -0.352804093188    -2.218975223488     0.027124818034     1.007825032070
           H          0.539855906812    -0.800506223488    -0.445256181966     1.007825032070
           C          1.152526906812    -2.814973223488    -2.227990181966    12.000000000000
           H         -0.983763093188    -2.611770223488    -2.354783181966     1.007825032070
           H         -0.110783093188    -1.181804223488    -2.826731181966     1.007825032070
           H          1.151392906812    -3.651853223488    -1.535275181966     1.007825032070
           H          1.263398906812    -3.216117223488    -3.230700181966     1.007825032070
           H          2.030648906812    -2.211930223488    -2.014440181966     1.007825032070

  Running in c1 symmetry.

  Rotational constants: A =      0.06952  B =      0.02435  C =      0.01954 [cm^-1]
  Rotational constants: A =   2084.22540  B =    730.13185  C =    585.84865 [MHz]
  Nuclear repulsion =  481.705850262421905

  Charge       = 0
  Multiplicity = 1
  Electrons    = 74
  Nalpha       = 37
  Nbeta        = 37

  ==> Algorithm <==

  SCF Algorithm Type is DF.
  DIIS enabled.
  MOM disabled.
  Fractional occupation disabled.
  Guess Type is CORE.
  Energy threshold   = 1.00e-06
  Density threshold  = 1.00e-06
  Integral threshold = 0.00e+00

  ==> Primary Basis <==

  Basis Set: 6-31G*
    Number of shells: 90
    Number of basis function: 171
    Number of Cartesian functions: 171
    Spherical Harmonics?: false
    Max angular momentum: 2

  ==> Pre-Iterations <==

   -------------------------------------------------------
    Irrep   Nso     Nmo     Nalpha   Nbeta   Ndocc  Nsocc
   -------------------------------------------------------
     A        171     171       0       0       0       0
   -------------------------------------------------------
    Total     171     171      37      37      37       0
   -------------------------------------------------------

 OEINTS: Overlap, kinetic, potential, dipole, and quadrupole integrals
         stored in file 35.

  ==> Integral Setup <==

  ==> DFJK: Density-Fitted J/K Matrices <==

    J tasked:                  Yes
    K tasked:                  Yes
    wK tasked:                  No
    OpenMP threads:              1
    Integrals threads:           1
    Memory (MB):              1430
    Algorithm:                Core
    Integral Cache:           NONE
    Schwarz Cutoff:          1E-12
    Fitting Condition:       1E-12

   => Auxiliary Basis Set <=

  Basis Set: 
    Number of shells: 378
    Number of basis function: 1179
    Number of Cartesian functions: 1179
    Spherical Harmonics?: false
    Max angular momentum: 3

  Minimum eigenvalue in the overlap matrix is 3.1898474361E-03.
  Using Symmetric Orthogonalization.
  SCF Guess: Core (One-Electron) Hamiltonian.

  ==> Iterations <==

                           Total Energy        Delta E     RMS |[F,P]|

   @DF-RHF iter   1:  -285.69245120835524   -2.85692e+02   6.02352e-02 
   @DF-RHF iter   2:     1.22998839056976    2.86922e+02   6.54371e-02 DIIS
   @DF-RHF iter   3:  -267.18905786069001   -2.68419e+02   5.03053e-02 DIIS
   @DF-RHF iter   4:  -257.48202635163000    9.70703e+00   6.35308e-02 DIIS
   @DF-RHF iter   5:  -377.88598279750374   -1.20404e+02   1.72197e-02 DIIS
   @DF-RHF iter   6:  -362.70448193194443    1.51815e+01   2.81700e-02 DIIS
   @DF-RHF iter   7:  -388.07796340385289   -2.53735e+01   3.35230e-03 DIIS
   @DF-RHF iter   8:  -388.22091227697297   -1.42949e-01   1.42916e-03 DIIS
   @DF-RHF iter   9:  -388.24706026133538   -2.61480e-02   3.46196e-04 DIIS
   @DF-RHF iter  10:  -388.24901841721555   -1.95816e-03   1.08171e-04 DIIS
   @DF-RHF iter  11:  -388.24929163439208   -2.73217e-04   3.63416e-05 DIIS
   @DF-RHF iter  12:  -388.24932106099436   -2.94266e-05   1.24083e-05 DIIS
   @DF-RHF iter  13:  -388.24932462414586   -3.56315e-06   4.55075e-06 DIIS
   @DF-RHF iter  14:  -388.24932515951707   -5.35371e-07   1.13179e-06 DIIS
   @DF-RHF iter  15:  -388.24932519714253   -3.76255e-08   2.88948e-07 DIIS

  ==> Post-Iterations <==

    Orbital Energies (a.u.)
    -----------------------

    Doubly Occupied:                                                      

       1A    -20.552117     2A    -11.265872     3A    -11.221039  
       4A    -11.217150     5A    -11.214306     6A    -11.213375  
       7A    -11.211423     8A    -11.206950     9A    -11.203230  
      10A     -1.358840    11A     -1.101900    12A     -1.054931  
      13A     -1.007474    14A     -0.954209    15A     -0.889608  
      16A     -0.835538    17A     -0.785536    18A     -0.777092  
      19A     -0.698079    20A     -0.652087    21A     -0.640569  
      22A     -0.611273    23A     -0.607948    24A     -0.584196  
      25A     -0.564056    26A     -0.560230    27A     -0.545010  
      28A     -0.530633    29A     -0.511025    30A     -0.498319  
      31A     -0.482197    32A     -0.469788    33A     -0.459750  
      34A     -0.458481    35A     -0.455787    36A     -0.433368  
      37A     -0.411229  

    Virtual:                                                              

      38A      0.217913    39A      0.226762    40A      0.240509  
      41A      0.254122    42A      0.269130    43A      0.288492  
      44A      0.293831    45A      0.304932    46A      0.316378  
      47A      0.322424    48A      0.325800    49A      0.339645  
      50A      0.344084    51A      0.345989    52A      0.353839  
      53A      0.358154    54A      0.367998    55A      0.386625  
      56A      0.411446    57A      0.415532    58A      0.423517  
      59A      0.443595    60A      0.451225    61A      0.465217  
      62A      0.491439    63A      0.513815    64A      0.702677  
      65A      0.716914    66A      0.727071    67A      0.740711  
      68A      0.753188    69A      0.763696    70A      0.792080  
      71A      0.819386    72A      0.825214    73A      0.873289  
      74A      0.880700    75A      0.884980    76A      0.907456  
      77A      0.948092    78A      0.950186    79A      0.981508  
      80A      0.996606    81A      1.027503    82A      1.037848  
      83A      1.081933    84A      1.086261    85A      1.107657  
      86A      1.125539    87A      1.138619    88A      1.143033  
      89A      1.149687    90A      1.167921    91A      1.176588  
      92A      1.182952    93A      1.189367    94A      1.193305  
      95A      1.205946    96A      1.209179    97A      1.216283  
      98A      1.223695    99A      1.229120   100A      1.242399  
     101A      1.252432   102A      1.269910   103A      1.280283  
     104A      1.292778   105A      1.317499   106A      1.342342  
     107A      1.361824   108A      1.412045   109A      1.474525  
     110A      1.505374   111A      1.584849   112A      1.653636  
     113A      1.681647   114A      1.700678   115A      1.755217  
     116A      1.770727   117A      1.826375   118A      1.837720  
     119A      1.879245   120A      1.932015   121A      1.951450  
     122A      2.000062   123A      2.043563   124A      2.066342  
     125A      2.090209   126A      2.114917   127A      2.165631  
     128A      2.202552   129A      2.214018   130A      2.238685  
     131A      2.257291   132A      2.294423   133A      2.297362  
     134A      2.333593   135A      2.342568   136A      2.361492  
     137A      2.399439   138A      2.401276   139A      2.448249  
     140A      2.466426   141A      2.505393   142A      2.552843  
     143A      2.612673   144A      2.617803   145A      2.638968  
     146A      2.663862   147A      2.709388   148A      2.718245  
     149A      2.732249   150A      2.764311   151A      2.781797  
     152A      2.795152   153A      2.843690   154A      2.901487  
     155A      2.939096   156A      2.948392   157A      3.002217  
     158A      3.084262   159A      3.084756   160A      3.154528  
     161A      3.182391   162A      3.222015   163A      4.188580  
     164A      4.563733   165A      4.622641   166A      4.712526  
     167A      4.749057   168A      4.836832   169A      4.862683  
     170A      4.991848   171A      5.031183  

    Final Occupation by Irrep:
              A 
    DOCC [    37 ]

  Energy converged.

  @DF-RHF Final Energy:  -388.24932519714253

   => Energetics <=

    Nuclear Repulsion Energy =            481.7058502624219045
    One-Electron Energy =               -1481.4211951204333673
    Two-Electron Energy =                 611.4660196608683691
    DFT Exchange-Correlation Energy =       0.0000000000000000
    Empirical Dispersion Energy =           0.0000000000000000
    PCM Polarization Energy =               0.0000000000000000
    EFP Energy =                            0.0000000000000000
    Total Energy =                       -388.2493251971430936

    Alert: EFP and PCM quantities not currently incorporated into SCF psivars.

Properties will be evaluated at   0.000000,   0.000000,   0.000000 Bohr
  ==> Properties <==


Properties computed using the SCF density matrix

  Nuclear Dipole Moment: (a.u.)
     X:    -1.2897      Y:    -6.9235      Z:    -2.5525

  Electronic Dipole Moment: (a.u.)
     X:     0.8471      Y:     6.5791      Z:     2.9967

  Dipole Moment: (a.u.)
     X:    -0.4426      Y:    -0.3444      Z:     0.4442     Total:     0.7154

  Dipole Moment: (Debye)
     X:    -1.1249      Y:    -0.8755      Z:     1.1291     Total:     1.8184


  Saving occupied orbitals to File 180.

*** tstop() called on cx1-3-4-2.cx1.hpc.ic.ac.uk at Tue Jul  5 16:46:14 2016
Module time:
	user time   =      40.90 seconds =       0.68 minutes
	system time =       0.36 seconds =       0.01 minutes
	total time  =         42 seconds =       0.70 minutes
Total time:
	user time   =      40.90 seconds =       0.68 minutes
	system time =       0.36 seconds =       0.01 minutes
	total time  =         42 seconds =       0.70 minutes


Properties will be evaluated at   0.000000,   0.000000,   0.000000 Bohr

Properties computed using the  density matrix

  Nuclear Dipole Moment: (a.u.)
     X:    -1.2897      Y:    -6.9235      Z:    -2.5525

  Electronic Dipole Moment: (a.u.)
     X:     0.8471      Y:     6.5791      Z:     2.9967

  Dipole Moment: (a.u.)
     X:    -0.4426      Y:    -0.3444      Z:     0.4442     Total:     0.7154

  Dipole Moment: (Debye)
     X:    -1.1249      Y:    -0.8755      Z:     1.1291     Total:     1.8184

  Quadrupole Moment: (Debye Ang)
    XX:   -62.2526     YY:   -64.8965     ZZ:   -58.0623
    XY:    -5.3846     XZ:    -0.3039     YZ:     1.8236

  Traceless Quadrupole Moment: (Debye Ang)
    XX:    -0.5154     YY:    -3.1594     ZZ:     3.6748
    XY:    -5.3846     XZ:    -0.3039     YZ:     1.8236

  Mulliken Charges: (a.u.)
   Center  Symbol    Alpha    Beta     Spin     Total
       1     H     0.27995  0.27995  0.00000  0.44010
       2     O     4.37137  4.37137  0.00000 -0.74274
       3     C     2.99395  2.99395  0.00000  0.01211
       4     C     3.18229  3.18229  0.00000 -0.36459
       5     H     0.41562  0.41562  0.00000  0.16875
       6     H     0.43266  0.43266  0.00000  0.13467
       7     C     3.15819  3.15819  0.00000 -0.31639
       8     H     0.40643  0.40643  0.00000  0.18713
       9     H     0.41607  0.41607  0.00000  0.16787
      10     C     3.15373  3.15373  0.00000 -0.30746
      11     H     0.42381  0.42381  0.00000  0.15238
      12     H     0.42227  0.42227  0.00000  0.15546
      13     C     3.16019  3.16019  0.00000 -0.32039
      14     H     0.42212  0.42212  0.00000  0.15576
      15     H     0.41919  0.41919  0.00000  0.16161
      16     C     3.15781  3.15781  0.00000 -0.31561
      17     H     0.41942  0.41942  0.00000  0.16117
      18     H     0.42207  0.42207  0.00000  0.15586
      19     C     3.14944  3.14944  0.00000 -0.29887
      20     H     0.42678  0.42678  0.00000  0.14643
      21     H     0.41384  0.41384  0.00000  0.17232
      22     C     3.23896  3.23896  0.00000 -0.47792
      23     H     0.42473  0.42473  0.00000  0.15054
      24     H     0.42429  0.42429  0.00000  0.15142
      25     H     0.42256  0.42256  0.00000  0.15489
      26     H     0.41943  0.41943  0.00000  0.16114
      27     H     0.42281  0.42281  0.00000  0.15437

   Total alpha = 37.00000, Total beta = 37.00000, Total charge =  0.00000


*** PSI4 exiting successfully. Buy a developer a beer!
