    -----------------------------------------------------------------------
          Psi4: An Open-Source Ab Initio Electronic Structure Package
                              Psi4 (no tag) Driver

                          Git: Rev {detached?}  

    J. M. Turney, A. C. Simmonett, R. M. Parrish, E. G. Hohenstein,
    F. A. Evangelista, J. T. Fermann, B. J. Mintz, L. A. Burns, J. J. Wilke,
    M. L. Abrams, N. J. Russ, M. L. Leininger, C. L. Janssen, E. T. Seidl,
    W. D. Allen, H. F. Schaefer, R. A. King, E. F. Valeev, C. D. Sherrill,
    and T. D. Crawford, WIREs Comput. Mol. Sci. 2, 556-565 (2012)
    (doi: 10.1002/wcms.93)

                         Additional Contributions by
    A. E. DePrince, M. Saitow, U. Bozkaya, A. Yu. Sokolov
    -----------------------------------------------------------------------


    Psi4 started on: Tue Jul  5 16:45:31 2016

    Process ID:   4393
    PSI4DATADIR: /export131/home/mjharvey/miniconda3/share
    Memory level set to 256.000 MB

  ==> Input File <==

--------------------------------------------------------------------------
set {
	reference rhf
	basis 6-31G*
}


set_num_threads( 1 )
memory 2 gb

molecule MOL {
0 1

H	 -2.594719	 0.463552	 1.078468
C	 -1.913712	 -0.170256	 0.513969
O	 -1.020556	 -0.830459	 1.351670
H	 -2.487940	 -0.922876	 -0.008494
H	 -1.394831	 0.447074	 -0.218216
C	 -0.200255	 0.017064	 2.091979
C	 1.244560	 -0.262687	 1.750721
H	 -0.427560	 1.058853	 1.862404
H	 -0.352011	 -0.132141	 3.159083
O	 1.392611	 -0.295398	 0.366430
H	 1.872653	 0.510224	 2.189028
H	 1.536610	 -1.219695	 2.184930
C	 2.706965	 -0.449871	 -0.062409
H	 2.756559	 -0.644779	 -1.131878
H	 3.305899	 0.433456	 0.155466
H	 3.125548	 -1.294566	 0.467107

	symmetry c1
}
set optking {
	frozen_dihedral = ("
		3 6 7 11,
		7 10 13 14
	")
}

ee = energy('scf')
oeprop('DIPOLE', 'QUADRUPOLE', 'MULLIKEN_CHARGES')
f=open( 'psi4out.xyz', 'w' )
f.write( "16  " )
f.write( str(ee) + "\n" )
f.write( MOL.save_string_xyz() )
f.close()
--------------------------------------------------------------------------

  Memory set to   2.000 GiB by Python script.

*** tstart() called on cx1-3-2-2.cx1.hpc.ic.ac.uk
*** at Tue Jul  5 16:45:32 2016


         ---------------------------------------------------------
                                   SCF
            by Justin Turney, Rob Parrish, and Andy Simmonett
                              RHF Reference
                        1 Threads,   2000 MiB Core
         ---------------------------------------------------------

  ==> Geometry <==

    Molecular point group: c1
    Full point group: C1

    Geometry (in Angstrom), charge = 0, multiplicity = 1:

       Center              X                  Y                   Z               Mass       
    ------------   -----------------  -----------------  -----------------  -----------------
           H         -2.965368395666     0.793392097653     0.092257562228     1.007825032070
           C         -2.284361395666     0.159584097653    -0.472241437772    12.000000000000
           O         -1.391205395666    -0.500618902347     0.365459562228    15.994914619560
           H         -2.858589395666    -0.593035902347    -0.994704437772     1.007825032070
           H         -1.765480395666     0.776914097653    -1.204426437772     1.007825032070
           C         -0.570904395666     0.346904097653     1.105768562228    12.000000000000
           C          0.873910604334     0.067153097653     0.764510562228    12.000000000000
           H         -0.798209395666     1.388693097653     0.876193562228     1.007825032070
           H         -0.722660395666     0.197699097653     2.172872562228     1.007825032070
           O          1.021961604334     0.034442097653    -0.619780437772    15.994914619560
           H          1.502003604334     0.840064097653     1.202817562228     1.007825032070
           H          1.165960604334    -0.889854902347     1.198719562228     1.007825032070
           C          2.336315604334    -0.120030902347    -1.048619437772    12.000000000000
           H          2.385909604334    -0.314938902347    -2.118088437772     1.007825032070
           H          2.935249604334     0.763296097653    -0.830744437772     1.007825032070
           H          2.754898604334    -0.964725902347    -0.519103437772     1.007825032070

  Running in c1 symmetry.

  Rotational constants: A =      0.25111  B =      0.06582  C =      0.05645 [cm^-1]
  Rotational constants: A =   7528.09423  B =   1973.24772  C =   1692.42111 [MHz]
  Nuclear repulsion =  263.896130939805630

  Charge       = 0
  Multiplicity = 1
  Electrons    = 50
  Nalpha       = 25
  Nbeta        = 25

  ==> Algorithm <==

  SCF Algorithm Type is DF.
  DIIS enabled.
  MOM disabled.
  Fractional occupation disabled.
  Guess Type is CORE.
  Energy threshold   = 1.00e-06
  Density threshold  = 1.00e-06
  Integral threshold = 0.00e+00

  ==> Primary Basis <==

  Basis Set: 6-31G*
    Number of shells: 56
    Number of basis function: 110
    Number of Cartesian functions: 110
    Spherical Harmonics?: false
    Max angular momentum: 2

  ==> Pre-Iterations <==

   -------------------------------------------------------
    Irrep   Nso     Nmo     Nalpha   Nbeta   Ndocc  Nsocc
   -------------------------------------------------------
     A        110     110       0       0       0       0
   -------------------------------------------------------
    Total     110     110      25      25      25       0
   -------------------------------------------------------

 OEINTS: Overlap, kinetic, potential, dipole, and quadrupole integrals
         stored in file 35.

  ==> Integral Setup <==

  ==> DFJK: Density-Fitted J/K Matrices <==

    J tasked:                  Yes
    K tasked:                  Yes
    wK tasked:                  No
    OpenMP threads:              1
    Integrals threads:           1
    Memory (MB):              1430
    Algorithm:                Core
    Integral Cache:           NONE
    Schwarz Cutoff:          1E-12
    Fitting Condition:       1E-12

   => Auxiliary Basis Set <=

  Basis Set: 
    Number of shells: 234
    Number of basis function: 736
    Number of Cartesian functions: 736
    Spherical Harmonics?: false
    Max angular momentum: 3

  Minimum eigenvalue in the overlap matrix is 4.2326475916E-03.
  Using Symmetric Orthogonalization.
  SCF Guess: Core (One-Electron) Hamiltonian.

  ==> Iterations <==

                           Total Energy        Delta E     RMS |[F,P]|

   @DF-RHF iter   1:  -241.72109785077043   -2.41721e+02   7.72765e-02 
   @DF-RHF iter   2:  -212.97332972599565    2.87478e+01   6.13826e-02 DIIS
   @DF-RHF iter   3:  -269.21025080960624   -5.62369e+01   5.24665e-02 DIIS
   @DF-RHF iter   4:  -305.15524369014236   -3.59450e+01   1.83623e-02 DIIS
   @DF-RHF iter   5:  -306.65425935844382   -1.49902e+00   7.45289e-03 DIIS
   @DF-RHF iter   6:  -306.94799974471607   -2.93740e-01   1.72643e-03 DIIS
   @DF-RHF iter   7:  -306.96872945065684   -2.07297e-02   5.15262e-04 DIIS
   @DF-RHF iter   8:  -306.97074886766711   -2.01942e-03   2.03775e-04 DIIS
   @DF-RHF iter   9:  -306.97104249289816   -2.93625e-04   8.17447e-05 DIIS
   @DF-RHF iter  10:  -306.97109173884132   -4.92459e-05   2.55122e-05 DIIS
   @DF-RHF iter  11:  -306.97109662450987   -4.88567e-06   5.77531e-06 DIIS
   @DF-RHF iter  12:  -306.97109685479620   -2.30286e-07   1.70735e-06 DIIS
   @DF-RHF iter  13:  -306.97109687822467   -2.34285e-08   4.50200e-07 DIIS

  ==> Post-Iterations <==

    Orbital Energies (a.u.)
    -----------------------

    Doubly Occupied:                                                      

       1A    -20.553642     2A    -20.547571     3A    -11.268512  
       4A    -11.267658     5A    -11.265381     6A    -11.257638  
       7A     -1.389037     8A     -1.365627     9A     -1.028357  
      10A     -0.935630    11A     -0.892897    12A     -0.820557  
      13A     -0.683060    14A     -0.680406    15A     -0.658043  
      16A     -0.632997    17A     -0.621181    18A     -0.599414  
      19A     -0.554049    20A     -0.530723    21A     -0.511416  
      22A     -0.471194    23A     -0.467433    24A     -0.415874  
      25A     -0.403348  

    Virtual:                                                              

      26A      0.237470    27A      0.256105    28A      0.281735  
      29A      0.294662    30A      0.307762    31A      0.318468  
      32A      0.331720    33A      0.334245    34A      0.338626  
      35A      0.346081    36A      0.357545    37A      0.373009  
      38A      0.435895    39A      0.450478    40A      0.468333  
      41A      0.729490    42A      0.750892    43A      0.768897  
      44A      0.787734    45A      0.794543    46A      0.816884  
      47A      0.823947    48A      0.850408    49A      0.883565  
      50A      0.924708    51A      0.963176    52A      1.029247  
      53A      1.067860    54A      1.107854    55A      1.125992  
      56A      1.140718    57A      1.148065    58A      1.152974  
      59A      1.172109    60A      1.183445    61A      1.203736  
      62A      1.217871    63A      1.239862    64A      1.254440  
      65A      1.315835    66A      1.362206    67A      1.394536  
      68A      1.425486    69A      1.450190    70A      1.572993  
      71A      1.654545    72A      1.672090    73A      1.712468  
      74A      1.729650    75A      1.777682    76A      1.829263  
      77A      1.886452    78A      1.949747    79A      2.054264  
      80A      2.069760    81A      2.184492    82A      2.245081  
      83A      2.282339    84A      2.398139    85A      2.410753  
      86A      2.437035    87A      2.463527    88A      2.484940  
      89A      2.490759    90A      2.497279    91A      2.567135  
      92A      2.574279    93A      2.618379    94A      2.697108  
      95A      2.736658    96A      2.807871    97A      2.855607  
      98A      2.887630    99A      2.908004   100A      3.052760  
     101A      3.155545   102A      3.216664   103A      3.289061  
     104A      3.372588   105A      4.337736   106A      4.434267  
     107A      4.629274   108A      4.681605   109A      4.705962  
     110A      4.894893  

    Final Occupation by Irrep:
              A 
    DOCC [    25 ]

  Energy converged.

  @DF-RHF Final Energy:  -306.97109687822467

   => Energetics <=

    Nuclear Repulsion Energy =            263.8961309398056301
    One-Electron Energy =                -942.0910805644692800
    Two-Electron Energy =                 371.2238527464392632
    DFT Exchange-Correlation Energy =       0.0000000000000000
    Empirical Dispersion Energy =           0.0000000000000000
    PCM Polarization Energy =               0.0000000000000000
    EFP Energy =                            0.0000000000000000
    Total Energy =                       -306.9710968782243867

    Alert: EFP and PCM quantities not currently incorporated into SCF psivars.

Properties will be evaluated at   0.000000,   0.000000,   0.000000 Bohr
  ==> Properties <==


Properties computed using the SCF density matrix

  Nuclear Dipole Moment: (a.u.)
     X:     1.5298      Y:     1.8704      Z:    -0.1177

  Electronic Dipole Moment: (a.u.)
     X:    -1.1259      Y:    -1.3484      Z:     0.3429

  Dipole Moment: (a.u.)
     X:     0.4039      Y:     0.5219      Z:     0.2253     Total:     0.6973

  Dipole Moment: (Debye)
     X:     1.0266      Y:     1.3266      Z:     0.5726     Total:     1.7724


  Saving occupied orbitals to File 180.

*** tstop() called on cx1-3-2-2.cx1.hpc.ic.ac.uk at Tue Jul  5 16:45:39 2016
Module time:
	user time   =       6.56 seconds =       0.11 minutes
	system time =       0.05 seconds =       0.00 minutes
	total time  =          7 seconds =       0.12 minutes
Total time:
	user time   =       6.56 seconds =       0.11 minutes
	system time =       0.05 seconds =       0.00 minutes
	total time  =          7 seconds =       0.12 minutes


Properties will be evaluated at   0.000000,   0.000000,   0.000000 Bohr

Properties computed using the  density matrix

  Nuclear Dipole Moment: (a.u.)
     X:     1.5298      Y:     1.8704      Z:    -0.1177

  Electronic Dipole Moment: (a.u.)
     X:    -1.1259      Y:    -1.3484      Z:     0.3429

  Dipole Moment: (a.u.)
     X:     0.4039      Y:     0.5219      Z:     0.2253     Total:     0.6973

  Dipole Moment: (Debye)
     X:     1.0266      Y:     1.3266      Z:     0.5726     Total:     1.7724

  Quadrupole Moment: (Debye Ang)
    XX:   -33.0507     YY:   -39.0549     ZZ:   -36.0394
    XY:    -2.2551     XZ:     0.6601     YZ:     1.0336

  Traceless Quadrupole Moment: (Debye Ang)
    XX:     2.9976     YY:    -3.0065     ZZ:     0.0089
    XY:    -2.2551     XZ:     0.6601     YZ:     1.0336

  Mulliken Charges: (a.u.)
   Center  Symbol    Alpha    Beta     Spin     Total
       1     H     0.43277  0.43277  0.00000  0.13446
       2     C     3.08053  3.08053  0.00000 -0.16106
       3     O     4.29914  4.29914  0.00000 -0.59828
       4     H     0.41417  0.41417  0.00000  0.17165
       5     H     0.42172  0.42172  0.00000  0.15656
       6     C     3.00010  3.00010  0.00000 -0.00021
       7     C     2.99177  2.99177  0.00000  0.01646
       8     H     0.42661  0.42661  0.00000  0.14678
       9     H     0.42193  0.42193  0.00000  0.15614
      10     O     4.30091  4.30091  0.00000 -0.60182
      11     H     0.43361  0.43361  0.00000  0.13277
      12     H     0.42632  0.42632  0.00000  0.14735
      13     C     3.07823  3.07823  0.00000 -0.15646
      14     H     0.41188  0.41188  0.00000  0.17624
      15     H     0.43078  0.43078  0.00000  0.13844
      16     H     0.42952  0.42952  0.00000  0.14096

   Total alpha = 25.00000, Total beta = 25.00000, Total charge =  0.00000


*** PSI4 exiting successfully. Buy a developer a beer!
