    -----------------------------------------------------------------------
          Psi4: An Open-Source Ab Initio Electronic Structure Package
                              Psi4 (no tag) Driver

                          Git: Rev {detached?}  

    J. M. Turney, A. C. Simmonett, R. M. Parrish, E. G. Hohenstein,
    F. A. Evangelista, J. T. Fermann, B. J. Mintz, L. A. Burns, J. J. Wilke,
    M. L. Abrams, N. J. Russ, M. L. Leininger, C. L. Janssen, E. T. Seidl,
    W. D. Allen, H. F. Schaefer, R. A. King, E. F. Valeev, C. D. Sherrill,
    and T. D. Crawford, WIREs Comput. Mol. Sci. 2, 556-565 (2012)
    (doi: 10.1002/wcms.93)

                         Additional Contributions by
    A. E. DePrince, M. Saitow, U. Bozkaya, A. Yu. Sokolov
    -----------------------------------------------------------------------


    Psi4 started on: Tue Jul  5 16:41:05 2016

    Process ID:   9813
    PSI4DATADIR: /export131/home/mjharvey/miniconda3/share
    Memory level set to 256.000 MB

  ==> Input File <==

--------------------------------------------------------------------------
set {
	reference rhf
	basis 6-31G*
}


set_num_threads( 1 )
memory 2 gb

molecule MOL {
0 1

O	 1.846825	 1.296220	 0.000415
C	 1.705091	 0.115954	 0.001797
C	 0.381791	 -0.609817	 0.001258
O	 2.721346	 -0.737485	 -0.000216
C	 -0.823008	 0.326187	 0.001381
H	 0.371250	 -1.265087	 -0.865474
H	 0.370908	 -1.265746	 0.867490
C	 -2.149452	 -0.435131	 -0.000098
H	 -0.770201	 0.977095	 -0.865636
H	 -0.771220	 0.975655	 0.869608
C	 -3.368779	 0.488503	 -0.000883
H	 -2.193746	 -1.087250	 -0.871175
H	 -2.195311	 -1.087803	 0.870418
C	 -4.547641	 -0.079102	 0.788649
H	 -3.677432	 0.675084	 -1.027071
H	 -3.087997	 1.454328	 0.413220
H	 -4.874393	 -1.029790	 0.376777
H	 -5.395837	 0.598137	 0.769632
H	 -4.280095	 -0.244792	 1.828494
C	 4.024888	 -0.184556	 -0.001949
H	 4.179030	 0.422472	 -0.882452
H	 4.701782	 -1.024608	 -0.003642
H	 4.181981	 0.421185	 0.878906

	symmetry c1
}
set optking {
	frozen_dihedral = ("
		9 5 8 12,
		1 2 3 6,
		9 5 3 6,
		1 2 4 20
	")
}

ee = energy('scf')
oeprop('DIPOLE', 'QUADRUPOLE', 'MULLIKEN_CHARGES')
f=open( 'psi4out.xyz', 'w' )
f.write( "23  " )
f.write( str(ee) + "\n" )
f.write( MOL.save_string_xyz() )
f.close()
--------------------------------------------------------------------------

  Memory set to   2.000 GiB by Python script.

*** tstart() called on cx1-1-1-4.cx1.hpc.ic.ac.uk
*** at Tue Jul  5 16:41:06 2016


         ---------------------------------------------------------
                                   SCF
            by Justin Turney, Rob Parrish, and Andy Simmonett
                              RHF Reference
                        1 Threads,   2000 MiB Core
         ---------------------------------------------------------

  ==> Geometry <==

    Molecular point group: c1
    Full point group: C1

    Geometry (in Angstrom), charge = 0, multiplicity = 1:

       Center              X                  Y                   Z               Mass       
    ------------   -----------------  -----------------  -----------------  -----------------
           O          1.829947704636     1.273862746526    -0.090766049521    15.994914619560
           C          1.688213704636     0.093596746526    -0.089384049521    12.000000000000
           C          0.364913704636    -0.632174253474    -0.089923049521    12.000000000000
           O          2.704468704636    -0.759842253474    -0.091397049521    15.994914619560
           C         -0.839885295364     0.303829746526    -0.089800049521    12.000000000000
           H          0.354372704636    -1.287444253474    -0.956655049521     1.007825032070
           H          0.354030704636    -1.288103253474     0.776308950479     1.007825032070
           C         -2.166329295364    -0.457488253474    -0.091279049521    12.000000000000
           H         -0.787078295364     0.954737746526    -0.956817049521     1.007825032070
           H         -0.788097295364     0.953297746526     0.778426950479     1.007825032070
           C         -3.385656295364     0.466145746526    -0.092064049521    12.000000000000
           H         -2.210623295364    -1.109607253474    -0.962356049521     1.007825032070
           H         -2.212188295364    -1.110160253474     0.779236950479     1.007825032070
           C         -4.564518295364    -0.101459253474     0.697467950479    12.000000000000
           H         -3.694309295364     0.652726746526    -1.118252049521     1.007825032070
           H         -3.104874295364     1.431970746526     0.322038950479     1.007825032070
           H         -4.891270295364    -1.052147253474     0.285595950479     1.007825032070
           H         -5.412714295364     0.575779746526     0.678450950479     1.007825032070
           H         -4.296972295364    -0.267149253474     1.737312950479     1.007825032070
           C          4.008010704636    -0.206913253474    -0.093130049521    12.000000000000
           H          4.162152704636     0.400114746526    -0.973633049521     1.007825032070
           H          4.684904704636    -1.046965253474    -0.094823049521     1.007825032070
           H          4.165103704636     0.398827746526     0.787724950479     1.007825032070

  Running in c1 symmetry.

  Rotational constants: A =      0.22560  B =      0.01631  C =      0.01563 [cm^-1]
  Rotational constants: A =   6763.18859  B =    488.97613  C =    468.47714 [MHz]
  Nuclear repulsion =  452.716135314765779

  Charge       = 0
  Multiplicity = 1
  Electrons    = 72
  Nalpha       = 36
  Nbeta        = 36

  ==> Algorithm <==

  SCF Algorithm Type is DF.
  DIIS enabled.
  MOM disabled.
  Fractional occupation disabled.
  Guess Type is CORE.
  Energy threshold   = 1.00e-06
  Density threshold  = 1.00e-06
  Integral threshold = 0.00e+00

  ==> Primary Basis <==

  Basis Set: 6-31G*
    Number of shells: 82
    Number of basis function: 163
    Number of Cartesian functions: 163
    Spherical Harmonics?: false
    Max angular momentum: 2

  ==> Pre-Iterations <==

   -------------------------------------------------------
    Irrep   Nso     Nmo     Nalpha   Nbeta   Ndocc  Nsocc
   -------------------------------------------------------
     A        163     163       0       0       0       0
   -------------------------------------------------------
    Total     163     163      36      36      36       0
   -------------------------------------------------------

 OEINTS: Overlap, kinetic, potential, dipole, and quadrupole integrals
         stored in file 35.

  ==> Integral Setup <==

  ==> DFJK: Density-Fitted J/K Matrices <==

    J tasked:                  Yes
    K tasked:                  Yes
    wK tasked:                  No
    OpenMP threads:              1
    Integrals threads:           1
    Memory (MB):              1430
    Algorithm:                Core
    Integral Cache:           NONE
    Schwarz Cutoff:          1E-12
    Fitting Condition:       1E-12

   => Auxiliary Basis Set <=

  Basis Set: 
    Number of shells: 342
    Number of basis function: 1079
    Number of Cartesian functions: 1079
    Spherical Harmonics?: false
    Max angular momentum: 3

  Minimum eigenvalue in the overlap matrix is 2.4648857968E-03.
  Using Symmetric Orthogonalization.
  SCF Guess: Core (One-Electron) Hamiltonian.

  ==> Iterations <==

                           Total Energy        Delta E     RMS |[F,P]|

   @DF-RHF iter   1:  -273.83586054903617   -2.73836e+02   6.78591e-02 
   @DF-RHF iter   2:    27.46408139279453    3.01300e+02   8.67940e-02 DIIS
   @DF-RHF iter   3:  -230.58084954793230   -2.58045e+02   6.31318e-02 DIIS
   @DF-RHF iter   4:  -266.74792527363059   -3.61671e+01   6.03951e-02 DIIS
   @DF-RHF iter   5:  -393.67840075044046   -1.26930e+02   3.74398e-02 DIIS
   @DF-RHF iter   6:  -422.22659052676818   -2.85482e+01   7.56505e-03 DIIS
   @DF-RHF iter   7:  -422.81859336212540   -5.92003e-01   3.88421e-03 DIIS
   @DF-RHF iter   8:  -422.96012811560331   -1.41535e-01   9.83518e-04 DIIS
   @DF-RHF iter   9:  -422.97160995370791   -1.14818e-02   2.58243e-04 DIIS
   @DF-RHF iter  10:  -422.97257745445143   -9.67501e-04   9.85888e-05 DIIS
   @DF-RHF iter  11:  -422.97273884569495   -1.61391e-04   3.32343e-05 DIIS
   @DF-RHF iter  12:  -422.97276732609726   -2.84804e-05   9.23092e-06 DIIS
   @DF-RHF iter  13:  -422.97276958230270   -2.25621e-06   3.59910e-06 DIIS
   @DF-RHF iter  14:  -422.97276994574270   -3.63440e-07   1.37931e-06 DIIS
   @DF-RHF iter  15:  -422.97277001735188   -7.16092e-08   3.55976e-07 DIIS

  ==> Post-Iterations <==

    Orbital Energies (a.u.)
    -----------------------

    Doubly Occupied:                                                      

       1A    -20.603569     2A    -20.545371     3A    -11.372190  
       4A    -11.280815     5A    -11.235244     6A    -11.219492  
       7A    -11.216862     8A    -11.215392     9A    -11.209682  
      10A     -1.469270    11A     -1.362713    12A     -1.093207  
      13A     -1.043458    14A     -0.986802    15A     -0.931858  
      16A     -0.844431    17A     -0.794593    18A     -0.767387  
      19A     -0.696726    20A     -0.683638    21A     -0.671657  
      22A     -0.649006    23A     -0.610671    24A     -0.599365  
      25A     -0.574103    26A     -0.565066    27A     -0.549079  
      28A     -0.524667    29A     -0.521478    30A     -0.505699  
      31A     -0.489197    32A     -0.468798    33A     -0.462619  
      34A     -0.460048    35A     -0.455028    36A     -0.435284  

    Virtual:                                                              

      37A      0.199614    38A      0.226638    39A      0.247550  
      40A      0.264346    41A      0.277036    42A      0.280888  
      43A      0.303379    44A      0.313145    45A      0.314991  
      46A      0.323212    47A      0.324883    48A      0.331002  
      49A      0.333500    50A      0.342818    51A      0.352454  
      52A      0.372609    53A      0.393779    54A      0.424048  
      55A      0.447781    56A      0.463782    57A      0.495531  
      58A      0.539786    59A      0.585316    60A      0.706579  
      61A      0.726004    62A      0.728527    63A      0.751602  
      64A      0.756403    65A      0.764104    66A      0.773258  
      67A      0.797618    68A      0.816904    69A      0.834751  
      70A      0.850939    71A      0.881015    72A      0.925683  
      73A      0.941845    74A      0.967461    75A      0.980087  
      76A      1.011930    77A      1.026344    78A      1.036304  
      79A      1.096928    80A      1.109151    81A      1.120759  
      82A      1.125035    83A      1.131875    84A      1.137278  
      85A      1.160010    86A      1.170076    87A      1.176246  
      88A      1.179026    89A      1.191130    90A      1.207100  
      91A      1.217005    92A      1.222139    93A      1.231758  
      94A      1.245420    95A      1.246354    96A      1.272194  
      97A      1.286247    98A      1.303776    99A      1.336423  
     100A      1.380670   101A      1.417172   102A      1.492298  
     103A      1.549556   104A      1.602719   105A      1.661020  
     106A      1.664808   107A      1.726017   108A      1.738029  
     109A      1.799726   110A      1.816650   111A      1.866917  
     112A      1.888181   113A      1.945513   114A      1.967638  
     115A      2.020728   116A      2.038982   117A      2.093471  
     118A      2.136468   119A      2.150038   120A      2.185602  
     121A      2.215313   122A      2.252944   123A      2.263535  
     124A      2.276044   125A      2.291918   126A      2.324120  
     127A      2.336865   128A      2.356186   129A      2.388236  
     130A      2.402893   131A      2.433043   132A      2.452225  
     133A      2.484910   134A      2.556548   135A      2.574347  
     136A      2.645548   137A      2.666834   138A      2.677880  
     139A      2.696903   140A      2.718370   141A      2.740267  
     142A      2.759756   143A      2.828478   144A      2.838865  
     145A      2.922779   146A      2.938027   147A      2.988654  
     148A      3.067218   149A      3.087161   150A      3.133466  
     151A      3.175617   152A      3.349588   153A      3.453899  
     154A      3.582488   155A      4.414987   156A      4.547930  
     157A      4.605187   158A      4.639882   159A      4.707414  
     160A      4.756558   161A      4.836111   162A      4.923631  
     163A      5.030494  

    Final Occupation by Irrep:
              A 
    DOCC [    36 ]

  Energy converged.

  @DF-RHF Final Energy:  -422.97277001735188

   => Energetics <=

    Nuclear Repulsion Energy =            452.7161353147657792
    One-Electron Energy =               -1473.1488594160719003
    Two-Electron Energy =                 597.4599540839551537
    DFT Exchange-Correlation Energy =       0.0000000000000000
    Empirical Dispersion Energy =           0.0000000000000000
    PCM Polarization Energy =               0.0000000000000000
    EFP Energy =                            0.0000000000000000
    Total Energy =                       -422.9727700173509675

    Alert: EFP and PCM quantities not currently incorporated into SCF psivars.

Properties will be evaluated at   0.000000,   0.000000,   0.000000 Bohr
  ==> Properties <==


Properties computed using the SCF density matrix

  Nuclear Dipole Moment: (a.u.)
     X:   -12.8005      Y:    -1.6795      Z:     1.0140

  Electronic Dipole Moment: (a.u.)
     X:    12.9056      Y:     1.0006      Z:    -1.0280

  Dipole Moment: (a.u.)
     X:     0.1051      Y:    -0.6789      Z:    -0.0140     Total:     0.6871

  Dipole Moment: (Debye)
     X:     0.2671      Y:    -1.7255      Z:    -0.0357     Total:     1.7464


  Saving occupied orbitals to File 180.

*** tstop() called on cx1-1-1-4.cx1.hpc.ic.ac.uk at Tue Jul  5 16:41:29 2016
Module time:
	user time   =      22.92 seconds =       0.38 minutes
	system time =       0.23 seconds =       0.00 minutes
	total time  =         23 seconds =       0.38 minutes
Total time:
	user time   =      22.92 seconds =       0.38 minutes
	system time =       0.23 seconds =       0.00 minutes
	total time  =         23 seconds =       0.38 minutes


Properties will be evaluated at   0.000000,   0.000000,   0.000000 Bohr

Properties computed using the  density matrix

  Nuclear Dipole Moment: (a.u.)
     X:   -12.8005      Y:    -1.6795      Z:     1.0140

  Electronic Dipole Moment: (a.u.)
     X:    12.9056      Y:     1.0006      Z:    -1.0280

  Dipole Moment: (a.u.)
     X:     0.1051      Y:    -0.6789      Z:    -0.0140     Total:     0.6871

  Dipole Moment: (Debye)
     X:     0.2671      Y:    -1.7255      Z:    -0.0357     Total:     1.7464

  Quadrupole Moment: (Debye Ang)
    XX:   -49.4974     YY:   -62.0013     ZZ:   -55.2757
    XY:    -2.7155     XZ:     0.3156     YZ:     0.3248

  Traceless Quadrupole Moment: (Debye Ang)
    XX:     6.0940     YY:    -6.4098     ZZ:     0.3158
    XY:    -2.7155     XZ:     0.3156     YZ:     0.3248

  Mulliken Charges: (a.u.)
   Center  Symbol    Alpha    Beta     Spin     Total
       1     O     4.28617  4.28617  0.00000 -0.57234
       2     C     2.60511  2.60511  0.00000  0.78979
       3     C     3.20842  3.20842  0.00000 -0.41683
       4     O     4.30728  4.30728  0.00000 -0.61456
       5     C     3.15422  3.15422  0.00000 -0.30843
       6     H     0.40064  0.40064  0.00000  0.19872
       7     H     0.40064  0.40064  0.00000  0.19871
       8     C     3.15518  3.15518  0.00000 -0.31037
       9     H     0.41134  0.41134  0.00000  0.17732
      10     H     0.41148  0.41148  0.00000  0.17704
      11     C     3.15330  3.15330  0.00000 -0.30660
      12     H     0.42206  0.42206  0.00000  0.15587
      13     H     0.42278  0.42278  0.00000  0.15443
      14     C     3.24037  3.24037  0.00000 -0.48074
      15     H     0.42028  0.42028  0.00000  0.15945
      16     H     0.41906  0.41906  0.00000  0.16188
      17     H     0.42176  0.42176  0.00000  0.15647
      18     H     0.41930  0.41930  0.00000  0.16140
      19     H     0.42155  0.42155  0.00000  0.15689
      20     C     3.09243  3.09243  0.00000 -0.18487
      21     H     0.40906  0.40906  0.00000  0.18187
      22     H     0.40844  0.40844  0.00000  0.18313
      23     H     0.40911  0.40911  0.00000  0.18177

   Total alpha = 36.00000, Total beta = 36.00000, Total charge =  0.00000


*** PSI4 exiting successfully. Buy a developer a beer!
