    -----------------------------------------------------------------------
          Psi4: An Open-Source Ab Initio Electronic Structure Package
                              Psi4 (no tag) Driver

                          Git: Rev {detached?}  

    J. M. Turney, A. C. Simmonett, R. M. Parrish, E. G. Hohenstein,
    F. A. Evangelista, J. T. Fermann, B. J. Mintz, L. A. Burns, J. J. Wilke,
    M. L. Abrams, N. J. Russ, M. L. Leininger, C. L. Janssen, E. T. Seidl,
    W. D. Allen, H. F. Schaefer, R. A. King, E. F. Valeev, C. D. Sherrill,
    and T. D. Crawford, WIREs Comput. Mol. Sci. 2, 556-565 (2012)
    (doi: 10.1002/wcms.93)

                         Additional Contributions by
    A. E. DePrince, M. Saitow, U. Bozkaya, A. Yu. Sokolov
    -----------------------------------------------------------------------


    Psi4 started on: Tue Jul  5 16:28:35 2016

    Process ID:  13557
    PSI4DATADIR: /export131/home/mjharvey/miniconda3/share
    Memory level set to 256.000 MB

  ==> Input File <==

--------------------------------------------------------------------------
set {
	reference rhf
	basis 6-31G*
}


set_num_threads( 1 )
memory 2 gb

molecule MOL {
0 1

H	 2.652209	 0.763231	 0.000000
O	 2.263154	 -0.100023	 0.000000
C	 0.912879	 -0.015685	 0.000000
C	 0.313002	 0.639338	 -1.067555
C	 0.134656	 -0.552744	 1.012433
H	 0.934627	 1.048567	 -1.842102
C	 -1.063056	 0.751079	 -1.112142
H	 0.600733	 -1.060718	 1.840235
C	 -1.246255	 -0.433205	 0.954888
H	 -1.522828	 1.259278	 -1.941014
C	 -1.854047	 0.216865	 -0.103250
H	 -1.843162	 -0.852955	 1.744952
H	 -2.923991	 0.307732	 -0.144805

	symmetry c1
}
ee = energy('scf')
oeprop('DIPOLE', 'QUADRUPOLE', 'MULLIKEN_CHARGES')
f=open( 'psi4out.xyz', 'w' )
f.write( "13  " )
f.write( str(ee) + "\n" )
f.write( MOL.save_string_xyz() )
f.close()
--------------------------------------------------------------------------

  Memory set to   2.000 GiB by Python script.

*** tstart() called on cx1-3-2-1.cx1.hpc.ic.ac.uk
*** at Tue Jul  5 16:28:36 2016


         ---------------------------------------------------------
                                   SCF
            by Justin Turney, Rob Parrish, and Andy Simmonett
                              RHF Reference
                        1 Threads,   2000 MiB Core
         ---------------------------------------------------------

  ==> Geometry <==

    Molecular point group: c1
    Full point group: C1

    Geometry (in Angstrom), charge = 0, multiplicity = 1:

       Center              X                  Y                   Z               Mass       
    ------------   -----------------  -----------------  -----------------  -----------------
           H          2.647463883977     0.687259342083     0.043947745111     1.007825032070
           O          2.258408883977    -0.175994657917     0.043947745111    15.994914619560
           C          0.908133883977    -0.091656657917     0.043947745111    12.000000000000
           C          0.308256883977     0.563366342083    -1.023607254889    12.000000000000
           C          0.129910883977    -0.628715657917     1.056380745111    12.000000000000
           H          0.929881883977     0.972595342083    -1.798154254889     1.007825032070
           C         -1.067801116023     0.675107342083    -1.068194254889    12.000000000000
           H          0.595987883977    -1.136689657917     1.884182745111     1.007825032070
           C         -1.251000116023    -0.509176657917     0.998835745111    12.000000000000
           H         -1.527573116023     1.183306342083    -1.897066254889     1.007825032070
           C         -1.858792116023     0.140893342083    -0.059302254889    12.000000000000
           H         -1.847907116023    -0.928926657917     1.788899745111     1.007825032070
           H         -2.928736116023     0.231760342083    -0.100857254889     1.007825032070

  Running in c1 symmetry.

  Rotational constants: A =      0.19169  B =      0.08847  C =      0.06078 [cm^-1]
  Rotational constants: A =   5746.61685  B =   2652.14175  C =   1822.03846 [MHz]
  Nuclear repulsion =  273.137079753861087

  Charge       = 0
  Multiplicity = 1
  Electrons    = 50
  Nalpha       = 25
  Nbeta        = 25

  ==> Algorithm <==

  SCF Algorithm Type is DF.
  DIIS enabled.
  MOM disabled.
  Fractional occupation disabled.
  Guess Type is CORE.
  Energy threshold   = 1.00e-06
  Density threshold  = 1.00e-06
  Integral threshold = 0.00e+00

  ==> Primary Basis <==

  Basis Set: 6-31G*
    Number of shells: 54
    Number of basis function: 117
    Number of Cartesian functions: 117
    Spherical Harmonics?: false
    Max angular momentum: 2

  ==> Pre-Iterations <==

   -------------------------------------------------------
    Irrep   Nso     Nmo     Nalpha   Nbeta   Ndocc  Nsocc
   -------------------------------------------------------
     A        117     117       0       0       0       0
   -------------------------------------------------------
    Total     117     117      25      25      25       0
   -------------------------------------------------------

 OEINTS: Overlap, kinetic, potential, dipole, and quadrupole integrals
         stored in file 35.

  ==> Integral Setup <==

  ==> DFJK: Density-Fitted J/K Matrices <==

    J tasked:                  Yes
    K tasked:                  Yes
    wK tasked:                  No
    OpenMP threads:              1
    Integrals threads:           1
    Memory (MB):              1430
    Algorithm:                Core
    Integral Cache:           NONE
    Schwarz Cutoff:          1E-12
    Fitting Condition:       1E-12

   => Auxiliary Basis Set <=

  Basis Set: 
    Number of shells: 222
    Number of basis function: 717
    Number of Cartesian functions: 717
    Spherical Harmonics?: false
    Max angular momentum: 3

  Minimum eigenvalue in the overlap matrix is 4.4799541911E-04.
  Using Symmetric Orthogonalization.
  SCF Guess: Core (One-Electron) Hamiltonian.

  ==> Iterations <==

                           Total Energy        Delta E     RMS |[F,P]|

   @DF-RHF iter   1:  -251.95162870913492   -2.51952e+02   6.53013e-02 
   @DF-RHF iter   2:  -211.42517926688930    4.05264e+01   6.28559e-02 DIIS
   @DF-RHF iter   3:  -256.33002495572617   -4.49048e+01   5.39111e-02 DIIS
   @DF-RHF iter   4:  -295.64327510196284   -3.93133e+01   2.91156e-02 DIIS
   @DF-RHF iter   5:  -301.61902375027722   -5.97575e+00   2.04184e-02 DIIS
   @DF-RHF iter   6:  -305.32508852959955   -3.70606e+00   5.45442e-03 DIIS
   @DF-RHF iter   7:  -305.50193247931014   -1.76844e-01   2.34332e-03 DIIS
   @DF-RHF iter   8:  -305.54463735851749   -4.27049e-02   8.83671e-04 DIIS
   @DF-RHF iter   9:  -305.55230931493276   -7.67196e-03   2.39329e-04 DIIS
   @DF-RHF iter  10:  -305.55289104796503   -5.81733e-04   8.17947e-05 DIIS
   @DF-RHF iter  11:  -305.55295263532054   -6.15874e-05   3.73302e-05 DIIS
   @DF-RHF iter  12:  -305.55296618115466   -1.35458e-05   1.67321e-05 DIIS
   @DF-RHF iter  13:  -305.55296997771308   -3.79656e-06   4.52940e-06 DIIS
   @DF-RHF iter  14:  -305.55297049556049   -5.17847e-07   1.94832e-06 DIIS
   @DF-RHF iter  15:  -305.55297065096460   -1.55404e-07   8.76189e-07 DIIS

  ==> Post-Iterations <==

    Orbital Energies (a.u.)
    -----------------------

    Doubly Occupied:                                                      

       1A    -20.579470     2A    -11.291063     3A    -11.234528  
       4A    -11.234450     5A    -11.226131     6A    -11.225733  
       7A    -11.225105     8A     -1.401645     9A     -1.146866  
      10A     -1.017820    11A     -1.002885    12A     -0.836842  
      13A     -0.825096    14A     -0.735820    15A     -0.682626  
      16A     -0.647268    17A     -0.625248    18A     -0.593688  
      19A     -0.587905    20A     -0.529190    21A     -0.514189  
      22A     -0.489872    23A     -0.468220    24A     -0.336889  
      25A     -0.318941  

    Virtual:                                                              

      26A      0.143292    27A      0.156172    28A      0.232172  
      29A      0.240260    30A      0.293843    31A      0.308683  
      32A      0.334402    33A      0.340130    34A      0.377590  
      35A      0.446950    36A      0.467299    37A      0.480610  
      38A      0.543340    39A      0.548580    40A      0.678960  
      41A      0.730033    42A      0.746208    43A      0.753248  
      44A      0.803571    45A      0.817554    46A      0.827245  
      47A      0.837324    48A      0.839683    49A      0.845466  
      50A      0.883614    51A      0.895320    52A      0.910230  
      53A      0.921714    54A      1.003574    55A      1.054521  
      56A      1.087739    57A      1.115718    58A      1.120208  
      59A      1.128258    60A      1.152832    61A      1.183479  
      62A      1.197251    63A      1.209802    64A      1.239195  
      65A      1.273705    66A      1.293122    67A      1.353238  
      68A      1.373639    69A      1.437339    70A      1.451176  
      71A      1.459263    72A      1.508829    73A      1.618250  
      74A      1.682607    75A      1.713472    76A      1.734565  
      77A      1.769974    78A      1.776557    79A      1.795199  
      80A      1.868170    81A      2.065880    82A      2.090950  
      83A      2.118070    84A      2.156766    85A      2.199717  
      86A      2.255996    87A      2.282946    88A      2.315684  
      89A      2.322712    90A      2.418287    91A      2.460575  
      92A      2.463986    93A      2.484521    94A      2.557977  
      95A      2.597322    96A      2.635918    97A      2.648888  
      98A      2.772468    99A      2.856625   100A      2.902029  
     101A      2.916054   102A      3.024123   103A      3.050002  
     104A      3.087543   105A      3.100336   106A      3.102421  
     107A      3.229590   108A      3.328186   109A      3.510098  
     110A      3.834611   111A      4.329653   112A      4.528246  
     113A      4.546373   114A      4.619803   115A      4.759586  
     116A      4.841144   117A      5.167666  

    Final Occupation by Irrep:
              A 
    DOCC [    25 ]

  Energy converged.

  @DF-RHF Final Energy:  -305.55297065096460

   => Energetics <=

    Nuclear Repulsion Energy =            273.1370797538610873
    One-Electron Energy =                -955.8252412637735915
    Two-Electron Energy =                 377.1351908589464870
    DFT Exchange-Correlation Energy =       0.0000000000000000
    Empirical Dispersion Energy =           0.0000000000000000
    PCM Polarization Energy =               0.0000000000000000
    EFP Energy =                            0.0000000000000000
    Total Energy =                       -305.5529706509660741

    Alert: EFP and PCM quantities not currently incorporated into SCF psivars.

Properties will be evaluated at   0.000000,   0.000000,   0.000000 Bohr
  ==> Properties <==


Properties computed using the SCF density matrix

  Nuclear Dipole Moment: (a.u.)
     X:    -1.9868      Y:     0.9453      Z:    -0.0739

  Electronic Dipole Moment: (a.u.)
     X:     1.8329      Y:    -0.3102      Z:     0.1040

  Dipole Moment: (a.u.)
     X:    -0.1539      Y:     0.6352      Z:     0.0301     Total:     0.6543

  Dipole Moment: (Debye)
     X:    -0.3912      Y:     1.6145      Z:     0.0766     Total:     1.6630


  Saving occupied orbitals to File 180.

*** tstop() called on cx1-3-2-1.cx1.hpc.ic.ac.uk at Tue Jul  5 16:28:45 2016
Module time:
	user time   =       8.41 seconds =       0.14 minutes
	system time =       0.06 seconds =       0.00 minutes
	total time  =          9 seconds =       0.15 minutes
Total time:
	user time   =       8.41 seconds =       0.14 minutes
	system time =       0.06 seconds =       0.00 minutes
	total time  =          9 seconds =       0.15 minutes


Properties will be evaluated at   0.000000,   0.000000,   0.000000 Bohr

Properties computed using the  density matrix

  Nuclear Dipole Moment: (a.u.)
     X:    -1.9868      Y:     0.9453      Z:    -0.0739

  Electronic Dipole Moment: (a.u.)
     X:     1.8329      Y:    -0.3102      Z:     0.1040

  Dipole Moment: (a.u.)
     X:    -0.1539      Y:     0.6352      Z:     0.0301     Total:     0.6543

  Dipole Moment: (Debye)
     X:    -0.3912      Y:     1.6145      Z:     0.0766     Total:     1.6630

  Quadrupole Moment: (Debye Ang)
    XX:   -37.5095     YY:   -41.3511     ZZ:   -38.4930
    XY:     4.6403     XZ:    -0.3031     YZ:    -3.4981

  Traceless Quadrupole Moment: (Debye Ang)
    XX:     1.6083     YY:    -2.2332     ZZ:     0.6249
    XY:     4.6403     XZ:    -0.3031     YZ:    -3.4981

  Mulliken Charges: (a.u.)
   Center  Symbol    Alpha    Beta     Spin     Total
       1     H     0.27049  0.27049  0.00000  0.45903
       2     O     4.38529  4.38529  0.00000 -0.77059
       3     C     2.80835  2.80835  0.00000  0.38330
       4     C     3.12884  3.12884  0.00000 -0.25768
       5     C     3.12083  3.12083  0.00000 -0.24167
       6     H     0.39850  0.39850  0.00000  0.20300
       7     C     3.09486  3.09486  0.00000 -0.18971
       8     H     0.39333  0.39333  0.00000  0.21334
       9     C     3.09512  3.09512  0.00000 -0.19025
      10     H     0.39928  0.39928  0.00000  0.20143
      11     C     3.10761  3.10761  0.00000 -0.21523
      12     H     0.39797  0.39797  0.00000  0.20407
      13     H     0.39952  0.39952  0.00000  0.20095

   Total alpha = 25.00000, Total beta = 25.00000, Total charge = -0.00000


*** PSI4 exiting successfully. Buy a developer a beer!
