    -----------------------------------------------------------------------
          Psi4: An Open-Source Ab Initio Electronic Structure Package
                              Psi4 (no tag) Driver

                          Git: Rev {detached?}  

    J. M. Turney, A. C. Simmonett, R. M. Parrish, E. G. Hohenstein,
    F. A. Evangelista, J. T. Fermann, B. J. Mintz, L. A. Burns, J. J. Wilke,
    M. L. Abrams, N. J. Russ, M. L. Leininger, C. L. Janssen, E. T. Seidl,
    W. D. Allen, H. F. Schaefer, R. A. King, E. F. Valeev, C. D. Sherrill,
    and T. D. Crawford, WIREs Comput. Mol. Sci. 2, 556-565 (2012)
    (doi: 10.1002/wcms.93)

                         Additional Contributions by
    A. E. DePrince, M. Saitow, U. Bozkaya, A. Yu. Sokolov
    -----------------------------------------------------------------------


    Psi4 started on: Tue Jul  5 16:44:22 2016

    Process ID:  23969
    PSI4DATADIR: /export131/home/mjharvey/miniconda3/share
    Memory level set to 256.000 MB

  ==> Input File <==

--------------------------------------------------------------------------
set {
	reference rhf
	basis 6-31G*
}


set_num_threads( 1 )
memory 2 gb

molecule MOL {
0 1

H	 -1.748926	 -0.856500	 0.529521
O	 -2.035884	 -0.060112	 0.102722
C	 -0.955155	 0.788182	 -0.092531
C	 0.353668	 0.040312	 -0.004810
H	 -0.985057	 1.290372	 -1.054184
H	 -0.974469	 1.533190	 0.688632
F	 0.548315	 -0.418436	 1.226545
F	 0.348852	 -0.998654	 -0.824399
F	 1.388009	 0.795454	 -0.313761

	symmetry c1
}
set optking {
	frozen_dihedral = ("
		7 4 3 5
	")
}

ee = energy('scf')
oeprop('DIPOLE', 'QUADRUPOLE', 'MULLIKEN_CHARGES')
f=open( 'psi4out.xyz', 'w' )
f.write( "9  " )
f.write( str(ee) + "\n" )
f.write( MOL.save_string_xyz() )
f.close()
--------------------------------------------------------------------------

  Memory set to   2.000 GiB by Python script.

*** tstart() called on cx1-3-2-1.cx1.hpc.ic.ac.uk
*** at Tue Jul  5 16:44:23 2016


         ---------------------------------------------------------
                                   SCF
            by Justin Turney, Rob Parrish, and Andy Simmonett
                              RHF Reference
                        1 Threads,   2000 MiB Core
         ---------------------------------------------------------

  ==> Geometry <==

    Molecular point group: c1
    Full point group: C1

    Geometry (in Angstrom), charge = 0, multiplicity = 1:

       Center              X                  Y                   Z               Mass       
    ------------   -----------------  -----------------  -----------------  -----------------
           H         -1.747882037719    -0.848029198268     0.506330518252     1.007825032070
           O         -2.034840037719    -0.051641198268     0.079531518252    15.994914619560
           C         -0.954111037719     0.796652801732    -0.115721481748    12.000000000000
           C          0.354711962281     0.048782801732    -0.028000481748    12.000000000000
           H         -0.984013037719     1.298842801732    -1.077374481748     1.007825032070
           H         -0.973425037719     1.541660801732     0.665441518252     1.007825032070
           F          0.549358962281    -0.409965198268     1.203354518252    18.998403224000
           F          0.349895962281    -0.990183198268    -0.847589481748    18.998403224000
           F          1.389052962281     0.803924801732    -0.336951481748    18.998403224000

  Running in c1 symmetry.

  Rotational constants: A =      0.18353  B =      0.09704  C =      0.09615 [cm^-1]
  Rotational constants: A =   5502.15705  B =   2909.04104  C =   2882.36068 [MHz]
  Nuclear repulsion =  277.910752854093118

  Charge       = 0
  Multiplicity = 1
  Electrons    = 50
  Nalpha       = 25
  Nbeta        = 25

  ==> Algorithm <==

  SCF Algorithm Type is DF.
  DIIS enabled.
  MOM disabled.
  Fractional occupation disabled.
  Guess Type is CORE.
  Energy threshold   = 1.00e-06
  Density threshold  = 1.00e-06
  Integral threshold = 0.00e+00

  ==> Primary Basis <==

  Basis Set: 6-31G*
    Number of shells: 42
    Number of basis function: 96
    Number of Cartesian functions: 96
    Spherical Harmonics?: false
    Max angular momentum: 2

  ==> Pre-Iterations <==

   -------------------------------------------------------
    Irrep   Nso     Nmo     Nalpha   Nbeta   Ndocc  Nsocc
   -------------------------------------------------------
     A         96      96       0       0       0       0
   -------------------------------------------------------
    Total      96      96      25      25      25       0
   -------------------------------------------------------

 OEINTS: Overlap, kinetic, potential, dipole, and quadrupole integrals
         stored in file 35.

  ==> Integral Setup <==

  ==> DFJK: Density-Fitted J/K Matrices <==

    J tasked:                  Yes
    K tasked:                  Yes
    wK tasked:                  No
    OpenMP threads:              1
    Integrals threads:           1
    Memory (MB):              1430
    Algorithm:                Core
    Integral Cache:           NONE
    Schwarz Cutoff:          1E-12
    Fitting Condition:       1E-12

   => Auxiliary Basis Set <=

  Basis Set: 
    Number of shells: 171
    Number of basis function: 561
    Number of Cartesian functions: 561
    Spherical Harmonics?: false
    Max angular momentum: 3

  Minimum eigenvalue in the overlap matrix is 1.9532230379E-03.
  Using Symmetric Orthogonalization.
  SCF Guess: Core (One-Electron) Hamiltonian.

  ==> Iterations <==

                           Total Energy        Delta E     RMS |[F,P]|

   @DF-RHF iter   1:  -401.47865233898273   -4.01479e+02   8.80774e-02 
   @DF-RHF iter   2:  -283.87259753672669    1.17606e+02   9.43430e-02 DIIS
   @DF-RHF iter   3:  -396.97623493409691   -1.13104e+02   6.52435e-02 DIIS
   @DF-RHF iter   4:  -449.36256407717946   -5.23863e+01   1.86432e-02 DIIS
   @DF-RHF iter   5:  -450.45631546642090   -1.09375e+00   7.93507e-03 DIIS
   @DF-RHF iter   6:  -450.59704806776659   -1.40733e-01   3.66066e-03 DIIS
   @DF-RHF iter   7:  -450.64867089530043   -5.16228e-02   1.24095e-03 DIIS
   @DF-RHF iter   8:  -450.65693993010376   -8.26903e-03   2.14198e-04 DIIS
   @DF-RHF iter   9:  -450.65727745728867   -3.37527e-04   8.63103e-05 DIIS
   @DF-RHF iter  10:  -450.65731241652185   -3.49592e-05   3.24774e-05 DIIS
   @DF-RHF iter  11:  -450.65732006271281   -7.64619e-06   6.59182e-06 DIIS
   @DF-RHF iter  12:  -450.65732048026513   -4.17552e-07   2.16510e-06 DIIS
   @DF-RHF iter  13:  -450.65732050656521   -2.63001e-08   3.81847e-07 DIIS

  ==> Post-Iterations <==

    Orbital Energies (a.u.)
    -----------------------

    Doubly Occupied:                                                      

       1A    -26.351686     2A    -26.349983     3A    -26.347871  
       4A    -20.586974     5A    -11.508600     6A    -11.309145  
       7A     -1.748297     8A     -1.647059     9A     -1.644477  
      10A     -1.401415    11A     -1.050508    12A     -0.929096  
      13A     -0.838174    14A     -0.837125    15A     -0.815046  
      16A     -0.723205    17A     -0.719088    18A     -0.684080  
      19A     -0.671878    20A     -0.671025    21A     -0.650712  
      22A     -0.642697    23A     -0.621609    24A     -0.525771  
      25A     -0.475952  

    Virtual:                                                              

      26A      0.228968    27A      0.259509    28A      0.291406  
      29A      0.339085    30A      0.409240    31A      0.418778  
      32A      0.464998    33A      0.476820    34A      0.692291  
      35A      0.735675    36A      0.757249    37A      0.779497  
      38A      0.818160    39A      0.889415    40A      0.969336  
      41A      1.059570    42A      1.111253    43A      1.150444  
      44A      1.199456    45A      1.236307    46A      1.303214  
      47A      1.336099    48A      1.351839    49A      1.364393  
      50A      1.452875    51A      1.467584    52A      1.508510  
      53A      1.600832    54A      1.616745    55A      1.629413  
      56A      1.662610    57A      1.674112    58A      1.678064  
      59A      1.760430    60A      1.893093    61A      1.915345  
      62A      1.945860    63A      1.963869    64A      2.001674  
      65A      2.109364    66A      2.126555    67A      2.135336  
      68A      2.154394    69A      2.258671    70A      2.280076  
      71A      2.298734    72A      2.357606    73A      2.382973  
      74A      2.404140    75A      2.415708    76A      2.436315  
      77A      2.495790    78A      2.586120    79A      2.658729  
      80A      2.700785    81A      2.772243    82A      2.834588  
      83A      2.916183    84A      3.106190    85A      3.126811  
      86A      3.182029    87A      3.265746    88A      3.408577  
      89A      3.413829    90A      3.449454    91A      4.167521  
      92A      4.602070    93A      4.729977    94A      4.895682  
      95A      5.118631    96A      5.687769  

    Final Occupation by Irrep:
              A 
    DOCC [    25 ]

  Energy converged.

  @DF-RHF Final Energy:  -450.65732050656521

   => Energetics <=

    Nuclear Repulsion Energy =            277.9107528540931185
    One-Electron Energy =               -1177.6331579520208379
    Two-Electron Energy =                 449.0650845913624494
    DFT Exchange-Correlation Energy =       0.0000000000000000
    Empirical Dispersion Energy =           0.0000000000000000
    PCM Polarization Energy =               0.0000000000000000
    EFP Energy =                            0.0000000000000000
    Total Energy =                       -450.6573205065653269

    Alert: EFP and PCM quantities not currently incorporated into SCF psivars.

Properties will be evaluated at   0.000000,   0.000000,   0.000000 Bohr
  ==> Properties <==


Properties computed using the SCF density matrix

  Nuclear Dipole Moment: (a.u.)
     X:    -5.6421      Y:     2.4301      Z:     0.0711

  Electronic Dipole Moment: (a.u.)
     X:     5.6283      Y:    -2.2042      Z:     0.0654

  Dipole Moment: (a.u.)
     X:    -0.0138      Y:     0.2259      Z:     0.1365     Total:     0.2643

  Dipole Moment: (Debye)
     X:    -0.0350      Y:     0.5742      Z:     0.3470     Total:     0.6718


  Saving occupied orbitals to File 180.

*** tstop() called on cx1-3-2-1.cx1.hpc.ic.ac.uk at Tue Jul  5 16:44:27 2016
Module time:
	user time   =       3.68 seconds =       0.06 minutes
	system time =       0.03 seconds =       0.00 minutes
	total time  =          4 seconds =       0.07 minutes
Total time:
	user time   =       3.68 seconds =       0.06 minutes
	system time =       0.03 seconds =       0.00 minutes
	total time  =          4 seconds =       0.07 minutes


Properties will be evaluated at   0.000000,   0.000000,   0.000000 Bohr

Properties computed using the  density matrix

  Nuclear Dipole Moment: (a.u.)
     X:    -5.6421      Y:     2.4301      Z:     0.0711

  Electronic Dipole Moment: (a.u.)
     X:     5.6283      Y:    -2.2042      Z:     0.0654

  Dipole Moment: (a.u.)
     X:    -0.0138      Y:     0.2259      Z:     0.1365     Total:     0.2643

  Dipole Moment: (Debye)
     X:    -0.0350      Y:     0.5742      Z:     0.3470     Total:     0.6718

  Quadrupole Moment: (Debye Ang)
    XX:   -38.1339     YY:   -29.9598     ZZ:   -32.5211
    XY:     0.3706     XZ:    -0.8937     YZ:    -1.3524

  Traceless Quadrupole Moment: (Debye Ang)
    XX:    -4.5956     YY:     3.5784     ZZ:     1.0172
    XY:     0.3706     XZ:    -0.8937     YZ:    -1.3524

  Mulliken Charges: (a.u.)
   Center  Symbol    Alpha    Beta     Spin     Total
       1     H     0.27070  0.27070  0.00000  0.45860
       2     O     4.36817  4.36817  0.00000 -0.73634
       3     C     3.02609  3.02609  0.00000 -0.05218
       4     C     2.48742  2.48742  0.00000  1.02515
       5     H     0.40172  0.40172  0.00000  0.19657
       6     H     0.40733  0.40733  0.00000  0.18533
       7     F     4.68334  4.68334  0.00000 -0.36669
       8     F     4.67869  4.67869  0.00000 -0.35738
       9     F     4.67653  4.67653  0.00000 -0.35306

   Total alpha = 25.00000, Total beta = 25.00000, Total charge =  0.00000


*** PSI4 exiting successfully. Buy a developer a beer!
