    -----------------------------------------------------------------------
          Psi4: An Open-Source Ab Initio Electronic Structure Package
                              Psi4 (no tag) Driver

                          Git: Rev {detached?}  

    J. M. Turney, A. C. Simmonett, R. M. Parrish, E. G. Hohenstein,
    F. A. Evangelista, J. T. Fermann, B. J. Mintz, L. A. Burns, J. J. Wilke,
    M. L. Abrams, N. J. Russ, M. L. Leininger, C. L. Janssen, E. T. Seidl,
    W. D. Allen, H. F. Schaefer, R. A. King, E. F. Valeev, C. D. Sherrill,
    and T. D. Crawford, WIREs Comput. Mol. Sci. 2, 556-565 (2012)
    (doi: 10.1002/wcms.93)

                         Additional Contributions by
    A. E. DePrince, M. Saitow, U. Bozkaya, A. Yu. Sokolov
    -----------------------------------------------------------------------


    Psi4 started on: Tue Jul  5 16:53:09 2016

    Process ID:  17317
    PSI4DATADIR: /export131/home/mjharvey/miniconda3/share
    Memory level set to 256.000 MB

  ==> Input File <==

--------------------------------------------------------------------------
set {
	reference rhf
	basis 6-31G*
}


set_num_threads( 1 )
memory 2 gb

molecule MOL {
0 1

H	 -2.074541	 2.255878	 -0.419559
C	 -1.695116	 1.266538	 -0.244572
C	 -2.555216	 0.202028	 -0.034829
C	 -0.335223	 1.042230	 -0.226544
H	 -3.619159	 0.356490	 -0.045189
C	 -2.052818	 -1.066101	 0.189169
H	 0.355998	 1.843344	 -0.385309
C	 0.154804	 -0.237046	 -0.000077
H	 -2.736670	 -1.878941	 0.349588
C	 -0.685722	 -1.334363	 0.215418
N	 1.611208	 -0.370857	 -0.000034
C	 -0.247410	 -2.759986	 0.469215
O	 2.274126	 0.622059	 -0.008063
O	 2.068510	 -1.474748	 0.007823
H	 0.362411	 -2.835937	 1.358866
H	 -1.123952	 -3.383123	 0.594718
H	 0.339051	 -3.147814	 -0.352233

	symmetry c1
}
ee = energy('scf')
oeprop('DIPOLE', 'QUADRUPOLE', 'MULLIKEN_CHARGES')
f=open( 'psi4out.xyz', 'w' )
f.write( "17  " )
f.write( str(ee) + "\n" )
f.write( MOL.save_string_xyz() )
f.close()
--------------------------------------------------------------------------

  Memory set to   2.000 GiB by Python script.

*** tstart() called on cx1-3-4-1.cx1.hpc.ic.ac.uk
*** at Tue Jul  5 16:53:10 2016


         ---------------------------------------------------------
                                   SCF
            by Justin Turney, Rob Parrish, and Andy Simmonett
                              RHF Reference
                        1 Threads,   2000 MiB Core
         ---------------------------------------------------------

  ==> Geometry <==

    Molecular point group: c1
    Full point group: C1

    Geometry (in Angstrom), charge = 0, multiplicity = 1:

       Center              X                  Y                   Z               Mass       
    ------------   -----------------  -----------------  -----------------  -----------------
           H         -2.034103939156     2.695983678666    -0.459826311454     1.007825032070
           C         -1.654678939156     1.706643678666    -0.284839311454    12.000000000000
           C         -2.514778939156     0.642133678666    -0.075096311454    12.000000000000
           C         -0.294785939156     1.482335678666    -0.266811311454    12.000000000000
           H         -3.578721939156     0.796595678666    -0.085456311454     1.007825032070
           C         -2.012380939156    -0.625995321334     0.148901688546    12.000000000000
           H          0.396435060844     2.283449678666    -0.425576311454     1.007825032070
           C          0.195241060844     0.203059678666    -0.040344311454    12.000000000000
           H         -2.696232939156    -1.438835321334     0.309320688546     1.007825032070
           C         -0.645284939156    -0.894257321334     0.175150688546    12.000000000000
           N          1.651645060844     0.069248678666    -0.040301311454    14.003074004780
           C         -0.206972939156    -2.319880321334     0.428947688546    12.000000000000
           O          2.314563060844     1.062164678666    -0.048330311454    15.994914619560
           O          2.108947060844    -1.034642321334    -0.032444311454    15.994914619560
           H          0.402848060844    -2.395831321334     1.318598688546     1.007825032070
           H         -1.083514939156    -2.943017321334     0.554450688546     1.007825032070
           H          0.379488060844    -2.707708321334    -0.392500311454     1.007825032070

  Running in c1 symmetry.

  Rotational constants: A =      0.07612  B =      0.04300  C =      0.02770 [cm^-1]
  Rotational constants: A =   2281.87812  B =   1289.15813  C =    830.33319 [MHz]
  Nuclear repulsion =  509.687842317788466

  Charge       = 0
  Multiplicity = 1
  Electrons    = 72
  Nalpha       = 36
  Nbeta        = 36

  ==> Algorithm <==

  SCF Algorithm Type is DF.
  DIIS enabled.
  MOM disabled.
  Fractional occupation disabled.
  Guess Type is CORE.
  Energy threshold   = 1.00e-06
  Density threshold  = 1.00e-06
  Integral threshold = 0.00e+00

  ==> Primary Basis <==

  Basis Set: 6-31G*
    Number of shells: 74
    Number of basis function: 164
    Number of Cartesian functions: 164
    Spherical Harmonics?: false
    Max angular momentum: 2

  ==> Pre-Iterations <==

   -------------------------------------------------------
    Irrep   Nso     Nmo     Nalpha   Nbeta   Ndocc  Nsocc
   -------------------------------------------------------
     A        164     164       0       0       0       0
   -------------------------------------------------------
    Total     164     164      36      36      36       0
   -------------------------------------------------------

 OEINTS: Overlap, kinetic, potential, dipole, and quadrupole integrals
         stored in file 35.

  ==> Integral Setup <==

  ==> DFJK: Density-Fitted J/K Matrices <==

    J tasked:                  Yes
    K tasked:                  Yes
    wK tasked:                  No
    OpenMP threads:              1
    Integrals threads:           1
    Memory (MB):              1430
    Algorithm:                Core
    Integral Cache:           NONE
    Schwarz Cutoff:          1E-12
    Fitting Condition:       1E-12

   => Auxiliary Basis Set <=

  Basis Set: 
    Number of shells: 303
    Number of basis function: 985
    Number of Cartesian functions: 985
    Spherical Harmonics?: false
    Max angular momentum: 3

  Minimum eigenvalue in the overlap matrix is 3.7407100182E-04.
  Using Symmetric Orthogonalization.
  SCF Guess: Core (One-Electron) Hamiltonian.

  ==> Iterations <==

                           Total Energy        Delta E     RMS |[F,P]|

   @DF-RHF iter   1:  -358.89742732002827   -3.58897e+02   6.72679e-02 
   @DF-RHF iter   2:  -293.13902062751566    6.57584e+01   5.83892e-02 DIIS
   @DF-RHF iter   3:  -356.01410641008641   -6.28751e+01   6.07387e-02 DIIS
   @DF-RHF iter   4:  -445.78912663933846   -8.97750e+01   4.01240e-02 DIIS
   @DF-RHF iter   5:  -455.32941046379364   -9.54028e+00   3.18415e-02 DIIS
   @DF-RHF iter   6:  -471.20350603676405   -1.58741e+01   9.60085e-03 DIIS
   @DF-RHF iter   7:  -472.71737328533226   -1.51387e+00   5.57079e-03 DIIS
   @DF-RHF iter   8:  -473.17834335095648   -4.60970e-01   1.12714e-03 DIIS
   @DF-RHF iter   9:  -473.20130880936171   -2.29655e-02   4.85800e-04 DIIS
   @DF-RHF iter  10:  -473.20466636853979   -3.35756e-03   3.06111e-04 DIIS
   @DF-RHF iter  11:  -473.20614844683092   -1.48208e-03   1.03132e-04 DIIS
   @DF-RHF iter  12:  -473.20635841007032   -2.09963e-04   4.08973e-05 DIIS
   @DF-RHF iter  13:  -473.20639475714796   -3.63471e-05   1.24234e-05 DIIS
   @DF-RHF iter  14:  -473.20640069829523   -5.94115e-06   5.21600e-06 DIIS
   @DF-RHF iter  15:  -473.20640188458577   -1.18629e-06   2.11288e-06 DIIS
   @DF-RHF iter  16:  -473.20640204716966   -1.62584e-07   9.12370e-07 DIIS

  ==> Post-Iterations <==

    Orbital Energies (a.u.)
    -----------------------

    Doubly Occupied:                                                      

       1A    -20.597166     2A    -20.596961     3A    -15.853130  
       4A    -11.301198     5A    -11.283363     6A    -11.265954  
       7A    -11.264604     8A    -11.253868     9A    -11.252954  
      10A    -11.232419    11A     -1.631593    12A     -1.413272  
      13A     -1.199307    14A     -1.091279    15A     -1.071619  
      16A     -0.979771    17A     -0.930152    18A     -0.846516  
      19A     -0.822929    20A     -0.768555    21A     -0.731237  
      22A     -0.724797    23A     -0.693196    24A     -0.664207  
      25A     -0.637946    26A     -0.597765    27A     -0.588541  
      28A     -0.561504    29A     -0.540776    30A     -0.519966  
      31A     -0.518653    32A     -0.484907    33A     -0.476037  
      34A     -0.448006    35A     -0.370018    36A     -0.353452  

    Virtual:                                                              

      37A      0.064670    38A      0.123644    39A      0.175555  
      40A      0.225237    41A      0.258402    42A      0.278960  
      43A      0.304470    44A      0.312426    45A      0.314994  
      46A      0.337957    47A      0.379522    48A      0.391325  
      49A      0.402876    50A      0.457230    51A      0.478042  
      52A      0.497794    53A      0.531572    54A      0.533430  
      55A      0.609463    56A      0.677657    57A      0.700354  
      58A      0.711821    59A      0.726571    60A      0.748981  
      61A      0.768535    62A      0.793252    63A      0.799674  
      64A      0.810165    65A      0.821245    66A      0.827250  
      67A      0.841359    68A      0.853292    69A      0.890487  
      70A      0.897302    71A      0.919746    72A      0.948186  
      73A      0.980354    74A      0.986248    75A      1.035358  
      76A      1.054526    77A      1.077242    78A      1.082469  
      79A      1.091101    80A      1.103077    81A      1.146680  
      82A      1.150963    83A      1.169955    84A      1.182746  
      85A      1.203201    86A      1.227972    87A      1.248649  
      88A      1.263551    89A      1.281592    90A      1.294542  
      91A      1.303802    92A      1.314251    93A      1.319674  
      94A      1.388570    95A      1.448066    96A      1.474163  
      97A      1.476939    98A      1.525596    99A      1.554635  
     100A      1.612003   101A      1.632703   102A      1.638634  
     103A      1.675160   104A      1.699054   105A      1.707300  
     106A      1.731453   107A      1.746872   108A      1.757642  
     109A      1.883663   110A      1.971029   111A      2.007848  
     112A      2.045273   113A      2.056130   114A      2.092492  
     115A      2.114103   116A      2.126458   117A      2.138142  
     118A      2.193763   119A      2.217095   120A      2.244278  
     121A      2.267873   122A      2.278037   123A      2.285258  
     124A      2.357258   125A      2.385756   126A      2.438137  
     127A      2.453035   128A      2.467759   129A      2.472150  
     130A      2.490561   131A      2.535874   132A      2.549644  
     133A      2.591971   134A      2.611046   135A      2.635548  
     136A      2.703991   137A      2.719736   138A      2.806682  
     139A      2.880575   140A      2.921945   141A      2.948501  
     142A      2.971547   143A      2.976239   144A      3.054372  
     145A      3.093703   146A      3.100422   147A      3.126348  
     148A      3.197566   149A      3.269582   150A      3.292191  
     151A      3.319194   152A      3.496533   153A      3.622578  
     154A      3.822834   155A      4.193116   156A      4.339879  
     157A      4.476314   158A      4.503779   159A      4.528461  
     160A      4.547507   161A      4.685372   162A      4.774543  
     163A      4.814264   164A      5.139396  

    Final Occupation by Irrep:
              A 
    DOCC [    36 ]

  Energy converged.

  @DF-RHF Final Energy:  -473.20640204716966

   => Energetics <=

    Nuclear Repulsion Energy =            509.6878423177884656
    One-Electron Energy =               -1654.6533857407680443
    Two-Electron Energy =                 671.7591413758104864
    DFT Exchange-Correlation Energy =       0.0000000000000000
    Empirical Dispersion Energy =           0.0000000000000000
    PCM Polarization Energy =               0.0000000000000000
    EFP Energy =                            0.0000000000000000
    Total Energy =                       -473.2064020471691492

    Alert: EFP and PCM quantities not currently incorporated into SCF psivars.

Properties will be evaluated at   0.000000,   0.000000,   0.000000 Bohr
  ==> Properties <==


Properties computed using the SCF density matrix

  Nuclear Dipole Moment: (a.u.)
     X:    -7.6837      Y:    -3.4775      Z:     0.7675

  Electronic Dipole Moment: (a.u.)
     X:     5.7820      Y:     3.5234      Z:    -0.7534

  Dipole Moment: (a.u.)
     X:    -1.9017      Y:     0.0459      Z:     0.0141     Total:     1.9023

  Dipole Moment: (Debye)
     X:    -4.8336      Y:     0.1166      Z:     0.0359     Total:     4.8352


  Saving occupied orbitals to File 180.

*** tstop() called on cx1-3-4-1.cx1.hpc.ic.ac.uk at Tue Jul  5 16:53:32 2016
Module time:
	user time   =      21.23 seconds =       0.35 minutes
	system time =       0.25 seconds =       0.00 minutes
	total time  =         22 seconds =       0.37 minutes
Total time:
	user time   =      21.23 seconds =       0.35 minutes
	system time =       0.25 seconds =       0.00 minutes
	total time  =         22 seconds =       0.37 minutes


Properties will be evaluated at   0.000000,   0.000000,   0.000000 Bohr

Properties computed using the  density matrix

  Nuclear Dipole Moment: (a.u.)
     X:    -7.6837      Y:    -3.4775      Z:     0.7675

  Electronic Dipole Moment: (a.u.)
     X:     5.7820      Y:     3.5234      Z:    -0.7534

  Dipole Moment: (a.u.)
     X:    -1.9017      Y:     0.0459      Z:     0.0141     Total:     1.9023

  Dipole Moment: (Debye)
     X:    -4.8336      Y:     0.1166      Z:     0.0359     Total:     4.8352

  Quadrupole Moment: (Debye Ang)
    XX:   -62.0053     YY:   -53.4420     ZZ:   -58.8317
    XY:    -0.8719     XZ:     0.1118     YZ:    -1.8514

  Traceless Quadrupole Moment: (Debye Ang)
    XX:    -3.9123     YY:     4.6510     ZZ:    -0.7387
    XY:    -0.8719     XZ:     0.1118     YZ:    -1.8514

  Mulliken Charges: (a.u.)
   Center  Symbol    Alpha    Beta     Spin     Total
       1     H     0.38932  0.38932  0.00000  0.22136
       2     C     3.11199  3.11199  0.00000 -0.22397
       3     C     3.08041  3.08041  0.00000 -0.16082
       4     C     3.08453  3.08453  0.00000 -0.16906
       5     H     0.38937  0.38937  0.00000  0.22125
       6     C     3.12617  3.12617  0.00000 -0.25235
       7     H     0.36337  0.36337  0.00000  0.27325
       8     C     2.93580  2.93580  0.00000  0.12840
       9     H     0.39264  0.39264  0.00000  0.21472
      10     C     2.96297  2.96297  0.00000  0.07406
      11     N     3.24406  3.24406  0.00000  0.51187
      12     C     3.23591  3.23591  0.00000 -0.47181
      13     O     4.23646  4.23646  0.00000 -0.47291
      14     O     4.23684  4.23684  0.00000 -0.47368
      15     H     0.40032  0.40032  0.00000  0.19936
      16     H     0.41532  0.41532  0.00000  0.16937
      17     H     0.39452  0.39452  0.00000  0.21096

   Total alpha = 36.00000, Total beta = 36.00000, Total charge =  0.00000


*** PSI4 exiting successfully. Buy a developer a beer!
