
    -----------------------------------------------------------------------
          Psi4: An Open-Source Ab Initio Electronic Structure Package
                               Psi4 1.1 release

                         Git: Rev {HEAD} add49b9 


    R. M. Parrish, L. A. Burns, D. G. A. Smith, A. C. Simmonett,
    A. E. DePrince III, E. G. Hohenstein, U. Bozkaya, A. Yu. Sokolov,
    R. Di Remigio, R. M. Richard, J. F. Gonthier, A. M. James,
    H. R. McAlexander, A. Kumar, M. Saitow, X. Wang, B. P. Pritchard,
    P. Verma, H. F. Schaefer III, K. Patkowski, R. A. King, E. F. Valeev,
    F. A. Evangelista, J. M. Turney, T. D. Crawford, and C. D. Sherrill,
    J. Chem. Theory Comput. in press (2017).
    (doi: 10.1021/acs.jctc.7b00174)

    -----------------------------------------------------------------------


    Psi4 started on: Tuesday, 12 December 2017 11:17AM

    Process ID:  26734
    PSIDATADIR: /shared/raimis/opt/miniconda/envs/htmd/share/psi4
    Memory:     500.0 MiB
    Threads:    1
    
  ==> Input File <==

--------------------------------------------------------------------------
set_num_threads(1)
set_memory(4203741184)

set { reference rks }
set { basis cc-pVDZ }

molecule MOL {
    0 1
    noreorient
    nocom
    symmetry c1
    O    1.050400   0.042900  -0.048100
    C    2.474100   0.047400  -0.029000
    C    3.002600  -1.068900  -0.932000
    N    1.939499  -1.970044  -1.373878
    H    0.760400   0.728400   0.578000
    H    2.809900  -0.097900   1.003200
    H    2.817400   1.026800  -0.378600
    H    3.775196  -1.639494  -0.403552
    H    3.492821  -0.625712  -1.806256
    H    1.565618  -2.471423  -0.568698
    H    2.344383  -2.681674  -1.982074
}

set optking { frozen_dihedral = (" 1 2 3 4 ") }

energy, wfn = energy('B3LYP-D3', return_wfn=True)

import os
os.chdir(os.environ['HTMD_PSI4_WORKDIR'])

oeprop(wfn, 'DIPOLE', 'QUADRUPOLE', 'MULLIKEN_CHARGES')

with open('psi4out.xyz', 'w') as f:
    f.write('11 ' )
    f.write('%.12f\n' % energy)
    f.write(MOL.save_string_xyz())
--------------------------------------------------------------------------
  Threads set to 1 by Python driver.

  Memory set to   3.915 GiB by Python driver.

*** tstart() called on computer06
*** at Tue Dec 12 11:17:27 2017

   => Loading Basis Set <=

    Name: CC-PVDZ
    Role: ORBITAL
    Keyword: BASIS
    atoms 1    entry O          line   190 file /shared/raimis/opt/miniconda/envs/htmd/share/psi4/basis/cc-pvdz.gbs 
    atoms 2-3  entry C          line   130 file /shared/raimis/opt/miniconda/envs/htmd/share/psi4/basis/cc-pvdz.gbs 
    atoms 4    entry N          line   160 file /shared/raimis/opt/miniconda/envs/htmd/share/psi4/basis/cc-pvdz.gbs 
    atoms 5-11 entry H          line    20 file /shared/raimis/opt/miniconda/envs/htmd/share/psi4/basis/cc-pvdz.gbs 


         ---------------------------------------------------------
                                   SCF
            by Justin Turney, Rob Parrish, and Andy Simmonett
                              RKS Reference
                        1 Threads,   4009 MiB Core
         ---------------------------------------------------------

  ==> Geometry <==

    Molecular point group: c1
    Full point group: C1

    Geometry (in Angstrom), charge = 0, multiplicity = 1:

       Center              X                  Y                   Z               Mass       
    ------------   -----------------  -----------------  -----------------  -----------------
           O          1.050400000000     0.042900000000    -0.048100000000    15.994914619560
           C          2.474100000000     0.047400000000    -0.029000000000    12.000000000000
           C          3.002600000000    -1.068900000000    -0.932000000000    12.000000000000
           N          1.939499000000    -1.970044000000    -1.373878000000    14.003074004780
           H          0.760400000000     0.728400000000     0.578000000000     1.007825032070
           H          2.809900000000    -0.097900000000     1.003200000000     1.007825032070
           H          2.817400000000     1.026800000000    -0.378600000000     1.007825032070
           H          3.775196000000    -1.639494000000    -0.403552000000     1.007825032070
           H          3.492821000000    -0.625712000000    -1.806256000000     1.007825032070
           H          1.565618000000    -2.471423000000    -0.568698000000     1.007825032070
           H          2.344383000000    -2.681674000000    -1.982074000000     1.007825032070

  Running in c1 symmetry.

  Rotational constants: A =      0.28377  B =      0.04432  C =      0.03908 [cm^-1]
  Rotational constants: A =   8507.17411  B =   1328.82743  C =   1171.63767 [MHz]
  Nuclear repulsion =  134.085512336882545

  Charge       = 0
  Multiplicity = 1
  Electrons    = 34
  Nalpha       = 17
  Nbeta        = 17

  ==> Algorithm <==

  SCF Algorithm Type is DF.
  DIIS enabled.
  MOM disabled.
  Fractional occupation disabled.
  Guess Type is SAD.
  Energy threshold   = 1.00e-06
  Density threshold  = 1.00e-06
  Integral threshold = 0.00e+00

  ==> Primary Basis <==

  Basis Set: CC-PVDZ
    Blend: CC-PVDZ
    Number of shells: 45
    Number of basis function: 91
    Number of Cartesian functions: 95
    Spherical Harmonics?: true
    Max angular momentum: 2

  ==> DFT Potential <==

   => B3LYP Composite Functional <= 

    B3LYP Hybrid-GGA Exchange-Correlation Functional (VWN1-RPA)

    P.J. Stephens et. al., J. Phys. Chem., 98, 11623-11627, 1994

    Points   =           5000
    Deriv    =              1
    GGA      =           TRUE
    Meta     =          FALSE

    X_LRC        =          FALSE
    X_Hybrid     =           TRUE
    X_Alpha      =   2.000000E-01
    X_Omega      =   0.000000E+00
    C_LRC        =          FALSE
    C_Hybrid     =          FALSE
    C_Alpha      =   0.000000E+00
    C_Omega      =   0.000000E+00

   => Exchange Functionals <=

    0.8000    B3_X
    0.2000      HF 

   => Correlation Functionals <=

    0.1900 VWN3RPA_C
    0.8100   LYP_C

   => Molecular Quadrature <=

    Radial Scheme    =       TREUTLER
    Pruning Scheme   =           FLAT
    Nuclear Scheme   =       TREUTLER

    BS radius alpha  =              1
    Pruning alpha    =              1
    Radial Points    =             75
    Spherical Points =            302
    Total Points     =         245089
    Total Blocks     =            219
    Max Points       =           4983
    Max Functions    =             91

   => -D3ZERO: Empirical Dispersion <=

    Grimme's -D3 (zero-damping) Dispersion Correction
    Grimme S.; Antony J.; Ehrlich S.; Krieg H. (2010), J. Chem. Phys., 132: 154104

        S6 =   1.000000E+00
        S8 =   1.703000E+00
       SR6 =   1.261000E+00
    ALPHA6 =   1.400000E+01

   => Loading Basis Set <=

    Name: (CC-PVDZ AUX)
    Role: JKFIT
    Keyword: DF_BASIS_SCF
    atoms 1    entry O          line   220 file /shared/raimis/opt/miniconda/envs/htmd/share/psi4/basis/cc-pvdz-jkfit.gbs 
    atoms 2-3  entry C          line   120 file /shared/raimis/opt/miniconda/envs/htmd/share/psi4/basis/cc-pvdz-jkfit.gbs 
    atoms 4    entry N          line   170 file /shared/raimis/opt/miniconda/envs/htmd/share/psi4/basis/cc-pvdz-jkfit.gbs 
    atoms 5-11 entry H          line    50 file /shared/raimis/opt/miniconda/envs/htmd/share/psi4/basis/cc-pvdz-jkfit.gbs 

  ==> Pre-Iterations <==

   -------------------------------------------------------
    Irrep   Nso     Nmo     Nalpha   Nbeta   Ndocc  Nsocc
   -------------------------------------------------------
     A         91      91       0       0       0       0
   -------------------------------------------------------
    Total      91      91      17      17      17       0
   -------------------------------------------------------

  ==> Integral Setup <==

  ==> DFJK: Density-Fitted J/K Matrices <==

    J tasked:                  Yes
    K tasked:                  Yes
    wK tasked:                  No
    OpenMP threads:              1
    Integrals threads:           1
    Memory (MB):              3006
    Algorithm:                Core
    Integral Cache:           NONE
    Schwarz Cutoff:          1E-12
    Fitting Condition:       1E-12

   => Auxiliary Basis Set <=

  Basis Set: (CC-PVDZ AUX)
    Blend: CC-PVDZ-JKFIT
    Number of shells: 159
    Number of basis function: 441
    Number of Cartesian functions: 499
    Spherical Harmonics?: true
    Max angular momentum: 3

  Minimum eigenvalue in the overlap matrix is 4.3775203840E-03.
  Using Symmetric Orthogonalization.

  SCF Guess: Superposition of Atomic Densities via on-the-fly atomic UHF.

  ==> Iterations <==

                           Total Energy        Delta E     RMS |[F,P]|

   @DF-RKS iter   0:  -210.87696383350348   -2.10877e+02   3.68767e-02 
   @DF-RKS iter   1:  -210.21228459706163    6.64679e-01   6.87365e-03 
   @DF-RKS iter   2:  -210.03481252893016    1.77472e-01   1.00711e-02 DIIS
   @DF-RKS iter   3:  -210.37912553529247   -3.44313e-01   6.74092e-04 DIIS
   @DF-RKS iter   4:  -210.38029737304959   -1.17184e-03   3.75344e-04 DIIS
   @DF-RKS iter   5:  -210.38080623247728   -5.08859e-04   6.66618e-05 DIIS
   @DF-RKS iter   6:  -210.38082186410674   -1.56316e-05   1.55961e-05 DIIS
   @DF-RKS iter   7:  -210.38082268622273   -8.22116e-07   4.53034e-06 DIIS
   @DF-RKS iter   8:  -210.38082275931816   -7.30954e-08   6.47696e-07 DIIS

  ==> Post-Iterations <==

    Orbital Energies (a.u.)
    -----------------------

    Doubly Occupied:                                                      

       1A    -19.121655     2A    -14.293936     3A    -10.222578  
       4A    -10.200813     5A     -1.005608     6A     -0.866764  
       7A     -0.714044     8A     -0.590412     9A     -0.510028  
      10A     -0.480913    11A     -0.441595    12A     -0.413490  
      13A     -0.387659    14A     -0.357724    15A     -0.320583  
      16A     -0.255803    17A     -0.217892  

    Virtual:                                                              

      18A      0.043398    19A      0.083787    20A      0.093266  
      21A      0.100270    22A      0.134222    23A      0.151105  
      24A      0.177320    25A      0.185390    26A      0.245757  
      27A      0.299904    28A      0.437766    29A      0.462948  
      30A      0.490380    31A      0.516595    32A      0.552397  
      33A      0.567253    34A      0.593300    35A      0.624249  
      36A      0.637401    37A      0.651573    38A      0.657719  
      39A      0.700721    40A      0.712491    41A      0.779203  
      42A      0.809094    43A      0.851920    44A      0.911135  
      45A      0.960119    46A      0.992447    47A      1.031746  
      48A      1.070270    49A      1.186113    50A      1.229542  
      51A      1.258126    52A      1.310401    53A      1.358304  
      54A      1.366579    55A      1.460674    56A      1.485210  
      57A      1.525944    58A      1.566242    59A      1.601658  
      60A      1.608287    61A      1.611954    62A      1.681382  
      63A      1.721313    64A      1.735242    65A      1.787138  
      66A      1.808040    67A      1.822757    68A      1.871279  
      69A      1.924386    70A      1.961550    71A      1.996631  
      72A      2.027915    73A      2.045942    74A      2.129980  
      75A      2.182550    76A      2.207674    77A      2.307999  
      78A      2.382334    79A      2.390057    80A      2.453760  
      81A      2.506110    82A      2.547834    83A      2.606305  
      84A      2.673632    85A      2.822481    86A      2.961670  
      87A      3.022767    88A      3.059778    89A      3.131975  
      90A      3.199434    91A      3.709325  

    Final Occupation by Irrep:
              A 
    DOCC [    17 ]

  Energy converged.

  @DF-RKS Final Energy:  -210.38082275931816

   => Energetics <=

    Nuclear Repulsion Energy =            134.0855123368825446
    One-Electron Energy =                -551.2451306865423248
    Two-Electron Energy =                 230.2740680351547837
    DFT Exchange-Correlation Energy =     -23.4904186148131444
    Empirical Dispersion Energy =          -0.0048538300000000
    PCM Polarization Energy =               0.0000000000000000
    EFP Energy =                            0.0000000000000000
    Total Energy =                       -210.3808227593181641



Properties will be evaluated at   0.000000,   0.000000,   0.000000 Bohr

Properties computed using the SCF density matrix

  Nuclear Dipole Moment: (a.u.)
     X:   136.8268      Y:   -47.8802      Z:   -36.5207

  Electronic Dipole Moment: (a.u.)
     X:  -136.2614      Y:    47.9231      Z:    37.0586

  Dipole Moment: (a.u.)
     X:     0.5653      Y:     0.0429      Z:     0.5379     Total:     0.7816

  Dipole Moment: (Debye)
     X:     1.4370      Y:     0.1091      Z:     1.3673     Total:     1.9865


*** tstop() called on computer06 at Tue Dec 12 11:17:54 2017
Module time:
	user time   =      23.56 seconds =       0.39 minutes
	system time =       0.17 seconds =       0.00 minutes
	total time  =         27 seconds =       0.45 minutes
Total time:
	user time   =      23.56 seconds =       0.39 minutes
	system time =       0.17 seconds =       0.00 minutes
	total time  =         27 seconds =       0.45 minutes


Properties will be evaluated at   0.000000,   0.000000,   0.000000 Bohr

Properties computed using the  density matrix

  Nuclear Dipole Moment: (a.u.)
     X:   136.8268      Y:   -47.8802      Z:   -36.5207

  Electronic Dipole Moment: (a.u.)
     X:  -136.2614      Y:    47.9231      Z:    37.0586

  Dipole Moment: (a.u.)
     X:     0.5653      Y:     0.0429      Z:     0.5379     Total:     0.7816

  Dipole Moment: (Debye)
     X:     1.4370      Y:     0.1091      Z:     1.3673     Total:     1.9865

  Quadrupole Moment: (Debye Ang)
    XX:   -20.4622     YY:   -20.4397     ZZ:   -25.7819
    XY:    -2.2141     XZ:    -0.7868     YZ:     1.1320

  Traceless Quadrupole Moment: (Debye Ang)
    XX:     1.7657     YY:     1.7882     ZZ:    -3.5539
    XY:    -2.2141     XZ:    -0.7868     YZ:     1.1320

  Mulliken Charges: (a.u.)
   Center  Symbol    Alpha    Beta     Spin     Total
       1     O     4.13163  4.13163  0.00000 -0.26327
       2     C     2.93052  2.93052  0.00000  0.13897
       3     C     2.98697  2.98697  0.00000  0.02606
       4     N     3.57949  3.57949  0.00000 -0.15898
       5     H     0.43339  0.43339  0.00000  0.13322
       6     H     0.50377  0.50377  0.00000 -0.00755
       7     H     0.50100  0.50100  0.00000 -0.00200
       8     H     0.50561  0.50561  0.00000 -0.01122
       9     H     0.49323  0.49323  0.00000  0.01354
      10     H     0.46600  0.46600  0.00000  0.06799
      11     H     0.46838  0.46838  0.00000  0.06324

   Total alpha = 17.00000, Total beta = 17.00000, Total charge = -0.00000


*** Psi4 exiting successfully. Buy a developer a beer!
