    -----------------------------------------------------------------------
          Psi4: An Open-Source Ab Initio Electronic Structure Package
                              Psi4 (no tag) Driver

                          Git: Rev {detached?}  

    J. M. Turney, A. C. Simmonett, R. M. Parrish, E. G. Hohenstein,
    F. A. Evangelista, J. T. Fermann, B. J. Mintz, L. A. Burns, J. J. Wilke,
    M. L. Abrams, N. J. Russ, M. L. Leininger, C. L. Janssen, E. T. Seidl,
    W. D. Allen, H. F. Schaefer, R. A. King, E. F. Valeev, C. D. Sherrill,
    and T. D. Crawford, WIREs Comput. Mol. Sci. 2, 556-565 (2012)
    (doi: 10.1002/wcms.93)

                         Additional Contributions by
    A. E. DePrince, M. Saitow, U. Bozkaya, A. Yu. Sokolov
    -----------------------------------------------------------------------


    Psi4 started on: Tue Jul  5 16:43:43 2016

    Process ID:  26662
    PSI4DATADIR: /export131/home/mjharvey/miniconda3/share
    Memory level set to 256.000 MB

  ==> Input File <==

--------------------------------------------------------------------------
set {
	reference rhf
	basis 6-31G*
}


set_num_threads( 1 )
memory 2 gb

molecule MOL {
0 1

H	 -3.650283	 0.221984	 0.000000
C	 -2.577024	 0.154109	 0.000000
C	 -1.960329	 -1.089307	 0.000000
C	 -1.811733	 1.307557	 0.000000
H	 -2.554473	 -1.985285	 0.000000
C	 -0.581547	 -1.175855	 0.000000
H	 -2.287118	 2.271701	 0.000000
C	 -0.428719	 1.219221	 0.000000
H	 -0.090826	 -2.129898	 0.000000
C	 0.198341	 -0.021559	 0.000000
H	 0.149947	 2.124040	 0.000000
C	 1.691355	 -0.173192	 0.000000
C	 2.549715	 0.989527	 0.452597
O	 2.198055	 -1.197207	 -0.352169
H	 2.380875	 1.861614	 -0.170893
H	 3.587585	 0.696759	 0.384752
H	 2.320273	 1.264918	 1.476949

	symmetry c1
}
ee = energy('scf')
oeprop('DIPOLE', 'QUADRUPOLE', 'MULLIKEN_CHARGES')
f=open( 'psi4out.xyz', 'w' )
f.write( "17  " )
f.write( str(ee) + "\n" )
f.write( MOL.save_string_xyz() )
f.close()
--------------------------------------------------------------------------

  Memory set to   2.000 GiB by Python script.

*** tstart() called on cx1-3-15-4.cx1.hpc.ic.ac.uk
*** at Tue Jul  5 16:43:44 2016


         ---------------------------------------------------------
                                   SCF
            by Justin Turney, Rob Parrish, and Andy Simmonett
                              RHF Reference
                        1 Threads,   2000 MiB Core
         ---------------------------------------------------------

  ==> Geometry <==

    Molecular point group: c1
    Full point group: C1

    Geometry (in Angstrom), charge = 0, multiplicity = 1:

       Center              X                  Y                   Z               Mass       
    ------------   -----------------  -----------------  -----------------  -----------------
           H         -3.650060299180     0.224179022654    -0.012513082098     1.007825032070
           C         -2.576801299180     0.156304022654    -0.012513082098    12.000000000000
           C         -1.960106299180    -1.087111977346    -0.012513082098    12.000000000000
           C         -1.811510299180     1.309752022654    -0.012513082098    12.000000000000
           H         -2.554250299180    -1.983089977346    -0.012513082098     1.007825032070
           C         -0.581324299180    -1.173659977346    -0.012513082098    12.000000000000
           H         -2.286895299180     2.273896022654    -0.012513082098     1.007825032070
           C         -0.428496299180     1.221416022654    -0.012513082098    12.000000000000
           H         -0.090603299180    -2.127702977346    -0.012513082098     1.007825032070
           C          0.198563700820    -0.019363977346    -0.012513082098    12.000000000000
           H          0.150169700820     2.126235022654    -0.012513082098     1.007825032070
           C          1.691577700820    -0.170996977346    -0.012513082098    12.000000000000
           C          2.549937700820     0.991722022654     0.440083917902    12.000000000000
           O          2.198277700820    -1.195011977346    -0.364682082098    15.994914619560
           H          2.381097700820     1.863809022654    -0.183406082098     1.007825032070
           H          3.587807700820     0.698954022654     0.372238917902     1.007825032070
           H          2.320495700820     1.267113022654     1.464435917902     1.007825032070

  Running in c1 symmetry.

  Rotational constants: A =      0.12514  B =      0.04046  C =      0.03115 [cm^-1]
  Rotational constants: A =   3751.62129  B =   1213.10239  C =    933.94505 [MHz]
  Nuclear repulsion =  403.392922376684339

  Charge       = 0
  Multiplicity = 1
  Electrons    = 64
  Nalpha       = 32
  Nbeta        = 32

  ==> Algorithm <==

  SCF Algorithm Type is DF.
  DIIS enabled.
  MOM disabled.
  Fractional occupation disabled.
  Guess Type is CORE.
  Energy threshold   = 1.00e-06
  Density threshold  = 1.00e-06
  Integral threshold = 0.00e+00

  ==> Primary Basis <==

  Basis Set: 6-31G*
    Number of shells: 70
    Number of basis function: 151
    Number of Cartesian functions: 151
    Spherical Harmonics?: false
    Max angular momentum: 2

  ==> Pre-Iterations <==

   -------------------------------------------------------
    Irrep   Nso     Nmo     Nalpha   Nbeta   Ndocc  Nsocc
   -------------------------------------------------------
     A        151     151       0       0       0       0
   -------------------------------------------------------
    Total     151     151      32      32      32       0
   -------------------------------------------------------

 OEINTS: Overlap, kinetic, potential, dipole, and quadrupole integrals
         stored in file 35.

  ==> Integral Setup <==

  ==> DFJK: Density-Fitted J/K Matrices <==

    J tasked:                  Yes
    K tasked:                  Yes
    wK tasked:                  No
    OpenMP threads:              1
    Integrals threads:           1
    Memory (MB):              1430
    Algorithm:                Core
    Integral Cache:           NONE
    Schwarz Cutoff:          1E-12
    Fitting Condition:       1E-12

   => Auxiliary Basis Set <=

  Basis Set: 
    Number of shells: 288
    Number of basis function: 929
    Number of Cartesian functions: 929
    Spherical Harmonics?: false
    Max angular momentum: 3

  Minimum eigenvalue in the overlap matrix is 4.3317423996E-04.
  Using Symmetric Orthogonalization.
  SCF Guess: Core (One-Electron) Hamiltonian.

  ==> Iterations <==

                           Total Energy        Delta E     RMS |[F,P]|

   @DF-RHF iter   1:  -296.16695319714466   -2.96167e+02   6.42033e-02 
   @DF-RHF iter   2:  -278.78691908605930    1.73800e+01   5.21086e-02 DIIS
   @DF-RHF iter   3:  -323.28992235058769   -4.45030e+01   5.28478e-02 DIIS
   @DF-RHF iter   4:  -373.54075450263934   -5.02508e+01   2.24530e-02 DIIS
   @DF-RHF iter   5:  -352.86799994866038    2.06728e+01   3.58027e-02 DIIS
   @DF-RHF iter   6:  -382.10025572492060   -2.92323e+01   5.57053e-03 DIIS
   @DF-RHF iter   7:  -382.36080398254848   -2.60548e-01   3.43832e-03 DIIS
   @DF-RHF iter   8:  -382.46847278851857   -1.07669e-01   5.80172e-04 DIIS
   @DF-RHF iter   9:  -382.47295418568984   -4.48140e-03   3.09615e-04 DIIS
   @DF-RHF iter  10:  -382.47440072508510   -1.44654e-03   9.48912e-05 DIIS
   @DF-RHF iter  11:  -382.47463308010430   -2.32355e-04   2.70505e-05 DIIS
   @DF-RHF iter  12:  -382.47465868423359   -2.56041e-05   1.25493e-05 DIIS
   @DF-RHF iter  13:  -382.47466501372600   -6.32949e-06   5.96525e-06 DIIS
   @DF-RHF iter  14:  -382.47466731180901   -2.29808e-06   2.53885e-06 DIIS
   @DF-RHF iter  15:  -382.47466769427007   -3.82461e-07   1.06445e-06 DIIS
   @DF-RHF iter  16:  -382.47466774854666   -5.42766e-08   3.41015e-07 DIIS

  ==> Post-Iterations <==

    Orbital Energies (a.u.)
    -----------------------

    Doubly Occupied:                                                      

       1A    -20.550639     2A    -11.331777     3A    -11.248666  
       4A    -11.245632     5A    -11.243741     6A    -11.240769  
       7A    -11.240647     8A    -11.238248     9A    -11.229700  
      10A     -1.396795    11A     -1.165681    12A     -1.049619  
      13A     -1.026543    14A     -0.996344    15A     -0.861170  
      16A     -0.835192    17A     -0.759944    18A     -0.708391  
      19A     -0.655887    20A     -0.646475    21A     -0.625182  
      22A     -0.609493    23A     -0.598939    24A     -0.593905  
      25A     -0.553872    26A     -0.526049    27A     -0.516220  
      28A     -0.500936    29A     -0.490699    30A     -0.410740  
      31A     -0.345389    32A     -0.341511  

    Virtual:                                                              

      33A      0.096759    34A      0.137643    35A      0.212915  
      36A      0.228023    37A      0.255605    38A      0.292311  
      39A      0.305362    40A      0.307776    41A      0.320333  
      42A      0.336661    43A      0.362289    44A      0.376195  
      45A      0.399546    46A      0.450262    47A      0.466179  
      48A      0.488555    49A      0.499595    50A      0.525323  
      51A      0.564679    52A      0.675036    53A      0.725354  
      54A      0.737247    55A      0.747033    56A      0.761374  
      57A      0.772479    58A      0.788839    59A      0.806665  
      60A      0.814410    61A      0.821059    62A      0.832510  
      63A      0.838613    64A      0.848155    65A      0.872350  
      66A      0.896112    67A      0.920564    68A      0.966363  
      69A      0.991750    70A      0.995443    71A      1.020525  
      72A      1.084998    73A      1.087769    74A      1.102714  
      75A      1.111422    76A      1.121203    77A      1.138000  
      78A      1.156917    79A      1.170617    80A      1.193677  
      81A      1.205067    82A      1.225364    83A      1.237768  
      84A      1.268255    85A      1.297916    86A      1.313703  
      87A      1.334949    88A      1.387161    89A      1.407446  
      90A      1.441768    91A      1.479962    92A      1.495170  
      93A      1.533924    94A      1.600269    95A      1.680740  
      96A      1.691288    97A      1.714487    98A      1.725855  
      99A      1.744207   100A      1.766065   101A      1.768550  
     102A      1.784284   103A      1.931106   104A      1.967764  
     105A      2.050247   106A      2.068889   107A      2.113821  
     108A      2.139986   109A      2.163018   110A      2.178748  
     111A      2.230728   112A      2.238710   113A      2.315422  
     114A      2.322351   115A      2.351940   116A      2.389893  
     117A      2.401373   118A      2.460333   119A      2.472207  
     120A      2.484059   121A      2.513111   122A      2.560584  
     123A      2.611991   124A      2.615740   125A      2.629617  
     126A      2.640102   127A      2.736054   128A      2.770507  
     129A      2.889150   130A      2.917575   131A      2.934167  
     132A      2.974142   133A      3.019414   134A      3.050688  
     135A      3.112791   136A      3.121804   137A      3.127315  
     138A      3.235529   139A      3.362767   140A      3.376280  
     141A      3.542861   142A      3.833497   143A      4.390649  
     144A      4.516960   145A      4.536282   146A      4.553804  
     147A      4.649044   148A      4.746602   149A      4.752556  
     150A      4.907285   151A      5.145752  

    Final Occupation by Irrep:
              A 
    DOCC [    32 ]

  Energy converged.

  @DF-RHF Final Energy:  -382.47466774854666

   => Energetics <=

    Nuclear Repulsion Energy =            403.3929223766843393
    One-Electron Energy =               -1318.1655149051052831
    Two-Electron Energy =                 532.2979247798740516
    DFT Exchange-Correlation Energy =       0.0000000000000000
    Empirical Dispersion Energy =           0.0000000000000000
    PCM Polarization Energy =               0.0000000000000000
    EFP Energy =                            0.0000000000000000
    Total Energy =                       -382.4746677485469490

    Alert: EFP and PCM quantities not currently incorporated into SCF psivars.

Properties will be evaluated at   0.000000,   0.000000,   0.000000 Bohr
  ==> Properties <==


Properties computed using the SCF density matrix

  Nuclear Dipole Moment: (a.u.)
     X:    -0.1228      Y:     4.0661      Z:     1.4895

  Electronic Dipole Moment: (a.u.)
     X:    -0.6349      Y:    -3.0980      Z:    -1.1276

  Dipole Moment: (a.u.)
     X:    -0.7577      Y:     0.9680      Z:     0.3619     Total:     1.2815

  Dipole Moment: (Debye)
     X:    -1.9259      Y:     2.4605      Z:     0.9199     Total:     3.2572


  Saving occupied orbitals to File 180.

*** tstop() called on cx1-3-15-4.cx1.hpc.ic.ac.uk at Tue Jul  5 16:44:02 2016
Module time:
	user time   =      17.22 seconds =       0.29 minutes
	system time =       0.20 seconds =       0.00 minutes
	total time  =         18 seconds =       0.30 minutes
Total time:
	user time   =      17.22 seconds =       0.29 minutes
	system time =       0.20 seconds =       0.00 minutes
	total time  =         18 seconds =       0.30 minutes


Properties will be evaluated at   0.000000,   0.000000,   0.000000 Bohr

Properties computed using the  density matrix

  Nuclear Dipole Moment: (a.u.)
     X:    -0.1228      Y:     4.0661      Z:     1.4895

  Electronic Dipole Moment: (a.u.)
     X:    -0.6349      Y:    -3.0980      Z:    -1.1276

  Dipole Moment: (a.u.)
     X:    -0.7577      Y:     0.9680      Z:     0.3619     Total:     1.2815

  Dipole Moment: (Debye)
     X:    -1.9259      Y:     2.4605      Z:     0.9199     Total:     3.2572

  Quadrupole Moment: (Debye Ang)
    XX:   -50.9524     YY:   -50.0624     ZZ:   -55.7035
    XY:     6.4134     XZ:     2.2391     YZ:    -1.1007

  Traceless Quadrupole Moment: (Debye Ang)
    XX:     1.2870     YY:     2.1770     ZZ:    -3.4641
    XY:     6.4134     XZ:     2.2391     YZ:    -1.1007

  Mulliken Charges: (a.u.)
   Center  Symbol    Alpha    Beta     Spin     Total
       1     H     0.39545  0.39545  0.00000  0.20909
       2     C     3.09282  3.09282  0.00000 -0.18563
       3     C     3.10368  3.10368  0.00000 -0.20735
       4     C     3.10408  3.10408  0.00000 -0.20817
       5     H     0.39518  0.39518  0.00000  0.20964
       6     C     3.09003  3.09003  0.00000 -0.18007
       7     H     0.39630  0.39630  0.00000  0.20741
       8     C     3.10323  3.10323  0.00000 -0.20647
       9     H     0.37808  0.37808  0.00000  0.24383
      10     C     3.05178  3.05178  0.00000 -0.10357
      11     H     0.39424  0.39424  0.00000  0.21153
      12     C     2.73175  2.73175  0.00000  0.53651
      13     C     3.29070  3.29070  0.00000 -0.58140
      14     O     4.26593  4.26593  0.00000 -0.53186
      15     H     0.40839  0.40839  0.00000  0.18323
      16     H     0.39406  0.39406  0.00000  0.21189
      17     H     0.40430  0.40430  0.00000  0.19140

   Total alpha = 32.00000, Total beta = 32.00000, Total charge =  0.00000


*** PSI4 exiting successfully. Buy a developer a beer!
