    -----------------------------------------------------------------------
          Psi4: An Open-Source Ab Initio Electronic Structure Package
                              Psi4 (no tag) Driver

                          Git: Rev {detached?}  

    J. M. Turney, A. C. Simmonett, R. M. Parrish, E. G. Hohenstein,
    F. A. Evangelista, J. T. Fermann, B. J. Mintz, L. A. Burns, J. J. Wilke,
    M. L. Abrams, N. J. Russ, M. L. Leininger, C. L. Janssen, E. T. Seidl,
    W. D. Allen, H. F. Schaefer, R. A. King, E. F. Valeev, C. D. Sherrill,
    and T. D. Crawford, WIREs Comput. Mol. Sci. 2, 556-565 (2012)
    (doi: 10.1002/wcms.93)

                         Additional Contributions by
    A. E. DePrince, M. Saitow, U. Bozkaya, A. Yu. Sokolov
    -----------------------------------------------------------------------


    Psi4 started on: Tue Jul  5 16:28:29 2016

    Process ID:    854
    PSI4DATADIR: /export131/home/mjharvey/miniconda3/share
    Memory level set to 256.000 MB

  ==> Input File <==

--------------------------------------------------------------------------
set {
	reference rhf
	basis 6-31G*
}


set_num_threads( 1 )
memory 2 gb

molecule MOL {
0 1

H	 1.148083	 -1.049780	 0.784252
O	 1.319262	 -0.618148	 -0.041729
C	 0.709265	 0.639550	 -0.033818
C	 1.495235	 1.702151	 0.688476
H	 -0.252138	 0.506309	 0.449043
H	 0.503171	 0.976094	 -1.049342
C	 2.579143	 1.491015	 1.407732
H	 1.106111	 2.703598	 0.587629
H	 2.984040	 0.504753	 1.544751
H	 3.091944	 2.299390	 1.897163

	symmetry c1
}
set optking {
	frozen_dihedral = ("
		5 3 4 7,
		3 4 7 9
	")
}

ee = energy('scf')
oeprop('DIPOLE', 'QUADRUPOLE', 'MULLIKEN_CHARGES')
f=open( 'psi4out.xyz', 'w' )
f.write( "10  " )
f.write( str(ee) + "\n" )
f.write( MOL.save_string_xyz() )
f.close()
--------------------------------------------------------------------------

  Memory set to   2.000 GiB by Python script.

*** tstart() called on cx1-3-5-2.cx1.hpc.ic.ac.uk
*** at Tue Jul  5 16:28:29 2016


         ---------------------------------------------------------
                                   SCF
            by Justin Turney, Rob Parrish, and Andy Simmonett
                              RHF Reference
                        1 Threads,   2000 MiB Core
         ---------------------------------------------------------

  ==> Geometry <==

    Molecular point group: c1
    Full point group: C1

    Geometry (in Angstrom), charge = 0, multiplicity = 1:

       Center              X                  Y                   Z               Mass       
    ------------   -----------------  -----------------  -----------------  -----------------
           H         -0.353480717576    -1.774984388124     0.296195748862     1.007825032070
           O         -0.182301717576    -1.343352388124    -0.529785251138    15.994914619560
           C         -0.792298717576    -0.085654388124    -0.521874251138    12.000000000000
           C         -0.006328717576     0.976946611876     0.200419748862    12.000000000000
           H         -1.753701717576    -0.218895388124    -0.039013251138     1.007825032070
           H         -0.998392717576     0.250889611876    -1.537398251138     1.007825032070
           C          1.077579282424     0.765810611876     0.919675748862    12.000000000000
           H         -0.395452717576     1.978393611876     0.099572748862     1.007825032070
           H          1.482476282424    -0.220451388124     1.056694748862     1.007825032070
           H          1.590380282424     1.574185611876     1.409106748862     1.007825032070

  Running in c1 symmetry.

  Rotational constants: A =      0.57855  B =      0.19723  C =      0.15307 [cm^-1]
  Rotational constants: A =  17344.55431  B =   5912.74081  C =   4588.98852 [MHz]
  Nuclear repulsion =  119.285377112629575

  Charge       = 0
  Multiplicity = 1
  Electrons    = 32
  Nalpha       = 16
  Nbeta        = 16

  ==> Algorithm <==

  SCF Algorithm Type is DF.
  DIIS enabled.
  MOM disabled.
  Fractional occupation disabled.
  Guess Type is CORE.
  Energy threshold   = 1.00e-06
  Density threshold  = 1.00e-06
  Integral threshold = 0.00e+00

  ==> Primary Basis <==

  Basis Set: 6-31G*
    Number of shells: 36
    Number of basis function: 72
    Number of Cartesian functions: 72
    Spherical Harmonics?: false
    Max angular momentum: 2

  ==> Pre-Iterations <==

   -------------------------------------------------------
    Irrep   Nso     Nmo     Nalpha   Nbeta   Ndocc  Nsocc
   -------------------------------------------------------
     A         72      72       0       0       0       0
   -------------------------------------------------------
    Total      72      72      16      16      16       0
   -------------------------------------------------------

 OEINTS: Overlap, kinetic, potential, dipole, and quadrupole integrals
         stored in file 35.

  ==> Integral Setup <==

  ==> DFJK: Density-Fitted J/K Matrices <==

    J tasked:                  Yes
    K tasked:                  Yes
    wK tasked:                  No
    OpenMP threads:              1
    Integrals threads:           1
    Memory (MB):              1430
    Algorithm:                Core
    Integral Cache:           NONE
    Schwarz Cutoff:          1E-12
    Fitting Condition:       1E-12

   => Auxiliary Basis Set <=

  Basis Set: 
    Number of shells: 150
    Number of basis function: 474
    Number of Cartesian functions: 474
    Spherical Harmonics?: false
    Max angular momentum: 3

  Minimum eigenvalue in the overlap matrix is 3.6960851347E-03.
  Using Symmetric Orthogonalization.
  SCF Guess: Core (One-Electron) Hamiltonian.

  ==> Iterations <==

                           Total Energy        Delta E     RMS |[F,P]|

   @DF-RHF iter   1:  -158.44674291511683   -1.58447e+02   8.91539e-02 
   @DF-RHF iter   2:  -123.54267185389078    3.49041e+01   8.22294e-02 DIIS
   @DF-RHF iter   3:  -168.24728160318932   -4.47046e+01   5.80082e-02 DIIS
   @DF-RHF iter   4:  -188.05879863971234   -1.98115e+01   3.42247e-02 DIIS
   @DF-RHF iter   5:  -191.71670311468370   -3.65790e+00   9.29321e-03 DIIS
   @DF-RHF iter   6:  -191.87676041456632   -1.60057e-01   3.68462e-03 DIIS
   @DF-RHF iter   7:  -191.90849100958314   -3.17306e-02   1.39379e-03 DIIS
   @DF-RHF iter   8:  -191.91365165738796   -5.16065e-03   4.09924e-04 DIIS
   @DF-RHF iter   9:  -191.91419464758673   -5.42990e-04   1.19004e-04 DIIS
   @DF-RHF iter  10:  -191.91425023885722   -5.55913e-05   3.58049e-05 DIIS
   @DF-RHF iter  11:  -191.91425679024582   -6.55139e-06   1.29784e-05 DIIS
   @DF-RHF iter  12:  -191.91425783584350   -1.04560e-06   4.12591e-06 DIIS
   @DF-RHF iter  13:  -191.91425793221902   -9.63755e-08   1.00684e-06 DIIS
   @DF-RHF iter  14:  -191.91425793852954   -6.31053e-09   1.57546e-07 DIIS

  ==> Post-Iterations <==

    Orbital Energies (a.u.)
    -----------------------

    Doubly Occupied:                                                      

       1A    -20.559854     2A    -11.279222     3A    -11.228444  
       4A    -11.216949     5A     -1.369415     6A     -1.056091  
       7A     -0.926977     8A     -0.763336     9A     -0.694754  
      10A     -0.659956    11A     -0.620164    12A     -0.568854  
      13A     -0.525261    14A     -0.500038    15A     -0.444619  
      16A     -0.361996  

    Virtual:                                                              

      17A      0.184749    18A      0.224037    19A      0.266546  
      20A      0.290864    21A      0.322753    22A      0.336375  
      23A      0.356520    24A      0.399146    25A      0.471597  
      26A      0.532269    27A      0.734986    28A      0.763857  
      29A      0.780815    30A      0.824809    31A      0.856542  
      32A      0.903202    33A      0.913015    34A      0.927512  
      35A      1.018625    36A      1.073542    37A      1.134954  
      38A      1.156530    39A      1.173439    40A      1.197289  
      41A      1.226177    42A      1.230339    43A      1.352187  
      44A      1.367915    45A      1.393156    46A      1.477513  
      47A      1.516664    48A      1.704531    49A      1.766623  
      50A      1.848980    51A      1.948433    52A      1.969851  
      53A      2.040456    54A      2.133680    55A      2.275102  
      56A      2.282767    57A      2.361129    58A      2.481390  
      59A      2.525366    60A      2.558812    61A      2.701244  
      62A      2.757867    63A      2.788691    64A      2.822516  
      65A      2.884655    66A      3.105117    67A      3.211986  
      68A      3.328194    69A      4.192586    70A      4.542034  
      71A      4.642912    72A      4.854827  

    Final Occupation by Irrep:
              A 
    DOCC [    16 ]

  Energy converged.

  @DF-RHF Final Energy:  -191.91425793852954

   => Energetics <=

    Nuclear Repulsion Energy =            119.2853771126295754
    One-Electron Energy =                -496.8474281450851322
    Two-Electron Energy =                 185.6477930939258556
    DFT Exchange-Correlation Energy =       0.0000000000000000
    Empirical Dispersion Energy =           0.0000000000000000
    PCM Polarization Energy =               0.0000000000000000
    EFP Energy =                            0.0000000000000000
    Total Energy =                       -191.9142579385296870

    Alert: EFP and PCM quantities not currently incorporated into SCF psivars.

Properties will be evaluated at   0.000000,   0.000000,   0.000000 Bohr
  ==> Properties <==


Properties computed using the SCF density matrix

  Nuclear Dipole Moment: (a.u.)
     X:    -0.4023      Y:     1.4833      Z:     1.2023

  Electronic Dipole Moment: (a.u.)
     X:    -0.0411      Y:    -1.2641      Z:    -0.6814

  Dipole Moment: (a.u.)
     X:    -0.4434      Y:     0.2192      Z:     0.5209     Total:     0.7183

  Dipole Moment: (Debye)
     X:    -1.1270      Y:     0.5572      Z:     1.3240     Total:     1.8258


  Saving occupied orbitals to File 180.

*** tstop() called on cx1-3-5-2.cx1.hpc.ic.ac.uk at Tue Jul  5 16:28:32 2016
Module time:
	user time   =       2.38 seconds =       0.04 minutes
	system time =       0.03 seconds =       0.00 minutes
	total time  =          3 seconds =       0.05 minutes
Total time:
	user time   =       2.38 seconds =       0.04 minutes
	system time =       0.03 seconds =       0.00 minutes
	total time  =          3 seconds =       0.05 minutes


Properties will be evaluated at   0.000000,   0.000000,   0.000000 Bohr

Properties computed using the  density matrix

  Nuclear Dipole Moment: (a.u.)
     X:    -0.4023      Y:     1.4833      Z:     1.2023

  Electronic Dipole Moment: (a.u.)
     X:    -0.0411      Y:    -1.2641      Z:    -0.6814

  Dipole Moment: (a.u.)
     X:    -0.4434      Y:     0.2192      Z:     0.5209     Total:     0.7183

  Dipole Moment: (Debye)
     X:    -1.1270      Y:     0.5572      Z:     1.3240     Total:     1.8258

  Quadrupole Moment: (Debye Ang)
    XX:   -24.2462     YY:   -24.0116     ZZ:   -25.7578
    XY:     0.3445     XZ:     1.3525     YZ:    -3.4480

  Traceless Quadrupole Moment: (Debye Ang)
    XX:     0.4257     YY:     0.6602     ZZ:    -1.0859
    XY:     0.3445     XZ:     1.3525     YZ:    -3.4480

  Mulliken Charges: (a.u.)
   Center  Symbol    Alpha    Beta     Spin     Total
       1     H     0.27860  0.27860  0.00000  0.44281
       2     O     4.36638  4.36638  0.00000 -0.73276
       3     C     3.00501  3.00501  0.00000 -0.01002
       4     C     3.08692  3.08692  0.00000 -0.17384
       5     H     0.42540  0.42540  0.00000  0.14919
       6     H     0.41066  0.41066  0.00000  0.17869
       7     C     3.19488  3.19488  0.00000 -0.38976
       8     H     0.41112  0.41112  0.00000  0.17776
       9     H     0.40936  0.40936  0.00000  0.18129
      10     H     0.41168  0.41168  0.00000  0.17664

   Total alpha = 16.00000, Total beta = 16.00000, Total charge =  0.00000


*** PSI4 exiting successfully. Buy a developer a beer!
