    -----------------------------------------------------------------------
          Psi4: An Open-Source Ab Initio Electronic Structure Package
                              Psi4 (no tag) Driver

                          Git: Rev {detached?}  

    J. M. Turney, A. C. Simmonett, R. M. Parrish, E. G. Hohenstein,
    F. A. Evangelista, J. T. Fermann, B. J. Mintz, L. A. Burns, J. J. Wilke,
    M. L. Abrams, N. J. Russ, M. L. Leininger, C. L. Janssen, E. T. Seidl,
    W. D. Allen, H. F. Schaefer, R. A. King, E. F. Valeev, C. D. Sherrill,
    and T. D. Crawford, WIREs Comput. Mol. Sci. 2, 556-565 (2012)
    (doi: 10.1002/wcms.93)

                         Additional Contributions by
    A. E. DePrince, M. Saitow, U. Bozkaya, A. Yu. Sokolov
    -----------------------------------------------------------------------


    Psi4 started on: Tue Jul  5 16:47:14 2016

    Process ID:  18920
    PSI4DATADIR: /export131/home/mjharvey/miniconda3/share
    Memory level set to 256.000 MB

  ==> Input File <==

--------------------------------------------------------------------------
set {
	reference rhf
	basis 6-31G*
}


set_num_threads( 1 )
memory 2 gb

molecule MOL {
0 1

O	 -1.264440	 0.662525	 -0.942055
C	 -1.083277	 0.139568	 0.115197
C	 0.323299	 -0.082943	 0.642902
C	 -2.233551	 -0.348434	 0.967578
C	 1.355627	 -0.005344	 -0.493127
H	 0.396251	 -1.044647	 1.143147
H	 0.528637	 0.693580	 1.371677
C	 1.155333	 1.223865	 -1.377534
H	 2.360126	 0.010252	 -0.075980
H	 1.280057	 -0.907677	 -1.090809
H	 1.891536	 1.252673	 -2.174319
H	 1.250670	 2.141594	 -0.804378
H	 0.170717	 1.219102	 -1.835306
H	 -2.082321	 -1.382546	 1.263230
H	 -3.163057	 -0.253952	 0.423678
H	 -2.287706	 0.240735	 1.879253

	symmetry c1
}
set optking {
	frozen_dihedral = ("
		9 5 3 2
	")
}

ee = energy('scf')
oeprop('DIPOLE', 'QUADRUPOLE', 'MULLIKEN_CHARGES')
f=open( 'psi4out.xyz', 'w' )
f.write( "16  " )
f.write( str(ee) + "\n" )
f.write( MOL.save_string_xyz() )
f.close()
--------------------------------------------------------------------------

  Memory set to   2.000 GiB by Python script.

*** tstart() called on cx1-3-15-3.cx1.hpc.ic.ac.uk
*** at Tue Jul  5 16:47:14 2016


         ---------------------------------------------------------
                                   SCF
            by Justin Turney, Rob Parrish, and Andy Simmonett
                              RHF Reference
                        1 Threads,   2000 MiB Core
         ---------------------------------------------------------

  ==> Geometry <==

    Molecular point group: c1
    Full point group: C1

    Geometry (in Angstrom), charge = 0, multiplicity = 1:

       Center              X                  Y                   Z               Mass       
    ------------   -----------------  -----------------  -----------------  -----------------
           O         -0.966230576336     0.387153492458    -0.747953617878    15.994914619560
           C         -0.785067576336    -0.135803507542     0.309298382122    12.000000000000
           C          0.621508423664    -0.358314507542     0.837003382122    12.000000000000
           C         -1.935341576336    -0.623805507542     1.161679382122    12.000000000000
           C          1.653836423664    -0.280715507542    -0.299025617878    12.000000000000
           H          0.694460423664    -1.320018507542     1.337248382122     1.007825032070
           H          0.826846423664     0.418208492458     1.565778382122     1.007825032070
           C          1.453542423664     0.948493492458    -1.183432617878    12.000000000000
           H          2.658335423664    -0.265119507542     0.118121382122     1.007825032070
           H          1.578266423664    -1.183048507542    -0.896707617878     1.007825032070
           H          2.189745423664     0.977301492458    -1.980217617878     1.007825032070
           H          1.548879423664     1.866222492458    -0.610276617878     1.007825032070
           H          0.468926423664     0.943730492458    -1.641204617878     1.007825032070
           H         -1.784111576336    -1.657917507542     1.457331382122     1.007825032070
           H         -2.864847576336    -0.529323507542     0.617779382122     1.007825032070
           H         -1.989496576336    -0.034636507542     2.073354382122     1.007825032070

  Running in c1 symmetry.

  Rotational constants: A =      0.23629  B =      0.08187  C =      0.06524 [cm^-1]
  Rotational constants: A =   7083.68390  B =   2454.41734  C =   1955.94606 [MHz]
  Nuclear repulsion =  246.189047555100530

  Charge       = 0
  Multiplicity = 1
  Electrons    = 48
  Nalpha       = 24
  Nbeta        = 24

  ==> Algorithm <==

  SCF Algorithm Type is DF.
  DIIS enabled.
  MOM disabled.
  Fractional occupation disabled.
  Guess Type is CORE.
  Energy threshold   = 1.00e-06
  Density threshold  = 1.00e-06
  Integral threshold = 0.00e+00

  ==> Primary Basis <==

  Basis Set: 6-31G*
    Number of shells: 56
    Number of basis function: 110
    Number of Cartesian functions: 110
    Spherical Harmonics?: false
    Max angular momentum: 2

  ==> Pre-Iterations <==

   -------------------------------------------------------
    Irrep   Nso     Nmo     Nalpha   Nbeta   Ndocc  Nsocc
   -------------------------------------------------------
     A        110     110       0       0       0       0
   -------------------------------------------------------
    Total     110     110      24      24      24       0
   -------------------------------------------------------

 OEINTS: Overlap, kinetic, potential, dipole, and quadrupole integrals
         stored in file 35.

  ==> Integral Setup <==

  ==> DFJK: Density-Fitted J/K Matrices <==

    J tasked:                  Yes
    K tasked:                  Yes
    wK tasked:                  No
    OpenMP threads:              1
    Integrals threads:           1
    Memory (MB):              1430
    Algorithm:                Core
    Integral Cache:           NONE
    Schwarz Cutoff:          1E-12
    Fitting Condition:       1E-12

   => Auxiliary Basis Set <=

  Basis Set: 
    Number of shells: 234
    Number of basis function: 736
    Number of Cartesian functions: 736
    Spherical Harmonics?: false
    Max angular momentum: 3

  Minimum eigenvalue in the overlap matrix is 3.8710161961E-03.
  Using Symmetric Orthogonalization.
  SCF Guess: Core (One-Electron) Hamiltonian.

  ==> Iterations <==

                           Total Energy        Delta E     RMS |[F,P]|

   @DF-RHF iter   1:  -207.13115584033753   -2.07131e+02   7.93820e-02 
   @DF-RHF iter   2:  -196.31081604362257    1.08203e+01   5.86294e-02 DIIS
   @DF-RHF iter   3:  -242.37064586960022   -4.60598e+01   4.76846e-02 DIIS
   @DF-RHF iter   4:  -267.95342974029177   -2.55828e+01   1.63523e-02 DIIS
   @DF-RHF iter   5:  -269.47392332610275   -1.52049e+00   9.64850e-03 DIIS
   @DF-RHF iter   6:  -269.97190005120058   -4.97977e-01   2.44400e-03 DIIS
   @DF-RHF iter   7:  -270.00337317179753   -3.14731e-02   8.39173e-04 DIIS
   @DF-RHF iter   8:  -270.00850380140821   -5.13063e-03   1.77423e-04 DIIS
   @DF-RHF iter   9:  -270.00884807418856   -3.44273e-04   5.35457e-05 DIIS
   @DF-RHF iter  10:  -270.00888781963397   -3.97454e-05   1.60492e-05 DIIS
   @DF-RHF iter  11:  -270.00889242564551   -4.60601e-06   6.36211e-06 DIIS
   @DF-RHF iter  12:  -270.00889358417999   -1.15853e-06   3.58678e-06 DIIS
   @DF-RHF iter  13:  -270.00889406745580   -4.83276e-07   1.42799e-06 DIIS
   @DF-RHF iter  14:  -270.00889415020026   -8.27445e-08   4.71543e-07 DIIS

  ==> Post-Iterations <==

    Orbital Energies (a.u.)
    -----------------------

    Doubly Occupied:                                                      

       1A    -20.550507     2A    -11.332129     3A    -11.232345  
       4A    -11.231654     5A    -11.217606     6A    -11.179790  
       7A     -1.404675     8A     -1.071171     9A     -1.017263  
      10A     -0.936053    11A     -0.817829    12A     -0.738332  
      13A     -0.672106    14A     -0.647214    15A     -0.618659  
      16A     -0.587340    17A     -0.580864    18A     -0.547977  
      19A     -0.525899    20A     -0.507976    21A     -0.492045  
      22A     -0.473409    23A     -0.465912    24A     -0.382787  

    Virtual:                                                              

      25A      0.163185    26A      0.223405    27A      0.261998  
      28A      0.291184    29A      0.303164    30A      0.312431  
      31A      0.320823    32A      0.327197    33A      0.330005  
      34A      0.356232    35A      0.377862    36A      0.397999  
      37A      0.408932    38A      0.460565    39A      0.479642  
      40A      0.526308    41A      0.704313    42A      0.733292  
      43A      0.743873    44A      0.752269    45A      0.794144  
      46A      0.812443    47A      0.824530    48A      0.894104  
      49A      0.904343    50A      0.927873    51A      0.961534  
      52A      0.987663    53A      1.018507    54A      1.047663  
      55A      1.098051    56A      1.116095    57A      1.142905  
      58A      1.151189    59A      1.164187    60A      1.180373  
      61A      1.192620    62A      1.205396    63A      1.221497  
      64A      1.231784    65A      1.253269    66A      1.281961  
      67A      1.313407    68A      1.363174    69A      1.387956  
      70A      1.541023    71A      1.626546    72A      1.660639  
      73A      1.700832    74A      1.734054    75A      1.792893  
      76A      1.876901    77A      1.912266    78A      2.013650  
      79A      2.061279    80A      2.079366    81A      2.122442  
      82A      2.160588    83A      2.208007    84A      2.241008  
      85A      2.258605    86A      2.305258    87A      2.345306  
      88A      2.382194    89A      2.405385    90A      2.511952  
      91A      2.523952    92A      2.599685    93A      2.649654  
      94A      2.684398    95A      2.713752    96A      2.740068  
      97A      2.793246    98A      2.855317    99A      2.894109  
     100A      2.978823   101A      3.028860   102A      3.165427  
     103A      3.389290   104A      3.419867   105A      4.437592  
     106A      4.541696   107A      4.668524   108A      4.778451  
     109A      4.847586   110A      4.968605  

    Final Occupation by Irrep:
              A 
    DOCC [    24 ]

  Energy converged.

  @DF-RHF Final Energy:  -270.00889415020026

   => Energetics <=

    Nuclear Repulsion Energy =            246.1890475551005295
    One-Electron Energy =                -853.9328064285715527
    Two-Electron Energy =                 337.7348647232705048
    DFT Exchange-Correlation Energy =       0.0000000000000000
    Empirical Dispersion Energy =           0.0000000000000000
    PCM Polarization Energy =               0.0000000000000000
    EFP Energy =                            0.0000000000000000
    Total Energy =                       -270.0088941502005468

    Alert: EFP and PCM quantities not currently incorporated into SCF psivars.

Properties will be evaluated at   0.000000,   0.000000,   0.000000 Bohr
  ==> Properties <==


Properties computed using the SCF density matrix

  Nuclear Dipole Moment: (a.u.)
     X:     3.1143      Y:    -0.7337      Z:     1.9100

  Electronic Dipole Moment: (a.u.)
     X:    -3.1109      Y:     0.1950      Z:    -0.8754

  Dipole Moment: (a.u.)
     X:     0.0034      Y:    -0.5387      Z:     1.0345     Total:     1.1664

  Dipole Moment: (Debye)
     X:     0.0087      Y:    -1.3691      Z:     2.6295     Total:     2.9646


  Saving occupied orbitals to File 180.

*** tstop() called on cx1-3-15-3.cx1.hpc.ic.ac.uk at Tue Jul  5 16:47:21 2016
Module time:
	user time   =       6.51 seconds =       0.11 minutes
	system time =       0.05 seconds =       0.00 minutes
	total time  =          7 seconds =       0.12 minutes
Total time:
	user time   =       6.51 seconds =       0.11 minutes
	system time =       0.05 seconds =       0.00 minutes
	total time  =          7 seconds =       0.12 minutes


Properties will be evaluated at   0.000000,   0.000000,   0.000000 Bohr

Properties computed using the  density matrix

  Nuclear Dipole Moment: (a.u.)
     X:     3.1143      Y:    -0.7337      Z:     1.9100

  Electronic Dipole Moment: (a.u.)
     X:    -3.1109      Y:     0.1950      Z:    -0.8754

  Dipole Moment: (a.u.)
     X:     0.0034      Y:    -0.5387      Z:     1.0345     Total:     1.1664

  Dipole Moment: (Debye)
     X:     0.0087      Y:    -1.3691      Z:     2.6295     Total:     2.9646

  Quadrupole Moment: (Debye Ang)
    XX:   -38.8753     YY:   -38.1632     ZZ:   -38.7681
    XY:     0.8654     XZ:    -1.9586     YZ:     1.0141

  Traceless Quadrupole Moment: (Debye Ang)
    XX:    -0.2731     YY:     0.4390     ZZ:    -0.1659
    XY:     0.8654     XZ:    -1.9586     YZ:     1.0141

  Mulliken Charges: (a.u.)
   Center  Symbol    Alpha    Beta     Spin     Total
       1     O     4.26499  4.26499  0.00000 -0.52998
       2     C     2.73179  2.73179  0.00000  0.53642
       3     C     3.21213  3.21213  0.00000 -0.42427
       4     C     3.28660  3.28660  0.00000 -0.57320
       5     C     3.15256  3.15256  0.00000 -0.30511
       6     H     0.40995  0.40995  0.00000  0.18009
       7     H     0.40445  0.40445  0.00000  0.19110
       8     C     3.25299  3.25299  0.00000 -0.50598
       9     H     0.41936  0.41936  0.00000  0.16128
      10     H     0.41975  0.41975  0.00000  0.16050
      11     H     0.42961  0.42961  0.00000  0.14078
      12     H     0.43183  0.43183  0.00000  0.13635
      13     H     0.37282  0.37282  0.00000  0.25435
      14     H     0.40859  0.40859  0.00000  0.18281
      15     H     0.39625  0.39625  0.00000  0.20751
      16     H     0.40633  0.40633  0.00000  0.18735

   Total alpha = 24.00000, Total beta = 24.00000, Total charge = -0.00000


*** PSI4 exiting successfully. Buy a developer a beer!
