    -----------------------------------------------------------------------
          Psi4: An Open-Source Ab Initio Electronic Structure Package
                              Psi4 (no tag) Driver

                          Git: Rev {detached?}  

    J. M. Turney, A. C. Simmonett, R. M. Parrish, E. G. Hohenstein,
    F. A. Evangelista, J. T. Fermann, B. J. Mintz, L. A. Burns, J. J. Wilke,
    M. L. Abrams, N. J. Russ, M. L. Leininger, C. L. Janssen, E. T. Seidl,
    W. D. Allen, H. F. Schaefer, R. A. King, E. F. Valeev, C. D. Sherrill,
    and T. D. Crawford, WIREs Comput. Mol. Sci. 2, 556-565 (2012)
    (doi: 10.1002/wcms.93)

                         Additional Contributions by
    A. E. DePrince, M. Saitow, U. Bozkaya, A. Yu. Sokolov
    -----------------------------------------------------------------------


    Psi4 started on: Tue Jul  5 16:31:48 2016

    Process ID:  16781
    PSI4DATADIR: /export131/home/mjharvey/miniconda3/share
    Memory level set to 256.000 MB

  ==> Input File <==

--------------------------------------------------------------------------
set {
	reference rhf
	basis 6-31G*
}


set_num_threads( 1 )
memory 2 gb

molecule MOL {
0 1

H	 3.729851	 -0.928316	 -0.070625
O	 2.826396	 -1.159240	 0.122244
C	 2.078107	 -0.067581	 -0.035108
C	 0.624853	 -0.343613	 0.253084
O	 2.543345	 0.974804	 -0.363746
C	 -0.265522	 0.883910	 0.072899
H	 0.324396	 -1.163871	 -0.390558
H	 0.565404	 -0.726133	 1.268907
C	 -1.728318	 0.646051	 0.462085
H	 -0.208764	 1.219448	 -0.958205
H	 0.135439	 1.692829	 0.673886
C	 -2.482080	 -0.343095	 -0.431442
H	 -2.244885	 1.602628	 0.432413
H	 -1.778952	 0.308326	 1.496268
C	 -3.960166	 -0.461047	 -0.060192
H	 -2.394654	 -0.026833	 -1.468929
H	 -2.024470	 -1.327169	 -0.371663
H	 -4.472346	 -1.168026	 -0.705301
H	 -4.464766	 0.496486	 -0.151506
H	 -4.080838	 -0.800962	 0.964568

	symmetry c1
}
ee = energy('scf')
oeprop('DIPOLE', 'QUADRUPOLE', 'MULLIKEN_CHARGES')
oeprop('GRID_ESP')
f=open( 'psi4out.xyz', 'w' )
f.write( "20  " )
f.write( str(ee) + "\n" )
f.write( MOL.save_string_xyz() )
f.close()
--------------------------------------------------------------------------

  Memory set to   2.000 GiB by Python script.

*** tstart() called on cx1-1-1-2.cx1.hpc.ic.ac.uk
*** at Tue Jul  5 16:31:49 2016


         ---------------------------------------------------------
                                   SCF
            by Justin Turney, Rob Parrish, and Andy Simmonett
                              RHF Reference
                        1 Threads,   2000 MiB Core
         ---------------------------------------------------------

  ==> Geometry <==

    Molecular point group: c1
    Full point group: C1

    Geometry (in Angstrom), charge = 0, multiplicity = 1:

       Center              X                  Y                   Z               Mass       
    ------------   -----------------  -----------------  -----------------  -----------------
           H          3.729471147852    -0.928293946398    -0.070607696309     1.007825032070
           O          2.826016147852    -1.159217946398     0.122261303691    15.994914619560
           C          2.077727147852    -0.067558946398    -0.035090696309    12.000000000000
           C          0.624473147852    -0.343590946398     0.253101303691    12.000000000000
           O          2.542965147852     0.974826053602    -0.363728696309    15.994914619560
           C         -0.265901852148     0.883932053602     0.072916303691    12.000000000000
           H          0.324016147852    -1.163848946398    -0.390540696309     1.007825032070
           H          0.565024147852    -0.726110946398     1.268924303691     1.007825032070
           C         -1.728697852148     0.646073053602     0.462102303691    12.000000000000
           H         -0.209143852148     1.219470053602    -0.958187696309     1.007825032070
           H          0.135059147852     1.692851053602     0.673903303691     1.007825032070
           C         -2.482459852148    -0.343072946398    -0.431424696309    12.000000000000
           H         -2.245264852148     1.602650053602     0.432430303691     1.007825032070
           H         -1.779331852148     0.308348053602     1.496285303691     1.007825032070
           C         -3.960545852148    -0.461024946398    -0.060174696309    12.000000000000
           H         -2.395033852148    -0.026810946398    -1.468911696309     1.007825032070
           H         -2.024849852148    -1.327146946398    -0.371645696309     1.007825032070
           H         -4.472725852148    -1.168003946398    -0.705283696309     1.007825032070
           H         -4.465145852148     0.496508053602    -0.151488696309     1.007825032070
           H         -4.081217852148    -0.800939946398     0.964585303691     1.007825032070

  Running in c1 symmetry.

  Rotational constants: A =      0.19196  B =      0.02430  C =      0.02258 [cm^-1]
  Rotational constants: A =   5754.74855  B =    728.54509  C =    676.80724 [MHz]
  Nuclear repulsion =  375.915101162550513

  Charge       = 0
  Multiplicity = 1
  Electrons    = 64
  Nalpha       = 32
  Nbeta        = 32

  ==> Algorithm <==

  SCF Algorithm Type is DF.
  DIIS enabled.
  MOM disabled.
  Fractional occupation disabled.
  Guess Type is CORE.
  Energy threshold   = 1.00e-06
  Density threshold  = 1.00e-06
  Integral threshold = 0.00e+00

  ==> Primary Basis <==

  Basis Set: 6-31G*
    Number of shells: 72
    Number of basis function: 144
    Number of Cartesian functions: 144
    Spherical Harmonics?: false
    Max angular momentum: 2

  ==> Pre-Iterations <==

   -------------------------------------------------------
    Irrep   Nso     Nmo     Nalpha   Nbeta   Ndocc  Nsocc
   -------------------------------------------------------
     A        144     144       0       0       0       0
   -------------------------------------------------------
    Total     144     144      32      32      32       0
   -------------------------------------------------------

 OEINTS: Overlap, kinetic, potential, dipole, and quadrupole integrals
         stored in file 35.

  ==> Integral Setup <==

  ==> DFJK: Density-Fitted J/K Matrices <==

    J tasked:                  Yes
    K tasked:                  Yes
    wK tasked:                  No
    OpenMP threads:              1
    Integrals threads:           1
    Memory (MB):              1430
    Algorithm:                Core
    Integral Cache:           NONE
    Schwarz Cutoff:          1E-12
    Fitting Condition:       1E-12

   => Auxiliary Basis Set <=

  Basis Set: 
    Number of shells: 300
    Number of basis function: 948
    Number of Cartesian functions: 948
    Spherical Harmonics?: false
    Max angular momentum: 3

  Minimum eigenvalue in the overlap matrix is 2.8738068274E-03.
  Using Symmetric Orthogonalization.
  SCF Guess: Core (One-Electron) Hamiltonian.

  ==> Iterations <==

                           Total Energy        Delta E     RMS |[F,P]|

   @DF-RHF iter   1:  -291.15076349650815   -2.91151e+02   6.25206e-02 
   @DF-RHF iter   2:   -91.32325117073992    1.99828e+02   9.54567e-02 DIIS
   @DF-RHF iter   3:  -361.47473862518734   -2.70151e+02   3.13445e-02 DIIS
   @DF-RHF iter   4:  -310.59252726521709    5.08822e+01   6.07800e-02 DIIS
   @DF-RHF iter   5:  -375.90056892415248   -6.53080e+01   2.28783e-02 DIIS
   @DF-RHF iter   6:  -383.48149857644512   -7.58093e+00   6.12100e-03 DIIS
   @DF-RHF iter   7:  -383.90045624617653   -4.18958e-01   2.06860e-03 DIIS
   @DF-RHF iter   8:  -383.94430454160249   -4.38483e-02   4.54244e-04 DIIS
   @DF-RHF iter   9:  -383.94817971068903   -3.87517e-03   1.72473e-04 DIIS
   @DF-RHF iter  10:  -383.94868411422283   -5.04404e-04   6.65835e-05 DIIS
   @DF-RHF iter  11:  -383.94875179177018   -6.76775e-05   1.95717e-05 DIIS
   @DF-RHF iter  12:  -383.94876000315094   -8.21138e-06   9.40758e-06 DIIS
   @DF-RHF iter  13:  -383.94876136833830   -1.36519e-06   2.57657e-06 DIIS
   @DF-RHF iter  14:  -383.94876155488203   -1.86544e-07   1.09338e-06 DIIS
   @DF-RHF iter  15:  -383.94876158451041   -2.96284e-08   3.50800e-07 DIIS

  ==> Post-Iterations <==

    Orbital Energies (a.u.)
    -----------------------

    Doubly Occupied:                                                      

       1A    -20.612526     2A    -20.551613     3A    -11.381189  
       4A    -11.240222     5A    -11.222933     6A    -11.220701  
       7A    -11.220112     8A    -11.212411     9A     -1.474591  
      10A     -1.365644    11A     -1.096217    12A     -1.040972  
      13A     -0.961256    14A     -0.868865    15A     -0.816206  
      16A     -0.776886    17A     -0.699562    18A     -0.690039  
      19A     -0.663921    20A     -0.635930    21A     -0.602792  
      22A     -0.593907    23A     -0.575462    24A     -0.555745  
      25A     -0.540177    26A     -0.513052    27A     -0.495657  
      28A     -0.479246    29A     -0.470494    30A     -0.467511  
      31A     -0.457281    32A     -0.443713  

    Virtual:                                                              

      33A      0.195358    34A      0.223266    35A      0.236266  
      36A      0.251228    37A      0.265732    38A      0.275268  
      39A      0.311481    40A      0.317759    41A      0.330675  
      42A      0.334461    43A      0.339833    44A      0.352175  
      45A      0.361542    46A      0.409341    47A      0.418852  
      48A      0.429047    49A      0.435192    50A      0.471079  
      51A      0.518185    52A      0.557965    53A      0.701024  
      54A      0.725792    55A      0.743734    56A      0.746808  
      57A      0.754052    58A      0.779079    59A      0.797355  
      60A      0.828822    61A      0.856581    62A      0.919585  
      63A      0.941706    64A      0.954343    65A      0.963038  
      66A      0.985276    67A      0.999453    68A      1.030830  
      69A      1.074275    70A      1.104269    71A      1.115932  
      72A      1.130025    73A      1.137429    74A      1.153968  
      75A      1.166852    76A      1.180720    77A      1.191860  
      78A      1.192428    79A      1.215425    80A      1.219744  
      81A      1.230092    82A      1.236535    83A      1.244767  
      84A      1.255195    85A      1.266409    86A      1.286934  
      87A      1.324310    88A      1.386888    89A      1.415279  
      90A      1.473369    91A      1.600609    92A      1.636357  
      93A      1.678191    94A      1.689213    95A      1.703375  
      96A      1.803275    97A      1.829330    98A      1.899159  
      99A      1.931913   100A      1.957661   101A      1.979846  
     102A      2.030418   103A      2.067480   104A      2.092128  
     105A      2.113391   106A      2.148319   107A      2.179708  
     108A      2.210867   109A      2.236255   110A      2.262595  
     111A      2.273472   112A      2.294877   113A      2.306937  
     114A      2.332738   115A      2.379217   116A      2.400603  
     117A      2.465856   118A      2.509957   119A      2.595583  
     120A      2.629311   121A      2.666247   122A      2.705604  
     123A      2.729107   124A      2.758818   125A      2.764849  
     126A      2.826043   127A      2.838917   128A      2.915910  
     129A      2.958404   130A      3.020114   131A      3.056068  
     132A      3.119259   133A      3.128015   134A      3.283987  
     135A      3.389854   136A      3.510786   137A      4.270110  
     138A      4.521191   139A      4.557609   140A      4.647237  
     141A      4.757420   142A      4.825754   143A      4.914371  
     144A      5.011359  

    Final Occupation by Irrep:
              A 
    DOCC [    32 ]

  Energy converged.

  @DF-RHF Final Energy:  -383.94876158451041

   => Energetics <=

    Nuclear Repulsion Energy =            375.9151011625505134
    One-Electron Energy =               -1267.8340659501782284
    Two-Electron Energy =                 507.9702032031175349
    DFT Exchange-Correlation Energy =       0.0000000000000000
    Empirical Dispersion Energy =           0.0000000000000000
    PCM Polarization Energy =               0.0000000000000000
    EFP Energy =                            0.0000000000000000
    Total Energy =                       -383.9487615845101800

    Alert: EFP and PCM quantities not currently incorporated into SCF psivars.

Properties will be evaluated at   0.000000,   0.000000,   0.000000 Bohr
  ==> Properties <==


Properties computed using the SCF density matrix

  Nuclear Dipole Moment: (a.u.)
     X:   -15.8354      Y:    -0.7709      Z:     0.6733

  Electronic Dipole Moment: (a.u.)
     X:    15.5484      Y:     0.2179      Z:    -0.5043

  Dipole Moment: (a.u.)
     X:    -0.2870      Y:    -0.5530      Z:     0.1690     Total:     0.6455

  Dipole Moment: (Debye)
     X:    -0.7294      Y:    -1.4055      Z:     0.4296     Total:     1.6408


  Saving occupied orbitals to File 180.

*** tstop() called on cx1-1-1-2.cx1.hpc.ic.ac.uk at Tue Jul  5 16:32:05 2016
Module time:
	user time   =      15.92 seconds =       0.27 minutes
	system time =       0.18 seconds =       0.00 minutes
	total time  =         16 seconds =       0.27 minutes
Total time:
	user time   =      15.92 seconds =       0.27 minutes
	system time =       0.18 seconds =       0.00 minutes
	total time  =         16 seconds =       0.27 minutes


Properties will be evaluated at   0.000000,   0.000000,   0.000000 Bohr

Properties computed using the  density matrix

  Nuclear Dipole Moment: (a.u.)
     X:   -15.8354      Y:    -0.7709      Z:     0.6733

  Electronic Dipole Moment: (a.u.)
     X:    15.5484      Y:     0.2179      Z:    -0.5043

  Dipole Moment: (a.u.)
     X:    -0.2870      Y:    -0.5530      Z:     0.1690     Total:     0.6455

  Dipole Moment: (Debye)
     X:    -0.7294      Y:    -1.4055      Z:     0.4296     Total:     1.6408

  Quadrupole Moment: (Debye Ang)
    XX:   -48.2511     YY:   -54.2867     ZZ:   -49.6737
    XY:    -4.9918     XZ:     1.0370     YZ:     1.4895

  Traceless Quadrupole Moment: (Debye Ang)
    XX:     2.4861     YY:    -3.5495     ZZ:     1.0635
    XY:    -4.9918     XZ:     1.0370     YZ:     1.4895

  Mulliken Charges: (a.u.)
   Center  Symbol    Alpha    Beta     Spin     Total
       1     H     0.26785  0.26785  0.00000  0.46429
       2     O     4.35158  4.35158  0.00000 -0.70317
       3     C     2.62221  2.62221  0.00000  0.75558
       4     C     3.21288  3.21288  0.00000 -0.42576
       5     O     4.27927  4.27927  0.00000 -0.55854
       6     C     3.15440  3.15440  0.00000 -0.30880
       7     H     0.39683  0.39683  0.00000  0.20633
       8     H     0.39907  0.39907  0.00000  0.20187
       9     C     3.15553  3.15553  0.00000 -0.31106
      10     H     0.41224  0.41224  0.00000  0.17553
      11     H     0.40798  0.40798  0.00000  0.18403
      12     C     3.15487  3.15487  0.00000 -0.30973
      13     H     0.41787  0.41787  0.00000  0.16425
      14     H     0.42368  0.42368  0.00000  0.15265
      15     C     3.23923  3.23923  0.00000 -0.47846
      16     H     0.42146  0.42146  0.00000  0.15707
      17     H     0.42276  0.42276  0.00000  0.15449
      18     H     0.41833  0.41833  0.00000  0.16333
      19     H     0.42064  0.42064  0.00000  0.15872
      20     H     0.42131  0.42131  0.00000  0.15738

   Total alpha = 32.00000, Total beta = 32.00000, Total charge = -0.00000



Properties will be evaluated at   0.000000,   0.000000,   0.000000 Bohr

Properties computed using the  density matrix


 Electrostatic potential computed on the grid and written to grid_esp.dat

*** PSI4 exiting successfully. Buy a developer a beer!
