    -----------------------------------------------------------------------
          Psi4: An Open-Source Ab Initio Electronic Structure Package
                              Psi4 (no tag) Driver

                          Git: Rev {detached?}  

    J. M. Turney, A. C. Simmonett, R. M. Parrish, E. G. Hohenstein,
    F. A. Evangelista, J. T. Fermann, B. J. Mintz, L. A. Burns, J. J. Wilke,
    M. L. Abrams, N. J. Russ, M. L. Leininger, C. L. Janssen, E. T. Seidl,
    W. D. Allen, H. F. Schaefer, R. A. King, E. F. Valeev, C. D. Sherrill,
    and T. D. Crawford, WIREs Comput. Mol. Sci. 2, 556-565 (2012)
    (doi: 10.1002/wcms.93)

                         Additional Contributions by
    A. E. DePrince, M. Saitow, U. Bozkaya, A. Yu. Sokolov
    -----------------------------------------------------------------------


    Psi4 started on: Tue Jul  5 16:42:20 2016

    Process ID:  32481
    PSI4DATADIR: /export131/home/mjharvey/miniconda3/share
    Memory level set to 256.000 MB

  ==> Input File <==

--------------------------------------------------------------------------
set {
	reference rhf
	basis 6-31G*
}


set_num_threads( 1 )
memory 2 gb

molecule MOL {
0 1

H	 -0.828330	 -4.079112	 -0.915784
O	 -1.347147	 -3.663038	 -1.589652
C	 -2.044060	 -2.574941	 -1.044358
C	 -1.132728	 -1.706150	 -0.195626
H	 -2.510844	 -1.969808	 -1.816553
H	 -2.830987	 -2.983884	 -0.426328
O	 -0.043959	 -1.331029	 -0.978982
H	 -0.799465	 -2.260353	 0.684019
H	 -1.682402	 -0.835395	 0.156834
C	 -0.381609	 -0.813417	 -2.226865
H	 0.366496	 -0.106062	 -2.579876
H	 -0.435693	 -1.641239	 -2.920182
H	 -1.346371	 -0.311084	 -2.200645

	symmetry c1
}
set optking {
	frozen_dihedral = ("
		8 4 3 5,
		1 2 3 5,
		10 7 4 8
	")
}

ee = energy('scf')
oeprop('DIPOLE', 'QUADRUPOLE', 'MULLIKEN_CHARGES')
f=open( 'psi4out.xyz', 'w' )
f.write( "13  " )
f.write( str(ee) + "\n" )
f.write( MOL.save_string_xyz() )
f.close()
--------------------------------------------------------------------------

  Memory set to   2.000 GiB by Python script.

*** tstart() called on cx1-49-4-2.cx1.hpc.ic.ac.uk
*** at Tue Jul  5 16:42:21 2016


         ---------------------------------------------------------
                                   SCF
            by Justin Turney, Rob Parrish, and Andy Simmonett
                              RHF Reference
                        1 Threads,   2000 MiB Core
         ---------------------------------------------------------

  ==> Geometry <==

    Molecular point group: c1
    Full point group: C1

    Geometry (in Angstrom), charge = 0, multiplicity = 1:

       Center              X                  Y                   Z               Mass       
    ------------   -----------------  -----------------  -----------------  -----------------
           H          0.159117231552    -2.036945529629     0.304218836666     1.007825032070
           O         -0.359699768448    -1.620871529629    -0.369649163334    15.994914619560
           C         -1.056612768448    -0.532774529629     0.175644836666    12.000000000000
           C         -0.145280768448     0.336016470371     1.024376836666    12.000000000000
           H         -1.523396768448     0.072358470371    -0.596550163334     1.007825032070
           H         -1.843539768448    -0.941717529629     0.793674836666     1.007825032070
           O          0.943488231552     0.711137470371     0.241020836666    15.994914619560
           H          0.187982231552    -0.218186529629     1.904021836666     1.007825032070
           H         -0.694954768448     1.206771470371     1.376836836666     1.007825032070
           C          0.605838231552     1.228749470371    -1.006862163334    12.000000000000
           H          1.353943231552     1.936104470371    -1.359873163334     1.007825032070
           H          0.551754231552     0.400927470371    -1.700179163334     1.007825032070
           H         -0.358923768448     1.731082470371    -0.980642163334     1.007825032070

  Running in c1 symmetry.

  Rotational constants: A =      0.27798  B =      0.13059  C =      0.11196 [cm^-1]
  Rotational constants: A =   8333.63755  B =   3915.12088  C =   3356.61715 [MHz]
  Nuclear repulsion =  200.951759750668941

  Charge       = 0
  Multiplicity = 1
  Electrons    = 42
  Nalpha       = 21
  Nbeta        = 21

  ==> Algorithm <==

  SCF Algorithm Type is DF.
  DIIS enabled.
  MOM disabled.
  Fractional occupation disabled.
  Guess Type is CORE.
  Energy threshold   = 1.00e-06
  Density threshold  = 1.00e-06
  Integral threshold = 0.00e+00

  ==> Primary Basis <==

  Basis Set: 6-31G*
    Number of shells: 46
    Number of basis function: 91
    Number of Cartesian functions: 91
    Spherical Harmonics?: false
    Max angular momentum: 2

  ==> Pre-Iterations <==

   -------------------------------------------------------
    Irrep   Nso     Nmo     Nalpha   Nbeta   Ndocc  Nsocc
   -------------------------------------------------------
     A         91      91       0       0       0       0
   -------------------------------------------------------
    Total      91      91      21      21      21       0
   -------------------------------------------------------

 OEINTS: Overlap, kinetic, potential, dipole, and quadrupole integrals
         stored in file 35.

  ==> Integral Setup <==

  ==> DFJK: Density-Fitted J/K Matrices <==

    J tasked:                  Yes
    K tasked:                  Yes
    wK tasked:                  No
    OpenMP threads:              1
    Integrals threads:           1
    Memory (MB):              1430
    Algorithm:                Core
    Integral Cache:           NONE
    Schwarz Cutoff:          1E-12
    Fitting Condition:       1E-12

   => Auxiliary Basis Set <=

  Basis Set: 
    Number of shells: 192
    Number of basis function: 605
    Number of Cartesian functions: 605
    Spherical Harmonics?: false
    Max angular momentum: 3

  Minimum eigenvalue in the overlap matrix is 4.3806840308E-03.
  Using Symmetric Orthogonalization.
  SCF Guess: Core (One-Electron) Hamiltonian.

  ==> Iterations <==

                           Total Energy        Delta E     RMS |[F,P]|

   @DF-RHF iter   1:  -224.23994323027915   -2.24240e+02   7.95146e-02 
   @DF-RHF iter   2:  -184.11136965109228    4.01286e+01   7.17090e-02 DIIS
   @DF-RHF iter   3:  -248.06309934319734   -6.39517e+01   4.64321e-02 DIIS
   @DF-RHF iter   4:  -263.08416150500648   -1.50211e+01   3.01018e-02 DIIS
   @DF-RHF iter   5:  -267.60246010809874   -4.51830e+00   9.99557e-03 DIIS
   @DF-RHF iter   6:  -267.89991799695986   -2.97458e-01   2.78233e-03 DIIS
   @DF-RHF iter   7:  -267.92743934191668   -2.75213e-02   1.39674e-03 DIIS
   @DF-RHF iter   8:  -267.93516951241492   -7.73017e-03   4.32931e-04 DIIS
   @DF-RHF iter   9:  -267.93605292996045   -8.83418e-04   1.74373e-04 DIIS
   @DF-RHF iter  10:  -267.93619652177438   -1.43592e-04   4.60562e-05 DIIS
   @DF-RHF iter  11:  -267.93620757941039   -1.10576e-05   1.22193e-05 DIIS
   @DF-RHF iter  12:  -267.93620848260321   -9.03193e-07   3.43016e-06 DIIS
   @DF-RHF iter  13:  -267.93620857296435   -9.03611e-08   6.34151e-07 DIIS

  ==> Post-Iterations <==

    Orbital Energies (a.u.)
    -----------------------

    Doubly Occupied:                                                      

       1A    -20.556408     2A    -20.554284     3A    -11.277280  
       4A    -11.271597     5A    -11.261909     6A     -1.390716  
       7A     -1.356846     8A     -1.013288     9A     -0.935476  
      10A     -0.827040    11A     -0.699363    12A     -0.678808  
      13A     -0.672358    14A     -0.624618    15A     -0.604238  
      16A     -0.574214    17A     -0.534427    18A     -0.507048  
      19A     -0.466666    20A     -0.446706    21A     -0.405660  

    Virtual:                                                              

      22A      0.222232    23A      0.250690    24A      0.286725  
      25A      0.295684    26A      0.309361    27A      0.315534  
      28A      0.326337    29A      0.350723    30A      0.378971  
      31A      0.399124    32A      0.433693    33A      0.465646  
      34A      0.751372    35A      0.765187    36A      0.786863  
      37A      0.797291    38A      0.818028    39A      0.823859  
      40A      0.890005    41A      0.945619    42A      1.058306  
      43A      1.080551    44A      1.092871    45A      1.119676  
      46A      1.134701    47A      1.143680    48A      1.171902  
      49A      1.180146    50A      1.208553    51A      1.239645  
      52A      1.250307    53A      1.300882    54A      1.341990  
      55A      1.377061    56A      1.437989    57A      1.483792  
      58A      1.592979    59A      1.625458    60A      1.707661  
      61A      1.744587    62A      1.818619    63A      1.861807  
      64A      1.885879    65A      1.978996    66A      2.102468  
      67A      2.163145    68A      2.193811    69A      2.261705  
      70A      2.395788    71A      2.409809    72A      2.446313  
      73A      2.457731    74A      2.500074    75A      2.569092  
      76A      2.622266    77A      2.683546    78A      2.746112  
      79A      2.752693    80A      2.810946    81A      2.897067  
      82A      2.910926    83A      3.019451    84A      3.165015  
      85A      3.222721    86A      3.307488    87A      4.176058  
      88A      4.399670    89A      4.665750    90A      4.686409  
      91A      4.884240  

    Final Occupation by Irrep:
              A 
    DOCC [    21 ]

  Energy converged.

  @DF-RHF Final Energy:  -267.93620857296435

   => Energetics <=

    Nuclear Repulsion Energy =            200.9517597506689413
    One-Electron Energy =                -764.4580364169542008
    Two-Electron Energy =                 295.5700680933208560
    DFT Exchange-Correlation Energy =       0.0000000000000000
    Empirical Dispersion Energy =           0.0000000000000000
    PCM Polarization Energy =               0.0000000000000000
    EFP Energy =                            0.0000000000000000
    Total Energy =                       -267.9362085729643468

    Alert: EFP and PCM quantities not currently incorporated into SCF psivars.

Properties will be evaluated at   0.000000,   0.000000,   0.000000 Bohr
  ==> Properties <==


Properties computed using the SCF density matrix

  Nuclear Dipole Moment: (a.u.)
     X:    -2.0296      Y:     2.0116      Z:    -0.2429

  Electronic Dipole Moment: (a.u.)
     X:     1.5275      Y:    -1.7683      Z:     0.6956

  Dipole Moment: (a.u.)
     X:    -0.5021      Y:     0.2433      Z:     0.4527     Total:     0.7185

  Dipole Moment: (Debye)
     X:    -1.2763      Y:     0.6184      Z:     1.1506     Total:     1.8263


  Saving occupied orbitals to File 180.

*** tstop() called on cx1-49-4-2.cx1.hpc.ic.ac.uk at Tue Jul  5 16:42:26 2016
Module time:
	user time   =       4.79 seconds =       0.08 minutes
	system time =       0.05 seconds =       0.00 minutes
	total time  =          5 seconds =       0.08 minutes
Total time:
	user time   =       4.79 seconds =       0.08 minutes
	system time =       0.05 seconds =       0.00 minutes
	total time  =          5 seconds =       0.08 minutes


Properties will be evaluated at   0.000000,   0.000000,   0.000000 Bohr

Properties computed using the  density matrix

  Nuclear Dipole Moment: (a.u.)
     X:    -2.0296      Y:     2.0116      Z:    -0.2429

  Electronic Dipole Moment: (a.u.)
     X:     1.5275      Y:    -1.7683      Z:     0.6956

  Dipole Moment: (a.u.)
     X:    -0.5021      Y:     0.2433      Z:     0.4527     Total:     0.7185

  Dipole Moment: (Debye)
     X:    -1.2763      Y:     0.6184      Z:     1.1506     Total:     1.8263

  Quadrupole Moment: (Debye Ang)
    XX:   -32.8543     YY:   -31.1156     ZZ:   -29.7399
    XY:    -2.5945     XZ:    -1.6121     YZ:    -5.0711

  Traceless Quadrupole Moment: (Debye Ang)
    XX:    -1.6177     YY:     0.1210     ZZ:     1.4967
    XY:    -2.5945     XZ:    -1.6121     YZ:    -5.0711

  Mulliken Charges: (a.u.)
   Center  Symbol    Alpha    Beta     Spin     Total
       1     H     0.27897  0.27897  0.00000  0.44205
       2     O     4.36739  4.36739  0.00000 -0.73479
       3     C     3.01400  3.01400  0.00000 -0.02800
       4     C     3.01010  3.01010  0.00000 -0.02021
       5     H     0.41178  0.41178  0.00000  0.17645
       6     H     0.42476  0.42476  0.00000  0.15049
       7     O     4.30012  4.30012  0.00000 -0.60023
       8     H     0.41852  0.41852  0.00000  0.16296
       9     H     0.42702  0.42702  0.00000  0.14595
      10     C     3.09432  3.09432  0.00000 -0.18863
      11     H     0.41234  0.41234  0.00000  0.17532
      12     H     0.40798  0.40798  0.00000  0.18404
      13     H     0.43270  0.43270  0.00000  0.13460

   Total alpha = 21.00000, Total beta = 21.00000, Total charge = -0.00000


*** PSI4 exiting successfully. Buy a developer a beer!
