    -----------------------------------------------------------------------
          Psi4: An Open-Source Ab Initio Electronic Structure Package
                              Psi4 (no tag) Driver

                          Git: Rev {detached?}  

    J. M. Turney, A. C. Simmonett, R. M. Parrish, E. G. Hohenstein,
    F. A. Evangelista, J. T. Fermann, B. J. Mintz, L. A. Burns, J. J. Wilke,
    M. L. Abrams, N. J. Russ, M. L. Leininger, C. L. Janssen, E. T. Seidl,
    W. D. Allen, H. F. Schaefer, R. A. King, E. F. Valeev, C. D. Sherrill,
    and T. D. Crawford, WIREs Comput. Mol. Sci. 2, 556-565 (2012)
    (doi: 10.1002/wcms.93)

                         Additional Contributions by
    A. E. DePrince, M. Saitow, U. Bozkaya, A. Yu. Sokolov
    -----------------------------------------------------------------------


    Psi4 started on: Tue Jul  5 16:28:31 2016

    Process ID:  13493
    PSI4DATADIR: /export131/home/mjharvey/miniconda3/share
    Memory level set to 256.000 MB

  ==> Input File <==

--------------------------------------------------------------------------
set {
	reference rhf
	basis 6-31G*
}


set_num_threads( 1 )
memory 2 gb

molecule MOL {
0 1

H	 2.714978	 -0.113474	 0.662409
N	 1.736392	 0.095141	 0.676928
C	 0.991223	 -1.006381	 1.258380
C	 1.264389	 0.408481	 -0.659388
H	 1.363848	 -1.193550	 2.259823
H	 1.092636	 -1.929403	 0.682718
C	 -0.481831	 -0.631884	 1.323921
H	 1.834834	 1.245924	 -1.046752
H	 1.382347	 -0.428847	 -1.351203
C	 -0.208834	 0.782102	 -0.592660
H	 -0.607439	 0.201659	 2.021436
H	 -1.053337	 -1.471598	 1.705767
N	 -0.975995	 -0.298722	 0.000000
H	 -0.583192	 0.963519	 -1.594903
H	 -0.316153	 1.710376	 -0.023548
C	 -2.393863	 -0.024976	 0.000000
H	 -2.854032	 -0.467193	 -0.876721
H	 -2.854032	 -0.467193	 0.876721
H	 -2.623281	 1.044943	 0.000000

	symmetry c1
}
ee = energy('scf')
oeprop('DIPOLE', 'QUADRUPOLE', 'MULLIKEN_CHARGES')
f=open( 'psi4out.xyz', 'w' )
f.write( "19  " )
f.write( str(ee) + "\n" )
f.write( MOL.save_string_xyz() )
f.close()
--------------------------------------------------------------------------

  Memory set to   2.000 GiB by Python script.

*** tstart() called on cx1-3-2-1.cx1.hpc.ic.ac.uk
*** at Tue Jul  5 16:28:31 2016


         ---------------------------------------------------------
                                   SCF
            by Justin Turney, Rob Parrish, and Andy Simmonett
                              RHF Reference
                        1 Threads,   2000 MiB Core
         ---------------------------------------------------------

  ==> Geometry <==

    Molecular point group: c1
    Full point group: C1

    Geometry (in Angstrom), charge = 0, multiplicity = 1:

       Center              X                  Y                   Z               Mass       
    ------------   -----------------  -----------------  -----------------  -----------------
           H          2.733174836420    -0.019222565172     0.374858672421     1.007825032070
           N          1.754588836420     0.189392434828     0.389377672421    14.003074004780
           C          1.009419836420    -0.912129565172     0.970829672421    12.000000000000
           C          1.282585836420     0.502732434828    -0.946938327579    12.000000000000
           H          1.382044836420    -1.099298565172     1.972272672421     1.007825032070
           H          1.110832836420    -1.835151565172     0.395167672421     1.007825032070
           C         -0.463634163580    -0.537632565172     1.036370672421    12.000000000000
           H          1.853030836420     1.340175434828    -1.334302327579     1.007825032070
           H          1.400543836420    -0.334595565172    -1.638753327579     1.007825032070
           C         -0.190637163580     0.876353434828    -0.880210327579    12.000000000000
           H         -0.589242163580     0.295910434828     1.733885672421     1.007825032070
           H         -1.035140163580    -1.377346565172     1.418216672421     1.007825032070
           N         -0.957798163580    -0.204470565172    -0.287550327579    14.003074004780
           H         -0.564995163580     1.057770434828    -1.882453327579     1.007825032070
           H         -0.297956163580     1.804627434828    -0.311098327579     1.007825032070
           C         -2.375666163580     0.069275434828    -0.287550327579    12.000000000000
           H         -2.835835163580    -0.372941565172    -1.164271327579     1.007825032070
           H         -2.835835163580    -0.372941565172     0.589170672421     1.007825032070
           H         -2.605084163580     1.139194434828    -0.287550327579     1.007825032070

  Running in c1 symmetry.

  Rotational constants: A =      0.15717  B =      0.07859  C =      0.05697 [cm^-1]
  Rotational constants: A =   4711.81839  B =   2355.96112  C =   1707.82210 [MHz]
  Nuclear repulsion =  339.915684841838186

  Charge       = 0
  Multiplicity = 1
  Electrons    = 56
  Nalpha       = 28
  Nbeta        = 28

  ==> Algorithm <==

  SCF Algorithm Type is DF.
  DIIS enabled.
  MOM disabled.
  Fractional occupation disabled.
  Guess Type is CORE.
  Energy threshold   = 1.00e-06
  Density threshold  = 1.00e-06
  Integral threshold = 0.00e+00

  ==> Primary Basis <==

  Basis Set: 6-31G*
    Number of shells: 66
    Number of basis function: 129
    Number of Cartesian functions: 129
    Spherical Harmonics?: false
    Max angular momentum: 2

  ==> Pre-Iterations <==

   -------------------------------------------------------
    Irrep   Nso     Nmo     Nalpha   Nbeta   Ndocc  Nsocc
   -------------------------------------------------------
     A        129     129       0       0       0       0
   -------------------------------------------------------
    Total     129     129      28      28      28       0
   -------------------------------------------------------

 OEINTS: Overlap, kinetic, potential, dipole, and quadrupole integrals
         stored in file 35.

  ==> Integral Setup <==

  ==> DFJK: Density-Fitted J/K Matrices <==

    J tasked:                  Yes
    K tasked:                  Yes
    wK tasked:                  No
    OpenMP threads:              1
    Integrals threads:           1
    Memory (MB):              1430
    Algorithm:                Core
    Integral Cache:           NONE
    Schwarz Cutoff:          1E-12
    Fitting Condition:       1E-12

   => Auxiliary Basis Set <=

  Basis Set: 
    Number of shells: 276
    Number of basis function: 867
    Number of Cartesian functions: 867
    Spherical Harmonics?: false
    Max angular momentum: 3

  Minimum eigenvalue in the overlap matrix is 3.3740486707E-03.
  Using Symmetric Orthogonalization.
  SCF Guess: Core (One-Electron) Hamiltonian.

  ==> Iterations <==

                           Total Energy        Delta E     RMS |[F,P]|

   @DF-RHF iter   1:  -233.38847769118019   -2.33388e+02   7.07203e-02 
   @DF-RHF iter   2:  -174.68108182053874    5.87074e+01   7.24526e-02 DIIS
   @DF-RHF iter   3:  -254.20384427649464   -7.95228e+01   5.22766e-02 DIIS
   @DF-RHF iter   4:  -253.35789389598500    8.45950e-01   6.22644e-02 DIIS
   @DF-RHF iter   5:  -304.76239994963606   -5.14045e+01   6.91882e-03 DIIS
   @DF-RHF iter   6:  -305.16159558383907   -3.99196e-01   1.94544e-03 DIIS
   @DF-RHF iter   7:  -305.19011672406651   -2.85211e-02   6.98289e-04 DIIS
   @DF-RHF iter   8:  -305.19432937238304   -4.21265e-03   2.16157e-04 DIIS
   @DF-RHF iter   9:  -305.19492820244517   -5.98830e-04   6.03960e-05 DIIS
   @DF-RHF iter  10:  -305.19496420775630   -3.60053e-05   2.63369e-05 DIIS
   @DF-RHF iter  11:  -305.19497335284638   -9.14509e-06   4.84196e-06 DIIS
   @DF-RHF iter  12:  -305.19497368912670   -3.36280e-07   1.50018e-06 DIIS
   @DF-RHF iter  13:  -305.19497371481867   -2.56920e-08   4.43409e-07 DIIS

  ==> Post-Iterations <==

    Orbital Energies (a.u.)
    -----------------------

    Doubly Occupied:                                                      

       1A    -15.538794     2A    -15.536328     3A    -11.238167  
       4A    -11.238047     5A    -11.237172     6A    -11.236931  
       7A    -11.233783     8A     -1.246971     9A     -1.185329  
      10A     -1.022708    11A     -0.964055    12A     -0.861051  
      13A     -0.856819    14A     -0.757517    15A     -0.690623  
      16A     -0.631949    17A     -0.624660    18A     -0.607194  
      19A     -0.604111    20A     -0.579644    21A     -0.544121  
      22A     -0.532398    23A     -0.511487    24A     -0.488734  
      25A     -0.465696    26A     -0.455706    27A     -0.362872  
      28A     -0.343288  

    Virtual:                                                              

      29A      0.230845    30A      0.252089    31A      0.280574  
      32A      0.288058    33A      0.294564    34A      0.311712  
      35A      0.317901    36A      0.328682    37A      0.340015  
      38A      0.346972    39A      0.354704    40A      0.355147  
      41A      0.368233    42A      0.409058    43A      0.434866  
      44A      0.439241    45A      0.465135    46A      0.475024  
      47A      0.496756    48A      0.727344    49A      0.745637  
      50A      0.760204    51A      0.788381    52A      0.791263  
      53A      0.814802    54A      0.845556    55A      0.862751  
      56A      0.888226    57A      0.914563    58A      0.954510  
      59A      0.956539    60A      0.993877    61A      1.042760  
      62A      1.062671    63A      1.091073    64A      1.104007  
      65A      1.130566    66A      1.132700    67A      1.142438  
      68A      1.151383    69A      1.155913    70A      1.173325  
      71A      1.185319    72A      1.205310    73A      1.212247  
      74A      1.236518    75A      1.247868    76A      1.269597  
      77A      1.275275    78A      1.289358    79A      1.331366  
      80A      1.415126    81A      1.526069    82A      1.542649  
      83A      1.619025    84A      1.641728    85A      1.682674  
      86A      1.711748    87A      1.779898    88A      1.856380  
      89A      1.885295    90A      2.016004    91A      2.054353  
      92A      2.082767    93A      2.135541    94A      2.184735  
      95A      2.224474    96A      2.292735    97A      2.311440  
      98A      2.317183    99A      2.336224   100A      2.342161  
     101A      2.397009   102A      2.432178   103A      2.444205  
     104A      2.486150   105A      2.551020   106A      2.582941  
     107A      2.616419   108A      2.631017   109A      2.655775  
     110A      2.676066   111A      2.743126   112A      2.753330  
     113A      2.806675   114A      2.875705   115A      2.907329  
     116A      2.918207   117A      3.059067   118A      3.120281  
     119A      3.135303   120A      3.178834   121A      3.236381  
     122A      3.267666   123A      4.357610   124A      4.528161  
     125A      4.661196   126A      4.693650   127A      4.799704  
     128A      4.953309   129A      4.976849  

    Final Occupation by Irrep:
              A 
    DOCC [    28 ]

  Energy converged.

  @DF-RHF Final Energy:  -305.19497371481867

   => Energetics <=

    Nuclear Repulsion Energy =            339.9156848418381855
    One-Electron Energy =               -1087.0289771103434759
    Two-Electron Energy =                 441.9183185536852534
    DFT Exchange-Correlation Energy =       0.0000000000000000
    Empirical Dispersion Energy =           0.0000000000000000
    PCM Polarization Energy =               0.0000000000000000
    EFP Energy =                            0.0000000000000000
    Total Energy =                       -305.1949737148200938

    Alert: EFP and PCM quantities not currently incorporated into SCF psivars.

Properties will be evaluated at   0.000000,   0.000000,   0.000000 Bohr
  ==> Properties <==


Properties computed using the SCF density matrix

  Nuclear Dipole Moment: (a.u.)
     X:    -2.1439      Y:     0.2121      Z:    -0.1267

  Electronic Dipole Moment: (a.u.)
     X:     2.2189      Y:    -0.3058      Z:     0.0931

  Dipole Moment: (a.u.)
     X:     0.0749      Y:    -0.0937      Z:    -0.0336     Total:     0.1246

  Dipole Moment: (Debye)
     X:     0.1905      Y:    -0.2382      Z:    -0.0854     Total:     0.3168


  Saving occupied orbitals to File 180.

*** tstop() called on cx1-3-2-1.cx1.hpc.ic.ac.uk at Tue Jul  5 16:28:43 2016
Module time:
	user time   =      11.83 seconds =       0.20 minutes
	system time =       0.08 seconds =       0.00 minutes
	total time  =         12 seconds =       0.20 minutes
Total time:
	user time   =      11.83 seconds =       0.20 minutes
	system time =       0.08 seconds =       0.00 minutes
	total time  =         12 seconds =       0.20 minutes


Properties will be evaluated at   0.000000,   0.000000,   0.000000 Bohr

Properties computed using the  density matrix

  Nuclear Dipole Moment: (a.u.)
     X:    -2.1439      Y:     0.2121      Z:    -0.1267

  Electronic Dipole Moment: (a.u.)
     X:     2.2189      Y:    -0.3058      Z:     0.0931

  Dipole Moment: (a.u.)
     X:     0.0749      Y:    -0.0937      Z:    -0.0336     Total:     0.1246

  Dipole Moment: (Debye)
     X:     0.1905      Y:    -0.2382      Z:    -0.0854     Total:     0.3168

  Quadrupole Moment: (Debye Ang)
    XX:   -41.1534     YY:   -46.1384     ZZ:   -44.7439
    XY:    -1.8978     XZ:    -1.4851     YZ:    -3.0929

  Traceless Quadrupole Moment: (Debye Ang)
    XX:     2.8585     YY:    -2.1265     ZZ:    -0.7320
    XY:    -1.8978     XZ:    -1.4851     YZ:    -3.0929

  Mulliken Charges: (a.u.)
   Center  Symbol    Alpha    Beta     Spin     Total
       1     H     0.32950  0.32950  0.00000  0.34099
       2     N     3.85430  3.85430  0.00000 -0.70859
       3     C     3.06358  3.06358  0.00000 -0.12716
       4     C     3.06351  3.06351  0.00000 -0.12703
       5     H     0.41780  0.41780  0.00000  0.16440
       6     H     0.42770  0.42770  0.00000  0.14459
       7     C     3.05723  3.05723  0.00000 -0.11447
       8     H     0.41777  0.41777  0.00000  0.16447
       9     H     0.42763  0.42763  0.00000  0.14473
      10     C     3.05653  3.05653  0.00000 -0.11305
      11     H     0.42835  0.42835  0.00000  0.14331
      12     H     0.41813  0.41813  0.00000  0.16375
      13     N     3.78757  3.78757  0.00000 -0.57513
      14     H     0.41793  0.41793  0.00000  0.16413
      15     H     0.42752  0.42752  0.00000  0.14495
      16     C     3.14010  3.14010  0.00000 -0.28020
      17     H     0.41604  0.41604  0.00000  0.16791
      18     H     0.42014  0.42014  0.00000  0.15971
      19     H     0.42866  0.42866  0.00000  0.14268

   Total alpha = 28.00000, Total beta = 28.00000, Total charge = -0.00000


*** PSI4 exiting successfully. Buy a developer a beer!
