    -----------------------------------------------------------------------
          Psi4: An Open-Source Ab Initio Electronic Structure Package
                              Psi4 (no tag) Driver

                          Git: Rev {detached?}  

    J. M. Turney, A. C. Simmonett, R. M. Parrish, E. G. Hohenstein,
    F. A. Evangelista, J. T. Fermann, B. J. Mintz, L. A. Burns, J. J. Wilke,
    M. L. Abrams, N. J. Russ, M. L. Leininger, C. L. Janssen, E. T. Seidl,
    W. D. Allen, H. F. Schaefer, R. A. King, E. F. Valeev, C. D. Sherrill,
    and T. D. Crawford, WIREs Comput. Mol. Sci. 2, 556-565 (2012)
    (doi: 10.1002/wcms.93)

                         Additional Contributions by
    A. E. DePrince, M. Saitow, U. Bozkaya, A. Yu. Sokolov
    -----------------------------------------------------------------------


    Psi4 started on: Tue Jul  5 16:44:01 2016

    Process ID:  23699
    PSI4DATADIR: /export131/home/mjharvey/miniconda3/share
    Memory level set to 256.000 MB

  ==> Input File <==

--------------------------------------------------------------------------
set {
	reference rhf
	basis 6-31G*
}


set_num_threads( 1 )
memory 2 gb

molecule MOL {
0 1

H	 -1.354288	 3.053275	 0.125915
N	 -1.265624	 3.212699	 1.110937
C	 -1.460920	 1.975768	 1.853490
H	 -1.965859	 3.885592	 1.359364
C	 -0.435163	 0.928932	 1.431930
H	 -2.458596	 1.610775	 1.629255
H	 -1.414112	 2.113505	 2.936650
C	 -0.679275	 0.379305	 0.025956
H	 0.554019	 1.373218	 1.494890
H	 -0.450378	 0.107436	 2.147646
C	 -0.791153	 1.473151	 -1.037697
H	 -1.591837	 -0.214897	 0.024303
H	 0.126996	 -0.300826	 -0.244591
C	 -2.115055	 2.234023	 -0.975523
H	 0.033362	 2.173024	 -0.921214
H	 -0.676491	 1.028719	 -2.024099
H	 -2.243718	 2.718807	 -0.011807
H	 -2.163946	 3.002377	 -1.740928
H	 -2.958889	 1.565841	 -1.123406

	symmetry c1
}
set optking {
	frozen_dihedral = ("
		6 3 5 9,
		12 8 5 9,
		12 8 11 15
	")
}

ee = energy('scf')
oeprop('DIPOLE', 'QUADRUPOLE', 'MULLIKEN_CHARGES')
f=open( 'psi4out.xyz', 'w' )
f.write( "19  " )
f.write( str(ee) + "\n" )
f.write( MOL.save_string_xyz() )
f.close()
--------------------------------------------------------------------------

  Memory set to   2.000 GiB by Python script.

*** tstart() called on cx1-3-3-2.cx1.hpc.ic.ac.uk
*** at Tue Jul  5 16:44:02 2016


         ---------------------------------------------------------
                                   SCF
            by Justin Turney, Rob Parrish, and Andy Simmonett
                              RHF Reference
                        1 Threads,   2000 MiB Core
         ---------------------------------------------------------

  ==> Geometry <==

    Molecular point group: c1
    Full point group: C1

    Geometry (in Angstrom), charge = 0, multiplicity = 1:

       Center              X                  Y                   Z               Mass       
    ------------   -----------------  -----------------  -----------------  -----------------
           H         -0.204009623003     1.317759599184    -0.273775488949     1.007825032070
           N         -0.115345623003     1.477183599184     0.711246511051    14.003074004780
           C         -0.310641623003     0.240252599184     1.453799511051    12.000000000000
           H         -0.815580623003     2.150076599184     0.959673511051     1.007825032070
           C          0.715115376997    -0.806583400816     1.032239511051    12.000000000000
           H         -1.308317623003    -0.124740400816     1.229564511051     1.007825032070
           H         -0.263833623003     0.377989599184     2.536959511051     1.007825032070
           C          0.471003376997    -1.356210400816    -0.373734488949    12.000000000000
           H          1.704297376997    -0.362297400816     1.095199511051     1.007825032070
           H          0.699900376997    -1.628079400816     1.747955511051     1.007825032070
           C          0.359125376997    -0.262364400816    -1.437387488949    12.000000000000
           H         -0.441558623003    -1.950412400816    -0.375387488949     1.007825032070
           H          1.277274376997    -2.036341400816    -0.644281488949     1.007825032070
           C         -0.964776623003     0.498507599184    -1.375213488949    12.000000000000
           H          1.183640376997     0.437508599184    -1.320904488949     1.007825032070
           H          0.473787376997    -0.706796400816    -2.423789488949     1.007825032070
           H         -1.093439623003     0.983291599184    -0.411497488949     1.007825032070
           H         -1.013667623003     1.266861599184    -2.140618488949     1.007825032070
           H         -1.808610623003    -0.169674400816    -1.523096488949     1.007825032070

  Running in c1 symmetry.

  Rotational constants: A =      0.14008  B =      0.11589  C =      0.07419 [cm^-1]
  Rotational constants: A =   4199.53985  B =   3474.36767  C =   2224.24694 [MHz]
  Nuclear repulsion =  273.455576239427216

  Charge       = 0
  Multiplicity = 1
  Electrons    = 50
  Nalpha       = 25
  Nbeta        = 25

  ==> Algorithm <==

  SCF Algorithm Type is DF.
  DIIS enabled.
  MOM disabled.
  Fractional occupation disabled.
  Guess Type is CORE.
  Energy threshold   = 1.00e-06
  Density threshold  = 1.00e-06
  Integral threshold = 0.00e+00

  ==> Primary Basis <==

  Basis Set: 6-31G*
    Number of shells: 62
    Number of basis function: 116
    Number of Cartesian functions: 116
    Spherical Harmonics?: false
    Max angular momentum: 2

  ==> Pre-Iterations <==

   -------------------------------------------------------
    Irrep   Nso     Nmo     Nalpha   Nbeta   Ndocc  Nsocc
   -------------------------------------------------------
     A        116     116       0       0       0       0
   -------------------------------------------------------
    Total     116     116      25      25      25       0
   -------------------------------------------------------

 OEINTS: Overlap, kinetic, potential, dipole, and quadrupole integrals
         stored in file 35.

  ==> Integral Setup <==

  ==> DFJK: Density-Fitted J/K Matrices <==

    J tasked:                  Yes
    K tasked:                  Yes
    wK tasked:                  No
    OpenMP threads:              1
    Integrals threads:           1
    Memory (MB):              1430
    Algorithm:                Core
    Integral Cache:           NONE
    Schwarz Cutoff:          1E-12
    Fitting Condition:       1E-12

   => Auxiliary Basis Set <=

  Basis Set: 
    Number of shells: 261
    Number of basis function: 811
    Number of Cartesian functions: 811
    Spherical Harmonics?: false
    Max angular momentum: 3

  Minimum eigenvalue in the overlap matrix is 4.3828825371E-03.
  Using Symmetric Orthogonalization.
  SCF Guess: Core (One-Electron) Hamiltonian.

  ==> Iterations <==

                           Total Energy        Delta E     RMS |[F,P]|

   @DF-RHF iter   1:  -197.23122597505795   -1.97231e+02   7.12610e-02 
   @DF-RHF iter   2:  -172.39685836102757    2.48344e+01   6.63512e-02 DIIS
   @DF-RHF iter   3:  -212.51127147705648   -4.01144e+01   4.55737e-02 DIIS
   @DF-RHF iter   4:  -220.47748762989039   -7.96622e+00   5.25671e-02 DIIS
   @DF-RHF iter   5:  -251.01106635619345   -3.05336e+01   5.04333e-03 DIIS
   @DF-RHF iter   6:  -251.18512313914272   -1.74057e-01   2.30502e-03 DIIS
   @DF-RHF iter   7:  -251.21526476532887   -3.01416e-02   7.85462e-04 DIIS
   @DF-RHF iter   8:  -251.22025475587481   -4.98999e-03   3.15130e-04 DIIS
   @DF-RHF iter   9:  -251.22110933484993   -8.54579e-04   1.26829e-04 DIIS
   @DF-RHF iter  10:  -251.22125845485090   -1.49120e-04   2.63366e-05 DIIS
   @DF-RHF iter  11:  -251.22126580374396   -7.34889e-06   7.63810e-06 DIIS
   @DF-RHF iter  12:  -251.22126639056711   -5.86823e-07   2.96031e-06 DIIS
   @DF-RHF iter  13:  -251.22126649359342   -1.03026e-07   4.67314e-07 DIIS

  ==> Post-Iterations <==

    Orbital Energies (a.u.)
    -----------------------

    Doubly Occupied:                                                      

       1A    -15.510181     2A    -11.241476     3A    -11.218412  
       4A    -11.215151     5A    -11.211479     6A    -11.194600  
       7A     -1.213230     8A     -1.069764     9A     -1.025008  
      10A     -0.902025    11A     -0.849727    12A     -0.775007  
      13A     -0.715493    14A     -0.640455    15A     -0.617362  
      16A     -0.590576    17A     -0.576541    18A     -0.568324  
      19A     -0.523351    20A     -0.502948    21A     -0.480632  
      22A     -0.463412    23A     -0.451310    24A     -0.445276  
      25A     -0.350702  

    Virtual:                                                              

      26A      0.230631    27A      0.261424    28A      0.268924  
      29A      0.274748    30A      0.294064    31A      0.304370  
      32A      0.325229    33A      0.332328    34A      0.335147  
      35A      0.340908    36A      0.356401    37A      0.383399  
      38A      0.399588    39A      0.421022    40A      0.428882  
      41A      0.459242    42A      0.485870    43A      0.511896  
      44A      0.703207    45A      0.726400    46A      0.741475  
      47A      0.749196    48A      0.789656    49A      0.798977  
      50A      0.876916    51A      0.912014    52A      0.927764  
      53A      0.963475    54A      0.972337    55A      0.985057  
      56A      1.019130    57A      1.036353    58A      1.107624  
      59A      1.131029    60A      1.141055    61A      1.143257  
      62A      1.161163    63A      1.170571    64A      1.184620  
      65A      1.201651    66A      1.220294    67A      1.236872  
      68A      1.241524    69A      1.245709    70A      1.258826  
      71A      1.272124    72A      1.290802    73A      1.323283  
      74A      1.373596    75A      1.453286    76A      1.582984  
      77A      1.629357    78A      1.723393    79A      1.794610  
      80A      1.808578    81A      1.839972    82A      1.893308  
      83A      1.923706    84A      2.021168    85A      2.060935  
      86A      2.130261    87A      2.193373    88A      2.241988  
      89A      2.257455    90A      2.266141    91A      2.305197  
      92A      2.351729    93A      2.394168    94A      2.442096  
      95A      2.482127    96A      2.535648    97A      2.619504  
      98A      2.633557    99A      2.672996   100A      2.703938  
     101A      2.714443   102A      2.764549   103A      2.773886  
     104A      2.811677   105A      2.937496   106A      2.962878  
     107A      2.999444   108A      3.001680   109A      3.095999  
     110A      3.141087   111A      4.370910   112A      4.585348  
     113A      4.714569   114A      4.803569   115A      4.950570  
     116A      4.995737  

    Final Occupation by Irrep:
              A 
    DOCC [    25 ]

  Energy converged.

  @DF-RHF Final Energy:  -251.22126649359342

   => Energetics <=

    Nuclear Repulsion Energy =            273.4555762394272165
    One-Electron Energy =                -880.6486553099390449
    Two-Electron Energy =                 355.9718125769189783
    DFT Exchange-Correlation Energy =       0.0000000000000000
    Empirical Dispersion Energy =           0.0000000000000000
    PCM Polarization Energy =               0.0000000000000000
    EFP Energy =                            0.0000000000000000
    Total Energy =                       -251.2212664935929070

    Alert: EFP and PCM quantities not currently incorporated into SCF psivars.

Properties will be evaluated at   0.000000,   0.000000,   0.000000 Bohr
  ==> Properties <==


Properties computed using the SCF density matrix

  Nuclear Dipole Moment: (a.u.)
     X:    -1.5091      Y:    -0.4213      Z:    -1.4495

  Electronic Dipole Moment: (a.u.)
     X:     1.0709      Y:     0.2116      Z:     1.3459

  Dipole Moment: (a.u.)
     X:    -0.4382      Y:    -0.2097      Z:    -0.1036     Total:     0.4967

  Dipole Moment: (Debye)
     X:    -1.1138      Y:    -0.5330      Z:    -0.2634     Total:     1.2626


  Saving occupied orbitals to File 180.

*** tstop() called on cx1-3-3-2.cx1.hpc.ic.ac.uk at Tue Jul  5 16:44:10 2016
Module time:
	user time   =       8.44 seconds =       0.14 minutes
	system time =       0.05 seconds =       0.00 minutes
	total time  =          8 seconds =       0.13 minutes
Total time:
	user time   =       8.44 seconds =       0.14 minutes
	system time =       0.05 seconds =       0.00 minutes
	total time  =          8 seconds =       0.13 minutes


Properties will be evaluated at   0.000000,   0.000000,   0.000000 Bohr

Properties computed using the  density matrix

  Nuclear Dipole Moment: (a.u.)
     X:    -1.5091      Y:    -0.4213      Z:    -1.4495

  Electronic Dipole Moment: (a.u.)
     X:     1.0709      Y:     0.2116      Z:     1.3459

  Dipole Moment: (a.u.)
     X:    -0.4382      Y:    -0.2097      Z:    -0.1036     Total:     0.4967

  Dipole Moment: (Debye)
     X:    -1.1138      Y:    -0.5330      Z:    -0.2634     Total:     1.2626

  Quadrupole Moment: (Debye Ang)
    XX:   -41.2450     YY:   -41.8005     ZZ:   -40.6111
    XY:    -3.1672     XZ:    -1.7519     YZ:    -1.1733

  Traceless Quadrupole Moment: (Debye Ang)
    XX:    -0.0261     YY:    -0.5817     ZZ:     0.6078
    XY:    -3.1672     XZ:    -1.7519     YZ:    -1.1733

  Mulliken Charges: (a.u.)
   Center  Symbol    Alpha    Beta     Spin     Total
       1     H     0.29413  0.29413  0.00000  0.41174
       2     N     3.93566  3.93566  0.00000 -0.87133
       3     C     3.08443  3.08443  0.00000 -0.16886
       4     H     0.33536  0.33536  0.00000  0.32928
       5     C     3.15236  3.15236  0.00000 -0.30472
       6     H     0.43278  0.43278  0.00000  0.13444
       7     H     0.41214  0.41214  0.00000  0.17573
       8     C     3.15206  3.15206  0.00000 -0.30411
       9     H     0.41236  0.41236  0.00000  0.17527
      10     H     0.42121  0.42121  0.00000  0.15758
      11     C     3.18138  3.18138  0.00000 -0.36276
      12     H     0.42260  0.42260  0.00000  0.15481
      13     H     0.41831  0.41831  0.00000  0.16338
      14     C     3.30564  3.30564  0.00000 -0.61128
      15     H     0.40799  0.40799  0.00000  0.18403
      16     H     0.41217  0.41217  0.00000  0.17565
      17     H     0.39163  0.39163  0.00000  0.21675
      18     H     0.41319  0.41319  0.00000  0.17362
      19     H     0.41461  0.41461  0.00000  0.17078

   Total alpha = 25.00000, Total beta = 25.00000, Total charge = -0.00000


*** PSI4 exiting successfully. Buy a developer a beer!
