    -----------------------------------------------------------------------
          Psi4: An Open-Source Ab Initio Electronic Structure Package
                              Psi4 (no tag) Driver

                          Git: Rev {detached?}  

    J. M. Turney, A. C. Simmonett, R. M. Parrish, E. G. Hohenstein,
    F. A. Evangelista, J. T. Fermann, B. J. Mintz, L. A. Burns, J. J. Wilke,
    M. L. Abrams, N. J. Russ, M. L. Leininger, C. L. Janssen, E. T. Seidl,
    W. D. Allen, H. F. Schaefer, R. A. King, E. F. Valeev, C. D. Sherrill,
    and T. D. Crawford, WIREs Comput. Mol. Sci. 2, 556-565 (2012)
    (doi: 10.1002/wcms.93)

                         Additional Contributions by
    A. E. DePrince, M. Saitow, U. Bozkaya, A. Yu. Sokolov
    -----------------------------------------------------------------------


    Psi4 started on: Tue Jul  5 16:41:21 2016

    Process ID:  29070
    PSI4DATADIR: /export131/home/mjharvey/miniconda3/share
    Memory level set to 256.000 MB

  ==> Input File <==

--------------------------------------------------------------------------
set {
	reference rhf
	basis 6-31G*
}


set_num_threads( 1 )
memory 2 gb

molecule MOL {
0 1

H	 0.075655	 1.724700	 0.560390
N	 -0.456516	 0.876527	 0.541107
C	 0.411825	 -0.271767	 0.350028
H	 -1.096509	 0.942907	 -0.226429
C	 0.971803	 -0.268062	 -1.056935
H	 1.245876	 -0.313000	 1.051925
H	 -0.173567	 -1.175924	 0.486406
O	 -0.088814	 -0.446451	 -1.951562
H	 1.476952	 0.676258	 -1.258733
H	 1.695616	 -1.072886	 -1.164576
C	 -0.096131	 -1.680898	 -2.594723
H	 -0.001662	 -2.446384	 -1.836564
H	 -1.024455	 -1.839787	 -3.140571
H	 0.734035	 -1.770687	 -3.292270

	symmetry c1
}
set optking {
	frozen_dihedral = ("
		8 5 3 6,
		6 3 2 4,
		5 8 11 13
	")
}

ee = energy('scf')
oeprop('DIPOLE', 'QUADRUPOLE', 'MULLIKEN_CHARGES')
f=open( 'psi4out.xyz', 'w' )
f.write( "14  " )
f.write( str(ee) + "\n" )
f.write( MOL.save_string_xyz() )
f.close()
--------------------------------------------------------------------------

  Memory set to   2.000 GiB by Python script.

*** tstart() called on cx1-3-6-4.cx1.hpc.ic.ac.uk
*** at Tue Jul  5 16:41:21 2016


         ---------------------------------------------------------
                                   SCF
            by Justin Turney, Rob Parrish, and Andy Simmonett
                              RHF Reference
                        1 Threads,   2000 MiB Core
         ---------------------------------------------------------

  ==> Geometry <==

    Molecular point group: c1
    Full point group: C1

    Geometry (in Angstrom), charge = 0, multiplicity = 1:

       Center              X                  Y                   Z               Mass       
    ------------   -----------------  -----------------  -----------------  -----------------
           H         -0.065438268139     2.082129633619     1.521472091969     1.007825032070
           N         -0.597609268139     1.233956633619     1.502189091969    14.003074004780
           C          0.270731731861     0.085662633619     1.311110091969    12.000000000000
           H         -1.237602268139     1.300336633619     0.734653091969     1.007825032070
           C          0.830709731861     0.089367633619    -0.095852908031    12.000000000000
           H          1.104782731861     0.044429633619     2.013007091969     1.007825032070
           H         -0.314660268139    -0.818494366381     1.447488091969     1.007825032070
           O         -0.229907268139    -0.089021366381    -0.990479908031    15.994914619560
           H          1.335858731861     1.033687633619    -0.297650908031     1.007825032070
           H          1.554522731861    -0.715456366381    -0.203493908031     1.007825032070
           C         -0.237224268139    -1.323468366381    -1.633640908031    12.000000000000
           H         -0.142755268139    -2.088954366381    -0.875481908031     1.007825032070
           H         -1.165548268139    -1.482357366381    -2.179488908031     1.007825032070
           H          0.592941731861    -1.413257366381    -2.331187908031     1.007825032070

  Running in c1 symmetry.

  Rotational constants: A =      0.40197  B =      0.09481  C =      0.08912 [cm^-1]
  Rotational constants: A =  12050.74096  B =   2842.23893  C =   2671.73629 [MHz]
  Nuclear repulsion =  196.521858811146984

  Charge       = 0
  Multiplicity = 1
  Electrons    = 42
  Nalpha       = 21
  Nbeta        = 21

  ==> Algorithm <==

  SCF Algorithm Type is DF.
  DIIS enabled.
  MOM disabled.
  Fractional occupation disabled.
  Guess Type is CORE.
  Energy threshold   = 1.00e-06
  Density threshold  = 1.00e-06
  Integral threshold = 0.00e+00

  ==> Primary Basis <==

  Basis Set: 6-31G*
    Number of shells: 48
    Number of basis function: 93
    Number of Cartesian functions: 93
    Spherical Harmonics?: false
    Max angular momentum: 2

  ==> Pre-Iterations <==

   -------------------------------------------------------
    Irrep   Nso     Nmo     Nalpha   Nbeta   Ndocc  Nsocc
   -------------------------------------------------------
     A         93      93       0       0       0       0
   -------------------------------------------------------
    Total      93      93      21      21      21       0
   -------------------------------------------------------

 OEINTS: Overlap, kinetic, potential, dipole, and quadrupole integrals
         stored in file 35.

  ==> Integral Setup <==

  ==> DFJK: Density-Fitted J/K Matrices <==

    J tasked:                  Yes
    K tasked:                  Yes
    wK tasked:                  No
    OpenMP threads:              1
    Integrals threads:           1
    Memory (MB):              1430
    Algorithm:                Core
    Integral Cache:           NONE
    Schwarz Cutoff:          1E-12
    Fitting Condition:       1E-12

   => Auxiliary Basis Set <=

  Basis Set: 
    Number of shells: 201
    Number of basis function: 630
    Number of Cartesian functions: 630
    Spherical Harmonics?: false
    Max angular momentum: 3

  Minimum eigenvalue in the overlap matrix is 4.9888411156E-03.
  Using Symmetric Orthogonalization.
  SCF Guess: Core (One-Electron) Hamiltonian.

  ==> Iterations <==

                           Total Energy        Delta E     RMS |[F,P]|

   @DF-RHF iter   1:  -201.83312584658100   -2.01833e+02   7.99531e-02 
   @DF-RHF iter   2:  -156.72146644449677    4.51117e+01   6.74661e-02 DIIS
   @DF-RHF iter   3:  -218.13769421449913   -6.14162e+01   5.65511e-02 DIIS
   @DF-RHF iter   4:  -240.70285192539976   -2.25652e+01   3.90579e-02 DIIS
   @DF-RHF iter   5:  -247.82947517526381   -7.12662e+00   7.99005e-03 DIIS
   @DF-RHF iter   6:  -248.05476005236787   -2.25285e-01   3.47181e-03 DIIS
   @DF-RHF iter   7:  -248.10924432545417   -5.44843e-02   1.02304e-03 DIIS
   @DF-RHF iter   8:  -248.11555431036945   -6.30998e-03   3.23413e-04 DIIS
   @DF-RHF iter   9:  -248.11618474710164   -6.30437e-04   1.32857e-04 DIIS
   @DF-RHF iter  10:  -248.11630439301635   -1.19646e-04   3.23965e-05 DIIS
   @DF-RHF iter  11:  -248.11631315425174   -8.76124e-06   7.75613e-06 DIIS
   @DF-RHF iter  12:  -248.11631362394260   -4.69691e-07   1.77230e-06 DIIS
   @DF-RHF iter  13:  -248.11631364996211   -2.60195e-08   4.86870e-07 DIIS

  ==> Post-Iterations <==

    Orbital Energies (a.u.)
    -----------------------

    Doubly Occupied:                                                      

       1A    -20.558048     2A    -15.526699     3A    -11.271296  
       4A    -11.267548     5A    -11.240910     6A     -1.385215  
       7A     -1.174907     8A     -0.996453     9A     -0.916650  
      10A     -0.820819    11A     -0.689748    12A     -0.669901  
      13A     -0.643342    14A     -0.633784    15A     -0.577922  
      16A     -0.556208    17A     -0.540474    18A     -0.500921  
      19A     -0.475985    20A     -0.425404    21A     -0.370023  

    Virtual:                                                              

      22A      0.231787    23A      0.254803    24A      0.283726  
      25A      0.290716    26A      0.302089    27A      0.313126  
      28A      0.319557    29A      0.338708    30A      0.352164  
      31A      0.377510    32A      0.424192    33A      0.439437  
      34A      0.460710    35A      0.740100    36A      0.780406  
      37A      0.782976    38A      0.793127    39A      0.809664  
      40A      0.849049    41A      0.853599    42A      0.917806  
      43A      0.946868    44A      1.008257    45A      1.078922  
      46A      1.087800    47A      1.121786    48A      1.131252  
      49A      1.147095    50A      1.149880    51A      1.174383  
      52A      1.207522    53A      1.223911    54A      1.238893  
      55A      1.252221    56A      1.263972    57A      1.322846  
      58A      1.414129    59A      1.434304    60A      1.572472  
      61A      1.647934    62A      1.674675    63A      1.724327  
      64A      1.787899    65A      1.858102    66A      1.936704  
      67A      1.987804    68A      2.121654    69A      2.165775  
      70A      2.260393    71A      2.334566    72A      2.369215  
      73A      2.386506    74A      2.429640    75A      2.451168  
      76A      2.492222    77A      2.536519    78A      2.560798  
      79A      2.675767    80A      2.703330    81A      2.768351  
      82A      2.819178    83A      2.874993    84A      2.929315  
      85A      3.008027    86A      3.076314    87A      3.159811  
      88A      3.311280    89A      4.227299    90A      4.386244  
      91A      4.646701    92A      4.721542    93A      4.888866  

    Final Occupation by Irrep:
              A 
    DOCC [    21 ]

  Energy converged.

  @DF-RHF Final Energy:  -248.11631364996211

   => Energetics <=

    Nuclear Repulsion Energy =            196.5218588111469842
    One-Electron Energy =                -726.7918134390106388
    Two-Electron Energy =                 282.1536409779014321
    DFT Exchange-Correlation Energy =       0.0000000000000000
    Empirical Dispersion Energy =           0.0000000000000000
    PCM Polarization Energy =               0.0000000000000000
    EFP Energy =                            0.0000000000000000
    Total Energy =                       -248.1163136499621942

    Alert: EFP and PCM quantities not currently incorporated into SCF psivars.

Properties will be evaluated at   0.000000,   0.000000,   0.000000 Bohr
  ==> Properties <==


Properties computed using the SCF density matrix

  Nuclear Dipole Moment: (a.u.)
     X:     1.5588      Y:    -1.9333      Z:    -0.1691

  Electronic Dipole Moment: (a.u.)
     X:    -0.8947      Y:     1.5565      Z:    -0.2947

  Dipole Moment: (a.u.)
     X:     0.6641      Y:    -0.3767      Z:    -0.4639     Total:     0.8934

  Dipole Moment: (Debye)
     X:     1.6881      Y:    -0.9575      Z:    -1.1791     Total:     2.2708


  Saving occupied orbitals to File 180.

*** tstop() called on cx1-3-6-4.cx1.hpc.ic.ac.uk at Tue Jul  5 16:41:27 2016
Module time:
	user time   =       4.99 seconds =       0.08 minutes
	system time =       0.04 seconds =       0.00 minutes
	total time  =          6 seconds =       0.10 minutes
Total time:
	user time   =       4.99 seconds =       0.08 minutes
	system time =       0.04 seconds =       0.00 minutes
	total time  =          6 seconds =       0.10 minutes


Properties will be evaluated at   0.000000,   0.000000,   0.000000 Bohr

Properties computed using the  density matrix

  Nuclear Dipole Moment: (a.u.)
     X:     1.5588      Y:    -1.9333      Z:    -0.1691

  Electronic Dipole Moment: (a.u.)
     X:    -0.8947      Y:     1.5565      Z:    -0.2947

  Dipole Moment: (a.u.)
     X:     0.6641      Y:    -0.3767      Z:    -0.4639     Total:     0.8934

  Dipole Moment: (Debye)
     X:     1.6881      Y:    -0.9575      Z:    -1.1791     Total:     2.2708

  Quadrupole Moment: (Debye Ang)
    XX:   -32.0112     YY:   -28.8603     ZZ:   -36.4184
    XY:     1.6506     XZ:     3.2381     YZ:     0.7266

  Traceless Quadrupole Moment: (Debye Ang)
    XX:     0.4187     YY:     3.5697     ZZ:    -3.9884
    XY:     1.6506     XZ:     3.2381     YZ:     0.7266

  Mulliken Charges: (a.u.)
   Center  Symbol    Alpha    Beta     Spin     Total
       1     H     0.33651  0.33651  0.00000  0.32697
       2     N     3.92146  3.92146  0.00000 -0.84293
       3     C     3.06629  3.06629  0.00000 -0.13259
       4     H     0.32186  0.32186  0.00000  0.35628
       5     C     3.00494  3.00494  0.00000 -0.00987
       6     H     0.42202  0.42202  0.00000  0.15597
       7     H     0.41594  0.41594  0.00000  0.16811
       8     O     4.30871  4.30871  0.00000 -0.61743
       9     H     0.42283  0.42283  0.00000  0.15434
      10     H     0.43071  0.43071  0.00000  0.13858
      11     C     3.08017  3.08017  0.00000 -0.16034
      12     H     0.42961  0.42961  0.00000  0.14079
      13     H     0.41214  0.41214  0.00000  0.17571
      14     H     0.42680  0.42680  0.00000  0.14640

   Total alpha = 21.00000, Total beta = 21.00000, Total charge = -0.00000


*** PSI4 exiting successfully. Buy a developer a beer!
