    -----------------------------------------------------------------------
          Psi4: An Open-Source Ab Initio Electronic Structure Package
                              Psi4 (no tag) Driver

                          Git: Rev {detached?}  

    J. M. Turney, A. C. Simmonett, R. M. Parrish, E. G. Hohenstein,
    F. A. Evangelista, J. T. Fermann, B. J. Mintz, L. A. Burns, J. J. Wilke,
    M. L. Abrams, N. J. Russ, M. L. Leininger, C. L. Janssen, E. T. Seidl,
    W. D. Allen, H. F. Schaefer, R. A. King, E. F. Valeev, C. D. Sherrill,
    and T. D. Crawford, WIREs Comput. Mol. Sci. 2, 556-565 (2012)
    (doi: 10.1002/wcms.93)

                         Additional Contributions by
    A. E. DePrince, M. Saitow, U. Bozkaya, A. Yu. Sokolov
    -----------------------------------------------------------------------


    Psi4 started on: Tue Jul  5 18:00:37 2016

    Process ID:   3901
    PSI4DATADIR: /export131/home/mjharvey/miniconda3/share
    Memory level set to 256.000 MB

  ==> Input File <==

--------------------------------------------------------------------------
set {
	reference rhf
	basis 6-31G*
}


set_num_threads( 1 )
memory 2 gb

molecule MOL {
0 1

H	 -3.568312	 0.973489	 1.260683
O	 -3.814168	 1.485697	 2.017168
C	 -4.890836	 0.869437	 2.676761
C	 -4.490693	 -0.394929	 3.429084
H	 -5.268891	 1.605664	 3.374413
H	 -5.692940	 0.649095	 1.973300
C	 -3.240082	 -0.233399	 4.296695
H	 -5.327246	 -0.706602	 4.049088
H	 -4.324840	 -1.185584	 2.699204
C	 -1.967468	 -0.034821	 3.468540
H	 -3.128461	 -1.109859	 4.928932
H	 -3.369339	 0.619649	 4.962984
C	 -2.087810	 0.996018	 2.340165
H	 -1.150750	 0.249130	 4.129743
H	 -1.685516	 -0.990961	 3.032651
C	 -3.034785	 0.600176	 1.203932
H	 -2.434481	 1.933719	 2.769526
H	 -1.098970	 1.198700	 1.931565
C	 -4.465221	 1.099239	 1.418936
H	 -3.044660	 -0.484477	 1.106250
H	 -2.666261	 0.987989	 0.257311
C	 -5.411106	 0.710962	 0.283063
H	 -4.847259	 0.703375	 2.357459
H	 -4.456195	 2.181939	 1.526468
H	 -5.467273	 -0.368187	 0.171231
H	 -6.416738	 1.077069	 0.465559
H	 -5.076338	 1.123259	 -0.664726

	symmetry c1
}
set optking {
	frozen_dihedral = ("
		14 10 7 4,
		14 10 13 16,
		10 7 4 8,
		8 4 3 2,
		20 16 19 22,
		4 3 2 1
	")
}

ee = energy('scf')
oeprop('DIPOLE', 'QUADRUPOLE', 'MULLIKEN_CHARGES')
f=open( 'psi4out.xyz', 'w' )
f.write( "27  " )
f.write( str(ee) + "\n" )
f.write( MOL.save_string_xyz() )
f.close()
--------------------------------------------------------------------------

  Memory set to   2.000 GiB by Python script.

*** tstart() called on cx1-3-4-2.cx1.hpc.ic.ac.uk
*** at Tue Jul  5 18:00:37 2016


         ---------------------------------------------------------
                                   SCF
            by Justin Turney, Rob Parrish, and Andy Simmonett
                              RHF Reference
                        1 Threads,   2000 MiB Core
         ---------------------------------------------------------

  ==> Geometry <==

    Molecular point group: c1
    Full point group: C1

    Geometry (in Angstrom), charge = 0, multiplicity = 1:

       Center              X                  Y                   Z               Mass       
    ------------   -----------------  -----------------  -----------------  -----------------
           H          0.163389976482     0.392254632706    -1.062412260249     1.007825032070
           O         -0.082466023518     0.904462632706    -0.305927260249    15.994914619560
           C         -1.159134023518     0.288202632706     0.353665739751    12.000000000000
           C         -0.758991023518    -0.976163367294     1.105988739751    12.000000000000
           H         -1.537189023518     1.024429632706     1.051317739751     1.007825032070
           H         -1.961238023518     0.067860632706    -0.349795260249     1.007825032070
           C          0.491619976482    -0.814633367294     1.973599739751    12.000000000000
           H         -1.595544023518    -1.287836367294     1.725992739751     1.007825032070
           H         -0.593138023518    -1.766818367294     0.376108739751     1.007825032070
           C          1.764233976482    -0.616055367294     1.145444739751    12.000000000000
           H          0.603240976482    -1.691093367294     2.605836739751     1.007825032070
           H          0.362362976482     0.038414632706     2.639888739751     1.007825032070
           C          1.643891976482     0.414783632706     0.017069739751    12.000000000000
           H          2.580951976482    -0.332104367294     1.806647739751     1.007825032070
           H          2.046185976482    -1.572195367294     0.709555739751     1.007825032070
           C          0.696916976482     0.018941632706    -1.119163260249    12.000000000000
           H          1.297220976482     1.352484632706     0.446430739751     1.007825032070
           H          2.632731976482     0.617465632706    -0.391530260249     1.007825032070
           C         -0.733519023518     0.518004632706    -0.904159260249    12.000000000000
           H          0.687041976482    -1.065711367294    -1.216845260249     1.007825032070
           H          1.065440976482     0.406754632706    -2.065784260249     1.007825032070
           C         -1.679404023518     0.129727632706    -2.040032260249    12.000000000000
           H         -1.115557023518     0.122140632706     0.034363739751     1.007825032070
           H         -0.724493023518     1.600704632706    -0.796627260249     1.007825032070
           H         -1.735571023518    -0.949421367294    -2.151864260249     1.007825032070
           H         -2.685036023518     0.495834632706    -1.857536260249     1.007825032070
           H         -1.344636023518     0.542024632706    -2.987821260249     1.007825032070

  Running in c1 symmetry.

  Rotational constants: A =      0.10141  B =      0.05222  C =      0.04073 [cm^-1]
  Rotational constants: A =   3040.10722  B =   1565.52171  C =   1220.91910 [MHz]
  Nuclear repulsion =  611.819330976499828

  Charge       = 0
  Multiplicity = 1
  Electrons    = 74
  Nalpha       = 37
  Nbeta        = 37

  ==> Algorithm <==

  SCF Algorithm Type is DF.
  DIIS enabled.
  MOM disabled.
  Fractional occupation disabled.
  Guess Type is CORE.
  Energy threshold   = 1.00e-06
  Density threshold  = 1.00e-06
  Integral threshold = 0.00e+00

  ==> Primary Basis <==

  Basis Set: 6-31G*
    Number of shells: 90
    Number of basis function: 171
    Number of Cartesian functions: 171
    Spherical Harmonics?: false
    Max angular momentum: 2

  ==> Pre-Iterations <==

   -------------------------------------------------------
    Irrep   Nso     Nmo     Nalpha   Nbeta   Ndocc  Nsocc
   -------------------------------------------------------
     A        171     171       0       0       0       0
   -------------------------------------------------------
    Total     171     171      37      37      37       0
   -------------------------------------------------------

 OEINTS: Overlap, kinetic, potential, dipole, and quadrupole integrals
         stored in file 35.

  ==> Integral Setup <==

  ==> DFJK: Density-Fitted J/K Matrices <==

    J tasked:                  Yes
    K tasked:                  Yes
    wK tasked:                  No
    OpenMP threads:              1
    Integrals threads:           1
    Memory (MB):              1430
    Algorithm:                Core
    Integral Cache:           NONE
    Schwarz Cutoff:          1E-12
    Fitting Condition:       1E-12

   => Auxiliary Basis Set <=

  Basis Set: 
    Number of shells: 378
    Number of basis function: 1179
    Number of Cartesian functions: 1179
    Spherical Harmonics?: false
    Max angular momentum: 3

  Minimum eigenvalue in the overlap matrix is 7.3630985142E-05.
  Using Symmetric Orthogonalization.
  SCF Guess: Core (One-Electron) Hamiltonian.

  ==> Iterations <==

                           Total Energy        Delta E     RMS |[F,P]|

   @DF-RHF iter   1:  -180.21852259443426   -1.80219e+02   8.84221e-02 
   @DF-RHF iter   2:  -110.27002306053726    6.99485e+01   6.95705e-02 DIIS
   @DF-RHF iter   3:  -273.15568880855812   -1.62886e+02   6.29853e-02 DIIS
   @DF-RHF iter   4:  -336.79215767475296   -6.36365e+01   4.50624e-02 DIIS
   @DF-RHF iter   5:  -358.31075426728933   -2.15186e+01   3.25519e-02 DIIS
   @DF-RHF iter   6:  -382.14002100293953   -2.38293e+01   8.87153e-03 DIIS
   @DF-RHF iter   7:  -383.26196585162245   -1.12194e+00   3.25141e-03 DIIS
   @DF-RHF iter   8:  -383.40587683651825   -1.43911e-01   7.82233e-04 DIIS
   @DF-RHF iter   9:  -383.41858245139019   -1.27056e-02   2.91203e-04 DIIS
   @DF-RHF iter  10:  -383.42119461567813   -2.61216e-03   1.07110e-04 DIIS
   @DF-RHF iter  11:  -383.42197601536964   -7.81400e-04   5.25178e-05 DIIS
   @DF-RHF iter  12:  -383.42219997898940   -2.23964e-04   3.08666e-05 DIIS
   @DF-RHF iter  13:  -383.42228030954095   -8.03306e-05   1.26165e-05 DIIS
   @DF-RHF iter  14:  -383.42229791405123   -1.76045e-05   5.26225e-06 DIIS
   @DF-RHF iter  15:  -383.42230052581692   -2.61177e-06   2.20296e-06 DIIS
   @DF-RHF iter  16:  -383.42230098425398   -4.58437e-07   8.07067e-07 DIIS

  ==> Post-Iterations <==

    Orbital Energies (a.u.)
    -----------------------

    Doubly Occupied:                                                      

       1A    -20.498750     2A    -11.581846     3A    -11.401220  
       4A    -11.259865     5A    -11.228728     6A    -11.225801  
       7A    -11.220021     8A    -11.211651     9A    -11.187180  
      10A     -1.971826    11A     -1.467207    12A     -1.246610  
      13A     -1.109272    14A     -1.045466    15A     -1.011700  
      16A     -0.952127    17A     -0.891973    18A     -0.818514  
      19A     -0.813218    20A     -0.786497    21A     -0.727312  
      22A     -0.672997    23A     -0.650974    24A     -0.630878  
      25A     -0.597161    26A     -0.580281    27A     -0.572228  
      28A     -0.558091    29A     -0.545697    30A     -0.509983  
      31A     -0.493023    32A     -0.475858    33A     -0.457621  
      34A     -0.430814    35A     -0.330970    36A     -0.203784  
      37A     -0.183685  

    Virtual:                                                              

      38A      0.173134    39A      0.223472    40A      0.236353  
      41A      0.250933    42A      0.277879    43A      0.278493  
      44A      0.292407    45A      0.296380    46A      0.307627  
      47A      0.311706    48A      0.322423    49A      0.327910  
      50A      0.344677    51A      0.353003    52A      0.362047  
      53A      0.371897    54A      0.387730    55A      0.407737  
      56A      0.413014    57A      0.419727    58A      0.457179  
      59A      0.465449    60A      0.483320    61A      0.520993  
      62A      0.550390    63A      0.571933    64A      0.638469  
      65A      0.676000    66A      0.700498    67A      0.709001  
      68A      0.745415    69A      0.772719    70A      0.787355  
      71A      0.804602    72A      0.813427    73A      0.893567  
      74A      0.901969    75A      0.921570    76A      0.928228  
      77A      0.951765    78A      0.966592    79A      0.977396  
      80A      1.015442    81A      1.027166    82A      1.044746  
      83A      1.070502    84A      1.092436    85A      1.108987  
      86A      1.118557    87A      1.133142    88A      1.135855  
      89A      1.149581    90A      1.166585    91A      1.186642  
      92A      1.191266    93A      1.200761    94A      1.209087  
      95A      1.223137    96A      1.231892    97A      1.249273  
      98A      1.253866    99A      1.256697   100A      1.305648  
     101A      1.323167   102A      1.347662   103A      1.395847  
     104A      1.415622   105A      1.467005   106A      1.536372  
     107A      1.587825   108A      1.615614   109A      1.724234  
     110A      1.735461   111A      1.749211   112A      1.815659  
     113A      1.827512   114A      1.869873   115A      1.892755  
     116A      1.906387   117A      1.945028   118A      2.023362  
     119A      2.053017   120A      2.090688   121A      2.126483  
     122A      2.142235   123A      2.183526   124A      2.190620  
     125A      2.211992   126A      2.235160   127A      2.260643  
     128A      2.302664   129A      2.338183   130A      2.355154  
     131A      2.379153   132A      2.427962   133A      2.454133  
     134A      2.489888   135A      2.510341   136A      2.548341  
     137A      2.601247   138A      2.606719   139A      2.630702  
     140A      2.646529   141A      2.675677   142A      2.695387  
     143A      2.723552   144A      2.756722   145A      2.779971  
     146A      2.817477   147A      2.878025   148A      2.931664  
     149A      2.936268   150A      2.966448   151A      2.993978  
     152A      3.028699   153A      3.096614   154A      3.103432  
     155A      3.153272   156A      3.234153   157A      3.345181  
     158A      3.413574   159A      3.889074   160A      4.352558  
     161A      4.584629   162A      4.633803   163A      4.786531  
     164A      4.824603   165A      4.894319   166A      4.950151  
     167A      5.045317   168A      5.063030   169A      5.421960  
     170A      6.172755   171A     11.360587  

    Final Occupation by Irrep:
              A 
    DOCC [    37 ]

  Energy converged.

  @DF-RHF Final Energy:  -383.42230098425398

   => Energetics <=

    Nuclear Repulsion Energy =            611.8193309764998276
    One-Electron Energy =               -1727.3816789813492960
    Two-Electron Energy =                 732.1400470205971942
    DFT Exchange-Correlation Energy =       0.0000000000000000
    Empirical Dispersion Energy =           0.0000000000000000
    PCM Polarization Energy =               0.0000000000000000
    EFP Energy =                            0.0000000000000000
    Total Energy =                       -383.4223009842521606

    Alert: EFP and PCM quantities not currently incorporated into SCF psivars.

Properties will be evaluated at   0.000000,   0.000000,   0.000000 Bohr
  ==> Properties <==


Properties computed using the SCF density matrix

  Nuclear Dipole Moment: (a.u.)
     X:    -1.7383      Y:    -1.8751      Z:    -1.3927

  Electronic Dipole Moment: (a.u.)
     X:     1.6641      Y:     1.7015      Z:     1.5021

  Dipole Moment: (a.u.)
     X:    -0.0742      Y:    -0.1736      Z:     0.1093     Total:     0.2182

  Dipole Moment: (Debye)
     X:    -0.1887      Y:    -0.4414      Z:     0.2779     Total:     0.5547


  Saving occupied orbitals to File 180.

*** tstop() called on cx1-3-4-2.cx1.hpc.ic.ac.uk at Tue Jul  5 18:01:15 2016
Module time:
	user time   =      36.87 seconds =       0.61 minutes
	system time =       0.34 seconds =       0.01 minutes
	total time  =         38 seconds =       0.63 minutes
Total time:
	user time   =      36.87 seconds =       0.61 minutes
	system time =       0.34 seconds =       0.01 minutes
	total time  =         38 seconds =       0.63 minutes


Properties will be evaluated at   0.000000,   0.000000,   0.000000 Bohr

Properties computed using the  density matrix

  Nuclear Dipole Moment: (a.u.)
     X:    -1.7383      Y:    -1.8751      Z:    -1.3927

  Electronic Dipole Moment: (a.u.)
     X:     1.6641      Y:     1.7015      Z:     1.5021

  Dipole Moment: (a.u.)
     X:    -0.0742      Y:    -0.1736      Z:     0.1093     Total:     0.2182

  Dipole Moment: (Debye)
     X:    -0.1887      Y:    -0.4414      Z:     0.2779     Total:     0.5547

  Quadrupole Moment: (Debye Ang)
    XX:   -65.9595     YY:   -60.5592     ZZ:   -58.6356
    XY:     0.1385     XZ:     0.4687     YZ:    -2.4730

  Traceless Quadrupole Moment: (Debye Ang)
    XX:    -4.2414     YY:     1.1589     ZZ:     3.0825
    XY:     0.1385     XZ:     0.4687     YZ:    -2.4730

  Mulliken Charges: (a.u.)
   Center  Symbol    Alpha    Beta     Spin     Total
       1     H     0.60393  0.60393  0.00000 -0.20787
       2     O     4.11374  4.11374  0.00000 -0.22748
       3     C     2.77504  2.77504  0.00000  0.44993
       4     C     3.19879  3.19879  0.00000 -0.39758
       5     H     0.44996  0.44996  0.00000  0.10008
       6     H     0.53879  0.53879  0.00000 -0.07758
       7     C     3.16181  3.16181  0.00000 -0.32363
       8     H     0.39763  0.39763  0.00000  0.20474
       9     H     0.40317  0.40317  0.00000  0.19366
      10     C     3.15668  3.15668  0.00000 -0.31336
      11     H     0.41256  0.41256  0.00000  0.17488
      12     H     0.41691  0.41691  0.00000  0.16618
      13     C     3.14805  3.14805  0.00000 -0.29610
      14     H     0.41684  0.41684  0.00000  0.16631
      15     H     0.42479  0.42479  0.00000  0.15041
      16     C     3.18705  3.18705  0.00000 -0.37409
      17     H     0.41353  0.41353  0.00000  0.17295
      18     H     0.44455  0.44455  0.00000  0.11091
      19     C     2.88169  2.88169  0.00000  0.23662
      20     H     0.42994  0.42994  0.00000  0.14012
      21     H     0.41799  0.41799  0.00000  0.16401
      22     C     3.23308  3.23308  0.00000 -0.46617
      23     H     0.78229  0.78229  0.00000 -0.56459
      24     H     0.36198  0.36198  0.00000  0.27604
      25     H     0.43549  0.43549  0.00000  0.12902
      26     H     0.38842  0.38842  0.00000  0.22315
      27     H     0.40528  0.40528  0.00000  0.18945

   Total alpha = 37.00000, Total beta = 37.00000, Total charge =  0.00000


*** PSI4 exiting successfully. Buy a developer a beer!
