    -----------------------------------------------------------------------
          Psi4: An Open-Source Ab Initio Electronic Structure Package
                              Psi4 (no tag) Driver

                          Git: Rev {detached?}  

    J. M. Turney, A. C. Simmonett, R. M. Parrish, E. G. Hohenstein,
    F. A. Evangelista, J. T. Fermann, B. J. Mintz, L. A. Burns, J. J. Wilke,
    M. L. Abrams, N. J. Russ, M. L. Leininger, C. L. Janssen, E. T. Seidl,
    W. D. Allen, H. F. Schaefer, R. A. King, E. F. Valeev, C. D. Sherrill,
    and T. D. Crawford, WIREs Comput. Mol. Sci. 2, 556-565 (2012)
    (doi: 10.1002/wcms.93)

                         Additional Contributions by
    A. E. DePrince, M. Saitow, U. Bozkaya, A. Yu. Sokolov
    -----------------------------------------------------------------------


    Psi4 started on: Tue Jul  5 16:35:21 2016

    Process ID:  13070
    PSI4DATADIR: /export131/home/mjharvey/miniconda3/share
    Memory level set to 256.000 MB

  ==> Input File <==

--------------------------------------------------------------------------
set {
	reference rhf
	basis 6-31G*
}


set_num_threads( 1 )
memory 2 gb

molecule MOL {
0 1

O	 0.923210	 -0.031111	 0.775134
C	 0.028650	 0.075053	 -0.000277
C	 -1.233602	 -0.752807	 0.000328
O	 0.025509	 0.956920	 -0.991338
C	 -2.501530	 0.091881	 0.000126
H	 -1.193807	 -1.406641	 -0.865785
H	 -1.193516	 -1.405779	 0.867015
H	 -2.545121	 0.729328	 -0.874513
H	 -3.377167	 -0.548497	 0.000561
H	 -2.544818	 0.730135	 0.874258
C	 1.158068	 1.799472	 -1.105384
H	 1.279731	 2.395096	 -0.212164
H	 0.968269	 2.435307	 -1.956003
H	 2.052037	 1.214503	 -1.266940

	symmetry c1
}
set optking {
	frozen_dihedral = ("
		11 4 2 3
	")
}

ee = energy('scf')
oeprop('DIPOLE', 'QUADRUPOLE', 'MULLIKEN_CHARGES')
f=open( 'psi4out.xyz', 'w' )
f.write( "14  " )
f.write( str(ee) + "\n" )
f.write( MOL.save_string_xyz() )
f.close()
--------------------------------------------------------------------------

  Memory set to   2.000 GiB by Python script.

*** tstart() called on cx1-1-4-4.cx1.hpc.ic.ac.uk
*** at Tue Jul  5 16:35:22 2016


         ---------------------------------------------------------
                                   SCF
            by Justin Turney, Rob Parrish, and Andy Simmonett
                              RHF Reference
                        1 Threads,   2000 MiB Core
         ---------------------------------------------------------

  ==> Geometry <==

    Molecular point group: c1
    Full point group: C1

    Geometry (in Angstrom), charge = 0, multiplicity = 1:

       Center              X                  Y                   Z               Mass       
    ------------   -----------------  -----------------  -----------------  -----------------
           O          1.173197070780    -0.412103310444     1.004327986346    15.994914619560
           C          0.278637070780    -0.305939310444     0.228916986346    12.000000000000
           C         -0.983614929220    -1.133799310444     0.229521986346    12.000000000000
           O          0.275496070780     0.575927689556    -0.762144013654    15.994914619560
           C         -2.251542929220    -0.289111310444     0.229319986346    12.000000000000
           H         -0.943819929220    -1.787633310444    -0.636591013654     1.007825032070
           H         -0.943528929220    -1.786771310444     1.096208986346     1.007825032070
           H         -2.295133929220     0.348335689556    -0.645319013654     1.007825032070
           H         -3.127179929220    -0.929489310444     0.229754986346     1.007825032070
           H         -2.294830929220     0.349142689556     1.103451986346     1.007825032070
           C          1.408055070780     1.418479689556    -0.876190013654    12.000000000000
           H          1.529718070780     2.014103689556     0.017029986346     1.007825032070
           H          1.218256070780     2.054314689556    -1.726809013654     1.007825032070
           H          2.302024070780     0.833510689556    -1.037746013654     1.007825032070

  Running in c1 symmetry.

  Rotational constants: A =      0.21111  B =      0.08699  C =      0.06727 [cm^-1]
  Rotational constants: A =   6328.94548  B =   2607.82228  C =   2016.85057 [MHz]
  Nuclear repulsion =  248.733383832428387

  Charge       = 0
  Multiplicity = 1
  Electrons    = 48
  Nalpha       = 24
  Nbeta        = 24

  ==> Algorithm <==

  SCF Algorithm Type is DF.
  DIIS enabled.
  MOM disabled.
  Fractional occupation disabled.
  Guess Type is CORE.
  Energy threshold   = 1.00e-06
  Density threshold  = 1.00e-06
  Integral threshold = 0.00e+00

  ==> Primary Basis <==

  Basis Set: 6-31G*
    Number of shells: 52
    Number of basis function: 106
    Number of Cartesian functions: 106
    Spherical Harmonics?: false
    Max angular momentum: 2

  ==> Pre-Iterations <==

   -------------------------------------------------------
    Irrep   Nso     Nmo     Nalpha   Nbeta   Ndocc  Nsocc
   -------------------------------------------------------
     A        106     106       0       0       0       0
   -------------------------------------------------------
    Total     106     106      24      24      24       0
   -------------------------------------------------------

 OEINTS: Overlap, kinetic, potential, dipole, and quadrupole integrals
         stored in file 35.

  ==> Integral Setup <==

  ==> DFJK: Density-Fitted J/K Matrices <==

    J tasked:                  Yes
    K tasked:                  Yes
    wK tasked:                  No
    OpenMP threads:              1
    Integrals threads:           1
    Memory (MB):              1430
    Algorithm:                Core
    Integral Cache:           NONE
    Schwarz Cutoff:          1E-12
    Fitting Condition:       1E-12

   => Auxiliary Basis Set <=

  Basis Set: 
    Number of shells: 216
    Number of basis function: 686
    Number of Cartesian functions: 686
    Spherical Harmonics?: false
    Max angular momentum: 3

  Minimum eigenvalue in the overlap matrix is 3.4496010196E-03.
  Using Symmetric Orthogonalization.
  SCF Guess: Core (One-Electron) Hamiltonian.

  ==> Iterations <==

                           Total Energy        Delta E     RMS |[F,P]|

   @DF-RHF iter   1:  -227.14602264755246   -2.27146e+02   8.54637e-02 
   @DF-RHF iter   2:  -204.43211016219641    2.27139e+01   6.76805e-02 DIIS
   @DF-RHF iter   3:  -277.86536131747306   -7.34333e+01   4.69556e-02 DIIS
   @DF-RHF iter   4:  -294.47728421441712   -1.66119e+01   3.62969e-02 DIIS
   @DF-RHF iter   5:  -302.51272149848756   -8.03544e+00   1.72470e-02 DIIS
   @DF-RHF iter   6:  -305.70987988048597   -3.19716e+00   5.48396e-03 DIIS
   @DF-RHF iter   7:  -305.83824622523804   -1.28366e-01   2.45168e-03 DIIS
   @DF-RHF iter   8:  -305.86408010111523   -2.58339e-02   9.16646e-04 DIIS
   @DF-RHF iter   9:  -305.86946303893620   -5.38294e-03   3.26254e-04 DIIS
   @DF-RHF iter  10:  -305.87018215437439   -7.19115e-04   1.06935e-04 DIIS
   @DF-RHF iter  11:  -305.87028229475385   -1.00140e-04   2.38788e-05 DIIS
   @DF-RHF iter  12:  -305.87028799354749   -5.69879e-06   6.93374e-06 DIIS
   @DF-RHF iter  13:  -305.87028860766662   -6.14119e-07   2.20754e-06 DIIS
   @DF-RHF iter  14:  -305.87028865949134   -5.18247e-08   6.41935e-07 DIIS

  ==> Post-Iterations <==

    Orbital Energies (a.u.)
    -----------------------

    Doubly Occupied:                                                      

       1A    -20.605395     2A    -20.545171     3A    -11.372266  
       4A    -11.281847     5A    -11.237700     6A    -11.224003  
       7A     -1.470363     8A     -1.362952     9A     -1.068796  
      10A     -0.975480    11A     -0.885725    12A     -0.774898  
      13A     -0.697076    14A     -0.679905    15A     -0.673534  
      16A     -0.618629    17A     -0.587272    18A     -0.568680  
      19A     -0.545292    20A     -0.520391    21A     -0.515818  
      22A     -0.499205    23A     -0.456608    24A     -0.434225  

    Virtual:                                                              

      25A      0.193424    26A      0.247840    27A      0.263107  
      28A      0.292400    29A      0.301935    30A      0.312801  
      31A      0.318362    32A      0.322434    33A      0.331562  
      34A      0.350599    35A      0.406965    36A      0.440382  
      37A      0.511945    38A      0.567001    39A      0.718925  
      40A      0.729247    41A      0.732807    42A      0.747532  
      43A      0.763696    44A      0.789796    45A      0.825837  
      46A      0.896047    47A      0.933849    48A      0.959665  
      49A      0.989126    50A      1.006100    51A      1.076302  
      52A      1.114006    53A      1.127162    54A      1.129449  
      55A      1.143499    56A      1.165191    57A      1.192179  
      58A      1.208130    59A      1.226873    60A      1.233610  
      61A      1.253852    62A      1.272318    63A      1.362397  
      64A      1.373346    65A      1.394992    66A      1.504826  
      67A      1.576275    68A      1.648296    69A      1.691785  
      70A      1.786709    71A      1.809959    72A      1.876074  
      73A      1.914908    74A      1.967324    75A      2.004833  
      76A      2.075749    77A      2.129544    78A      2.170587  
      79A      2.200425    80A      2.243520    81A      2.271152  
      82A      2.354854    83A      2.382367    84A      2.404561  
      85A      2.444956    86A      2.493762    87A      2.584456  
      88A      2.641319    89A      2.652000    90A      2.675181  
      91A      2.702953    92A      2.744384    93A      2.818982  
      94A      2.952370    95A      2.983074    96A      3.070402  
      97A      3.155812    98A      3.344618    99A      3.418158  
     100A      3.551448   101A      4.420370   102A      4.523815  
     103A      4.647683   104A      4.683924   105A      4.776258  
     106A      4.962191  

    Final Occupation by Irrep:
              A 
    DOCC [    24 ]

  Energy converged.

  @DF-RHF Final Energy:  -305.87028865949134

   => Energetics <=

    Nuclear Repulsion Energy =            248.7333838324283874
    One-Electron Energy =                -910.0048235350766390
    Two-Electron Energy =                 355.4011510431568013
    DFT Exchange-Correlation Energy =       0.0000000000000000
    Empirical Dispersion Energy =           0.0000000000000000
    PCM Polarization Energy =               0.0000000000000000
    EFP Energy =                            0.0000000000000000
    Total Energy =                       -305.8702886594913934

    Alert: EFP and PCM quantities not currently incorporated into SCF psivars.

Properties will be evaluated at   0.000000,   0.000000,   0.000000 Bohr
  ==> Properties <==


Properties computed using the SCF density matrix

  Nuclear Dipole Moment: (a.u.)
     X:    -4.2627      Y:     1.0278      Z:    -1.4988

  Electronic Dipole Moment: (a.u.)
     X:     3.7987      Y:    -0.7582      Z:     0.8856

  Dipole Moment: (a.u.)
     X:    -0.4641      Y:     0.2696      Z:    -0.6132     Total:     0.8149

  Dipole Moment: (Debye)
     X:    -1.1796      Y:     0.6852      Z:    -1.5586     Total:     2.0713


  Saving occupied orbitals to File 180.

*** tstop() called on cx1-1-4-4.cx1.hpc.ic.ac.uk at Tue Jul  5 16:35:28 2016
Module time:
	user time   =       5.86 seconds =       0.10 minutes
	system time =       0.04 seconds =       0.00 minutes
	total time  =          6 seconds =       0.10 minutes
Total time:
	user time   =       5.86 seconds =       0.10 minutes
	system time =       0.04 seconds =       0.00 minutes
	total time  =          6 seconds =       0.10 minutes


Properties will be evaluated at   0.000000,   0.000000,   0.000000 Bohr

Properties computed using the  density matrix

  Nuclear Dipole Moment: (a.u.)
     X:    -4.2627      Y:     1.0278      Z:    -1.4988

  Electronic Dipole Moment: (a.u.)
     X:     3.7987      Y:    -0.7582      Z:     0.8856

  Dipole Moment: (a.u.)
     X:    -0.4641      Y:     0.2696      Z:    -0.6132     Total:     0.8149

  Dipole Moment: (Debye)
     X:    -1.1796      Y:     0.6852      Z:    -1.5586     Total:     2.0713

  Quadrupole Moment: (Debye Ang)
    XX:   -36.3697     YY:   -33.4949     ZZ:   -38.6494
    XY:     3.9458     XZ:    -4.5098     YZ:     0.2664

  Traceless Quadrupole Moment: (Debye Ang)
    XX:    -0.1984     YY:     2.6765     ZZ:    -2.4781
    XY:     3.9458     XZ:    -4.5098     YZ:     0.2664

  Mulliken Charges: (a.u.)
   Center  Symbol    Alpha    Beta     Spin     Total
       1     O     4.28523  4.28523  0.00000 -0.57046
       2     C     2.61374  2.61374  0.00000  0.77253
       3     C     3.19906  3.19906  0.00000 -0.39812
       4     O     4.30190  4.30190  0.00000 -0.60380
       5     C     3.24816  3.24816  0.00000 -0.49632
       6     H     0.40267  0.40267  0.00000  0.19467
       7     H     0.39852  0.39852  0.00000  0.20297
       8     H     0.40535  0.40535  0.00000  0.18930
       9     H     0.41342  0.41342  0.00000  0.17316
      10     H     0.41361  0.41361  0.00000  0.17277
      11     C     3.09235  3.09235  0.00000 -0.18470
      12     H     0.40865  0.40865  0.00000  0.18269
      13     H     0.40873  0.40873  0.00000  0.18254
      14     H     0.40862  0.40862  0.00000  0.18276

   Total alpha = 24.00000, Total beta = 24.00000, Total charge =  0.00000


*** PSI4 exiting successfully. Buy a developer a beer!
