    -----------------------------------------------------------------------
          Psi4: An Open-Source Ab Initio Electronic Structure Package
                              Psi4 (no tag) Driver

                          Git: Rev {detached?}  

    J. M. Turney, A. C. Simmonett, R. M. Parrish, E. G. Hohenstein,
    F. A. Evangelista, J. T. Fermann, B. J. Mintz, L. A. Burns, J. J. Wilke,
    M. L. Abrams, N. J. Russ, M. L. Leininger, C. L. Janssen, E. T. Seidl,
    W. D. Allen, H. F. Schaefer, R. A. King, E. F. Valeev, C. D. Sherrill,
    and T. D. Crawford, WIREs Comput. Mol. Sci. 2, 556-565 (2012)
    (doi: 10.1002/wcms.93)

                         Additional Contributions by
    A. E. DePrince, M. Saitow, U. Bozkaya, A. Yu. Sokolov
    -----------------------------------------------------------------------


    Psi4 started on: Tue Jul  5 16:34:44 2016

    Process ID:  26024
    PSI4DATADIR: /export131/home/mjharvey/miniconda3/share
    Memory level set to 256.000 MB

  ==> Input File <==

--------------------------------------------------------------------------
set {
	reference rhf
	basis 6-31G*
}


set_num_threads( 1 )
memory 2 gb

molecule MOL {
0 1

H	 -3.161837	 0.500524	 -0.000234
C	 -2.367097	 -0.232926	 -0.000000
O	 -1.158440	 0.455814	 -0.000122
H	 -2.468853	 -0.861886	 -0.882833
H	 -2.468942	 -0.861421	 0.883154
C	 -0.260481	 0.039530	 -0.984120
C	 1.007743	 0.867655	 -0.872407
H	 -0.705083	 0.159377	 -1.972990
H	 -0.032868	 -1.020108	 -0.860554
C	 2.053330	 0.479079	 -1.916743
H	 0.744788	 1.915774	 -0.977112
H	 1.412378	 0.744539	 0.127499
H	 1.676259	 0.618320	 -2.926126
H	 2.947256	 1.084992	 -1.813731
H	 2.348141	 -0.561575	 -1.814136

	symmetry c1
}
set optking {
	frozen_dihedral = ("
		11 7 6 8,
		8 6 3 2
	")
}

ee = energy('scf')
oeprop('DIPOLE', 'QUADRUPOLE', 'MULLIKEN_CHARGES')
f=open( 'psi4out.xyz', 'w' )
f.write( "15  " )
f.write( str(ee) + "\n" )
f.write( MOL.save_string_xyz() )
f.close()
--------------------------------------------------------------------------

  Memory set to   2.000 GiB by Python script.

*** tstart() called on cx1-3-16-3.cx1.hpc.ic.ac.uk
*** at Tue Jul  5 16:34:45 2016


         ---------------------------------------------------------
                                   SCF
            by Justin Turney, Rob Parrish, and Andy Simmonett
                              RHF Reference
                        1 Threads,   2000 MiB Core
         ---------------------------------------------------------

  ==> Geometry <==

    Molecular point group: c1
    Full point group: C1

    Geometry (in Angstrom), charge = 0, multiplicity = 1:

       Center              X                  Y                   Z               Mass       
    ------------   -----------------  -----------------  -----------------  -----------------
           H         -2.985880012771     0.191873146075     0.750353068484     1.007825032070
           C         -2.191140012771    -0.541576853925     0.750587068484    12.000000000000
           O         -0.982483012771     0.147163146075     0.750465068484    15.994914619560
           H         -2.292896012771    -1.170536853925    -0.132245931516     1.007825032070
           H         -2.292985012771    -1.170071853925     1.633741068484     1.007825032070
           C         -0.084524012771    -0.269120853925    -0.233532931516    12.000000000000
           C          1.183699987229     0.559004146075    -0.121819931516    12.000000000000
           H         -0.529126012771    -0.149273853925    -1.222402931516     1.007825032070
           H          0.143088987229    -1.328758853925    -0.109966931516     1.007825032070
           C          2.229286987229     0.170428146075    -1.166155931516    12.000000000000
           H          0.920744987229     1.607123146075    -0.226524931516     1.007825032070
           H          1.588334987229     0.435888146075     0.878086068484     1.007825032070
           H          1.852215987229     0.309669146075    -2.175538931516     1.007825032070
           H          3.123212987229     0.776341146075    -1.063143931516     1.007825032070
           H          2.524097987229    -0.870225853925    -1.063548931516     1.007825032070

  Running in c1 symmetry.

  Rotational constants: A =      0.68978  B =      0.07094  C =      0.06752 [cm^-1]
  Rotational constants: A =  20679.01376  B =   2126.73604  C =   2024.24110 [MHz]
  Nuclear repulsion =  189.764376666504830

  Charge       = 0
  Multiplicity = 1
  Electrons    = 42
  Nalpha       = 21
  Nbeta        = 21

  ==> Algorithm <==

  SCF Algorithm Type is DF.
  DIIS enabled.
  MOM disabled.
  Fractional occupation disabled.
  Guess Type is CORE.
  Energy threshold   = 1.00e-06
  Density threshold  = 1.00e-06
  Integral threshold = 0.00e+00

  ==> Primary Basis <==

  Basis Set: 6-31G*
    Number of shells: 50
    Number of basis function: 95
    Number of Cartesian functions: 95
    Spherical Harmonics?: false
    Max angular momentum: 2

  ==> Pre-Iterations <==

   -------------------------------------------------------
    Irrep   Nso     Nmo     Nalpha   Nbeta   Ndocc  Nsocc
   -------------------------------------------------------
     A         95      95       0       0       0       0
   -------------------------------------------------------
    Total      95      95      21      21      21       0
   -------------------------------------------------------

 OEINTS: Overlap, kinetic, potential, dipole, and quadrupole integrals
         stored in file 35.

  ==> Integral Setup <==

  ==> DFJK: Density-Fitted J/K Matrices <==

    J tasked:                  Yes
    K tasked:                  Yes
    wK tasked:                  No
    OpenMP threads:              1
    Integrals threads:           1
    Memory (MB):              1430
    Algorithm:                Core
    Integral Cache:           NONE
    Schwarz Cutoff:          1E-12
    Fitting Condition:       1E-12

   => Auxiliary Basis Set <=

  Basis Set: 
    Number of shells: 210
    Number of basis function: 655
    Number of Cartesian functions: 655
    Spherical Harmonics?: false
    Max angular momentum: 3

  Minimum eigenvalue in the overlap matrix is 4.1116467419E-03.
  Using Symmetric Orthogonalization.
  SCF Guess: Core (One-Electron) Hamiltonian.

  ==> Iterations <==

                           Total Energy        Delta E     RMS |[F,P]|

   @DF-RHF iter   1:  -182.11970355033790   -1.82120e+02   8.10202e-02 
   @DF-RHF iter   2:  -139.94494551723997    4.21748e+01   6.52344e-02 DIIS
   @DF-RHF iter   3:  -191.84281783585615   -5.18979e+01   5.99271e-02 DIIS
   @DF-RHF iter   4:  -217.02156980282430   -2.51788e+01   4.26240e-02 DIIS
   @DF-RHF iter   5:  -231.56064113418873   -1.45391e+01   1.12157e-02 DIIS
   @DF-RHF iter   6:  -232.05902613448288   -4.98385e-01   4.18611e-03 DIIS
   @DF-RHF iter   7:  -232.11761336044751   -5.85872e-02   1.71645e-03 DIIS
   @DF-RHF iter   8:  -232.13239459481665   -1.47812e-02   7.12701e-04 DIIS
   @DF-RHF iter   9:  -232.13508296324599   -2.68837e-03   1.87225e-04 DIIS
   @DF-RHF iter  10:  -232.13532652589916   -2.43563e-04   4.14070e-05 DIIS
   @DF-RHF iter  11:  -232.13534552444898   -1.89985e-05   1.07633e-05 DIIS
   @DF-RHF iter  12:  -232.13534669309772   -1.16865e-06   2.29522e-06 DIIS
   @DF-RHF iter  13:  -232.13534673422069   -4.11230e-08   5.69783e-07 DIIS

  ==> Post-Iterations <==

    Orbital Energies (a.u.)
    -----------------------

    Doubly Occupied:                                                      

       1A    -20.550412     2A    -11.266795     3A    -11.262923  
       4A    -11.213886     5A    -11.212786     6A     -1.377166  
       7A     -1.056966     8A     -0.954589     9A     -0.877714  
      10A     -0.809747    11A     -0.672385    12A     -0.652045  
      13A     -0.631229    14A     -0.607948    15A     -0.563305  
      16A     -0.545297    17A     -0.502349    18A     -0.487700  
      19A     -0.478972    20A     -0.462767    21A     -0.408368  

    Virtual:                                                              

      22A      0.235116    23A      0.249276    24A      0.291127  
      25A      0.295579    26A      0.304591    27A      0.323503  
      28A      0.325823    29A      0.334372    30A      0.347312  
      31A      0.353210    32A      0.372169    33A      0.415695  
      34A      0.445122    35A      0.467344    36A      0.728219  
      37A      0.743835    38A      0.749388    39A      0.762807  
      40A      0.777378    41A      0.806893    42A      0.837547  
      43A      0.848281    44A      0.933474    45A      0.980429  
      46A      1.005100    47A      1.054300    48A      1.124786  
      49A      1.134649    50A      1.138169    51A      1.150730  
      52A      1.177491    53A      1.179250    54A      1.189573  
      55A      1.219198    56A      1.237925    57A      1.240402  
      58A      1.259550    59A      1.293775    60A      1.382334  
      61A      1.424644    62A      1.613234    63A      1.658364  
      64A      1.679348    65A      1.727468    66A      1.777447  
      67A      1.830300    68A      1.878806    69A      2.027723  
      70A      2.139546    71A      2.142466    72A      2.275485  
      73A      2.291038    74A      2.301006    75A      2.371443  
      76A      2.432398    77A      2.466722    78A      2.504035  
      79A      2.516670    80A      2.586905    81A      2.643978  
      82A      2.667591    83A      2.685769    84A      2.784322  
      85A      2.853141    86A      2.875716    87A      2.923888  
      88A      3.044388    89A      3.230625    90A      3.367239  
      91A      4.410915    92A      4.594045    93A      4.661200  
      94A      4.748833    95A      4.927162  

    Final Occupation by Irrep:
              A 
    DOCC [    21 ]

  Energy converged.

  @DF-RHF Final Energy:  -232.13534673422069

   => Energetics <=

    Nuclear Repulsion Energy =            189.7643766665048304
    One-Electron Energy =                -690.6087671757140924
    Two-Electron Energy =                 268.7090437749889134
    DFT Exchange-Correlation Energy =       0.0000000000000000
    Empirical Dispersion Energy =           0.0000000000000000
    PCM Polarization Energy =               0.0000000000000000
    EFP Energy =                            0.0000000000000000
    Total Energy =                       -232.1353467342203203

    Alert: EFP and PCM quantities not currently incorporated into SCF psivars.

Properties will be evaluated at   0.000000,   0.000000,   0.000000 Bohr
  ==> Properties <==


Properties computed using the SCF density matrix

  Nuclear Dipole Moment: (a.u.)
     X:     1.9178      Y:    -1.2817      Z:    -2.5568

  Electronic Dipole Moment: (a.u.)
     X:    -2.0136      Y:     0.8973      Z:     2.1918

  Dipole Moment: (a.u.)
     X:    -0.0958      Y:    -0.3844      Z:    -0.3650     Total:     0.5387

  Dipole Moment: (Debye)
     X:    -0.2434      Y:    -0.9772      Z:    -0.9277     Total:     1.3692


  Saving occupied orbitals to File 180.

*** tstop() called on cx1-3-16-3.cx1.hpc.ic.ac.uk at Tue Jul  5 16:34:51 2016
Module time:
	user time   =       5.73 seconds =       0.10 minutes
	system time =       0.03 seconds =       0.00 minutes
	total time  =          6 seconds =       0.10 minutes
Total time:
	user time   =       5.73 seconds =       0.10 minutes
	system time =       0.03 seconds =       0.00 minutes
	total time  =          6 seconds =       0.10 minutes


Properties will be evaluated at   0.000000,   0.000000,   0.000000 Bohr

Properties computed using the  density matrix

  Nuclear Dipole Moment: (a.u.)
     X:     1.9178      Y:    -1.2817      Z:    -2.5568

  Electronic Dipole Moment: (a.u.)
     X:    -2.0136      Y:     0.8973      Z:     2.1918

  Dipole Moment: (a.u.)
     X:    -0.0958      Y:    -0.3844      Z:    -0.3650     Total:     0.5387

  Dipole Moment: (Debye)
     X:    -0.2434      Y:    -0.9772      Z:    -0.9277     Total:     1.3692

  Quadrupole Moment: (Debye Ang)
    XX:   -30.4710     YY:   -33.0765     ZZ:   -34.3154
    XY:     1.5953     XZ:     0.2220     YZ:    -1.0349

  Traceless Quadrupole Moment: (Debye Ang)
    XX:     2.1499     YY:    -0.4555     ZZ:    -1.6944
    XY:     1.5953     XZ:     0.2220     YZ:    -1.0349

  Mulliken Charges: (a.u.)
   Center  Symbol    Alpha    Beta     Spin     Total
       1     H     0.41853  0.41853  0.00000  0.16294
       2     C     3.07691  3.07691  0.00000 -0.15382
       3     O     4.30758  4.30758  0.00000 -0.61515
       4     H     0.43031  0.43031  0.00000  0.13937
       5     H     0.42335  0.42335  0.00000  0.15329
       6     C     2.98338  2.98338  0.00000  0.03325
       7     C     3.16010  3.16010  0.00000 -0.32020
       8     H     0.43278  0.43278  0.00000  0.13444
       9     H     0.43313  0.43313  0.00000  0.13374
      10     C     3.24786  3.24786  0.00000 -0.49571
      11     H     0.41443  0.41443  0.00000  0.17114
      12     H     0.41431  0.41431  0.00000  0.17137
      13     H     0.42099  0.42099  0.00000  0.15802
      14     H     0.41542  0.41542  0.00000  0.16915
      15     H     0.42092  0.42092  0.00000  0.15817

   Total alpha = 21.00000, Total beta = 21.00000, Total charge = -0.00000


*** PSI4 exiting successfully. Buy a developer a beer!
