
    -----------------------------------------------------------------------
          Psi4: An Open-Source Ab Initio Electronic Structure Package
                               Psi4 1.1 release

                         Git: Rev {HEAD} add49b9 


    R. M. Parrish, L. A. Burns, D. G. A. Smith, A. C. Simmonett,
    A. E. DePrince III, E. G. Hohenstein, U. Bozkaya, A. Yu. Sokolov,
    R. Di Remigio, R. M. Richard, J. F. Gonthier, A. M. James,
    H. R. McAlexander, A. Kumar, M. Saitow, X. Wang, B. P. Pritchard,
    P. Verma, H. F. Schaefer III, K. Patkowski, R. A. King, E. F. Valeev,
    F. A. Evangelista, J. M. Turney, T. D. Crawford, and C. D. Sherrill,
    J. Chem. Theory Comput. in press (2017).
    (doi: 10.1021/acs.jctc.7b00174)

    -----------------------------------------------------------------------


    Psi4 started on: Friday, 15 September 2017 12:40PM

    Process ID:  12940
    PSIDATADIR: /home/raimis/opt/miniconda3/envs/htmd/share/psi4
    Memory:     500.0 MiB
    Threads:    1
    
  ==> Input File <==

--------------------------------------------------------------------------
set_num_threads( 8 )
memory 2.000000 gb

set { reference rks }
set { basis cc-pVDZ }

molecule MOL {
    0 1
    noreorient
    nocom
    symmetry c1
    O    1.050400   0.042900  -0.048100
    C    2.474100   0.047400  -0.029000
    C    3.002600  -1.068900  -0.932000
    N    4.462700  -1.072400  -1.006800
    H    0.760400   0.728400   0.578000
    H    2.809900  -0.097900   1.003200
    H    2.817400   1.026800  -0.378600
    H    2.581000  -0.963300  -1.938400
    H    2.653800  -2.036400  -0.553400
    H    4.753736  -0.774034  -1.937261
    H    4.794074  -2.031629  -0.905206
}

set optking { frozen_dihedral = (" 2 3 4 10 ") }

energy, wfn = energy('B3LYP-D3', return_wfn=True)

import os
os.chdir(os.environ['HTMD_PSI4_WORKDIR'])

oeprop(wfn, 'DIPOLE', 'QUADRUPOLE', 'MULLIKEN_CHARGES')

with open('psi4out.xyz', 'w') as f:
    f.write('11 ' )
    f.write('%.12f\n' % energy)
    f.write(MOL.save_string_xyz())
--------------------------------------------------------------------------
  Threads set to 8 by Python driver.

  Memory set to   1.863 GiB by Python driver.

*** tstart() called on computer03
*** at Fri Sep 15 12:40:55 2017

   => Loading Basis Set <=

    Name: CC-PVDZ
    Role: ORBITAL
    Keyword: BASIS
    atoms 1    entry O          line   190 file /home/raimis/opt/miniconda3/envs/htmd/share/psi4/basis/cc-pvdz.gbs 
    atoms 2-3  entry C          line   130 file /home/raimis/opt/miniconda3/envs/htmd/share/psi4/basis/cc-pvdz.gbs 
    atoms 4    entry N          line   160 file /home/raimis/opt/miniconda3/envs/htmd/share/psi4/basis/cc-pvdz.gbs 
    atoms 5-11 entry H          line    20 file /home/raimis/opt/miniconda3/envs/htmd/share/psi4/basis/cc-pvdz.gbs 


         ---------------------------------------------------------
                                   SCF
            by Justin Turney, Rob Parrish, and Andy Simmonett
                              RKS Reference
                        8 Threads,   1907 MiB Core
         ---------------------------------------------------------

  ==> Geometry <==

    Molecular point group: c1
    Full point group: C1

    Geometry (in Angstrom), charge = 0, multiplicity = 1:

       Center              X                  Y                   Z               Mass       
    ------------   -----------------  -----------------  -----------------  -----------------
           O          1.050400000000     0.042900000000    -0.048100000000    15.994914619560
           C          2.474100000000     0.047400000000    -0.029000000000    12.000000000000
           C          3.002600000000    -1.068900000000    -0.932000000000    12.000000000000
           N          4.462700000000    -1.072400000000    -1.006800000000    14.003074004780
           H          0.760400000000     0.728400000000     0.578000000000     1.007825032070
           H          2.809900000000    -0.097900000000     1.003200000000     1.007825032070
           H          2.817400000000     1.026800000000    -0.378600000000     1.007825032070
           H          2.581000000000    -0.963300000000    -1.938400000000     1.007825032070
           H          2.653800000000    -2.036400000000    -0.553400000000     1.007825032070
           H          4.753736000000    -0.774034000000    -1.937261000000     1.007825032070
           H          4.794074000000    -2.031629000000    -0.905206000000     1.007825032070

  Running in c1 symmetry.

  Rotational constants: A =      0.72028  B =      0.02756  C =      0.02692 [cm^-1]
  Rotational constants: A =  21593.54863  B =    826.12292  C =    807.04854 [MHz]
  Nuclear repulsion =  130.249221053432649

  Charge       = 0
  Multiplicity = 1
  Electrons    = 34
  Nalpha       = 17
  Nbeta        = 17

  ==> Algorithm <==

  SCF Algorithm Type is DF.
  DIIS enabled.
  MOM disabled.
  Fractional occupation disabled.
  Guess Type is SAD.
  Energy threshold   = 1.00e-06
  Density threshold  = 1.00e-06
  Integral threshold = 0.00e+00

  ==> Primary Basis <==

  Basis Set: CC-PVDZ
    Blend: CC-PVDZ
    Number of shells: 45
    Number of basis function: 91
    Number of Cartesian functions: 95
    Spherical Harmonics?: true
    Max angular momentum: 2

  ==> DFT Potential <==

   => B3LYP Composite Functional <= 

    B3LYP Hybrid-GGA Exchange-Correlation Functional (VWN1-RPA)

    P.J. Stephens et. al., J. Phys. Chem., 98, 11623-11627, 1994

    Points   =           5000
    Deriv    =              1
    GGA      =           TRUE
    Meta     =          FALSE

    X_LRC        =          FALSE
    X_Hybrid     =           TRUE
    X_Alpha      =   2.000000E-01
    X_Omega      =   0.000000E+00
    C_LRC        =          FALSE
    C_Hybrid     =          FALSE
    C_Alpha      =   0.000000E+00
    C_Omega      =   0.000000E+00

   => Exchange Functionals <=

    0.8000    B3_X
    0.2000      HF 

   => Correlation Functionals <=

    0.1900 VWN3RPA_C
    0.8100   LYP_C

   => Molecular Quadrature <=

    Radial Scheme    =       TREUTLER
    Pruning Scheme   =           FLAT
    Nuclear Scheme   =       TREUTLER

    BS radius alpha  =              1
    Pruning alpha    =              1
    Radial Points    =             75
    Spherical Points =            302
    Total Points     =         245096
    Total Blocks     =            223
    Max Points       =           4951
    Max Functions    =             91

   => -D3ZERO: Empirical Dispersion <=

    Grimme's -D3 (zero-damping) Dispersion Correction
    Grimme S.; Antony J.; Ehrlich S.; Krieg H. (2010), J. Chem. Phys., 132: 154104

        S6 =   1.000000E+00
        S8 =   1.703000E+00
       SR6 =   1.261000E+00
    ALPHA6 =   1.400000E+01

   => Loading Basis Set <=

    Name: (CC-PVDZ AUX)
    Role: JKFIT
    Keyword: DF_BASIS_SCF
    atoms 1    entry O          line   220 file /home/raimis/opt/miniconda3/envs/htmd/share/psi4/basis/cc-pvdz-jkfit.gbs 
    atoms 2-3  entry C          line   120 file /home/raimis/opt/miniconda3/envs/htmd/share/psi4/basis/cc-pvdz-jkfit.gbs 
    atoms 4    entry N          line   170 file /home/raimis/opt/miniconda3/envs/htmd/share/psi4/basis/cc-pvdz-jkfit.gbs 
    atoms 5-11 entry H          line    50 file /home/raimis/opt/miniconda3/envs/htmd/share/psi4/basis/cc-pvdz-jkfit.gbs 

  ==> Pre-Iterations <==

   -------------------------------------------------------
    Irrep   Nso     Nmo     Nalpha   Nbeta   Ndocc  Nsocc
   -------------------------------------------------------
     A         91      91       0       0       0       0
   -------------------------------------------------------
    Total      91      91      17      17      17       0
   -------------------------------------------------------

  ==> Integral Setup <==

  ==> DFJK: Density-Fitted J/K Matrices <==

    J tasked:                  Yes
    K tasked:                  Yes
    wK tasked:                  No
    OpenMP threads:              8
    Integrals threads:           8
    Memory (MB):              1430
    Algorithm:                Core
    Integral Cache:           NONE
    Schwarz Cutoff:          1E-12
    Fitting Condition:       1E-12

   => Auxiliary Basis Set <=

  Basis Set: (CC-PVDZ AUX)
    Blend: CC-PVDZ-JKFIT
    Number of shells: 159
    Number of basis function: 441
    Number of Cartesian functions: 499
    Spherical Harmonics?: true
    Max angular momentum: 3

  Minimum eigenvalue in the overlap matrix is 4.6616484270E-03.
  Using Symmetric Orthogonalization.

  SCF Guess: Superposition of Atomic Densities via on-the-fly atomic UHF.

  ==> Iterations <==

                           Total Energy        Delta E     RMS |[F,P]|

   @DF-RKS iter   0:  -210.81942206996303   -2.10819e+02   7.22186e-02 
   @DF-RKS iter   1:  -210.19654610165773    6.22876e-01   1.50254e-02 
   @DF-RKS iter   2:  -210.03495533103867    1.61591e-01   1.65807e-02 DIIS
   @DF-RKS iter   3:  -210.38891567176000   -3.53960e-01   8.82029e-04 DIIS
   @DF-RKS iter   4:  -210.38950895181040   -5.93280e-04   7.57665e-04 DIIS
   @DF-RKS iter   5:  -210.39003016166777   -5.21210e-04   8.33097e-05 DIIS
   @DF-RKS iter   6:  -210.39003586276786   -5.70110e-06   4.86105e-05 DIIS
   @DF-RKS iter   7:  -210.39003792526890   -2.06250e-06   3.01301e-06 DIIS
   @DF-RKS iter   8:  -210.39003793803073   -1.27618e-08   1.27255e-06 DIIS
   @DF-RKS iter   9:  -210.39003794027971   -2.24898e-09   3.33305e-07 DIIS

  ==> Post-Iterations <==

    Orbital Energies (a.u.)
    -----------------------

    Doubly Occupied:                                                      

       1A    -19.122610     2A    -14.306060     3A    -10.216519  
       4A    -10.201608     5A     -1.005050     6A     -0.876990  
       7A     -0.709994     8A     -0.591729     9A     -0.501854  
      10A     -0.496325    11A     -0.435702    12A     -0.425756  
      13A     -0.392914    14A     -0.346128    15A     -0.324132  
      16A     -0.256183    17A     -0.235310  

    Virtual:                                                              

      18A      0.051306    19A      0.059402    20A      0.092675  
      21A      0.123690    22A      0.127162    23A      0.145683  
      24A      0.190337    25A      0.204515    26A      0.250486  
      27A      0.266074    28A      0.426977    29A      0.452250  
      30A      0.497259    31A      0.523765    32A      0.553356  
      33A      0.569932    34A      0.612142    35A      0.617883  
      36A      0.636200    37A      0.657109    38A      0.662805  
      39A      0.682758    40A      0.698381    41A      0.812666  
      42A      0.844142    43A      0.882408    44A      0.912746  
      45A      0.930156    46A      0.956845    47A      0.996615  
      48A      1.067460    49A      1.200636    50A      1.215465  
      51A      1.262566    52A      1.280973    53A      1.299697  
      54A      1.341939    55A      1.363251    56A      1.501848  
      57A      1.550712    58A      1.603673    59A      1.615151  
      60A      1.624301    61A      1.657242    62A      1.689221  
      63A      1.711387    64A      1.726053    65A      1.747051  
      66A      1.774097    67A      1.792882    68A      1.851002  
      69A      1.906309    70A      1.973211    71A      2.021500  
      72A      2.049027    73A      2.059241    74A      2.137149  
      75A      2.144755    76A      2.243447    77A      2.294753  
      78A      2.397811    79A      2.422585    80A      2.447281  
      81A      2.487959    82A      2.517470    83A      2.600268  
      84A      2.648983    85A      2.816679    86A      2.964646  
      87A      2.986238    88A      3.072768    89A      3.106933  
      90A      3.205669    91A      3.699183  

    Final Occupation by Irrep:
              A 
    DOCC [    17 ]

  Energy converged.

  @DF-RKS Final Energy:  -210.39003794027971

   => Energetics <=

    Nuclear Repulsion Energy =            130.2492210534326489
    One-Electron Energy =                -543.5068738966879209
    Two-Electron Energy =                 226.3593940390486807
    DFT Exchange-Correlation Energy =     -23.4870933560731139
    Empirical Dispersion Energy =          -0.0046857800000000
    PCM Polarization Energy =               0.0000000000000000
    EFP Energy =                            0.0000000000000000
    Total Energy =                       -210.3900379402797114



Properties will be evaluated at   0.000000,   0.000000,   0.000000 Bohr

Properties computed using the SCF density matrix

  Nuclear Dipole Moment: (a.u.)
     X:   177.0156      Y:   -32.9581      Z:   -32.7491

  Electronic Dipole Moment: (a.u.)
     X:  -176.7816      Y:    32.9635      Z:    32.6861

  Dipole Moment: (a.u.)
     X:     0.2339      Y:     0.0054      Z:    -0.0629     Total:     0.2423

  Dipole Moment: (Debye)
     X:     0.5946      Y:     0.0138      Z:    -0.1600     Total:     0.6159


*** tstop() called on computer03 at Fri Sep 15 12:41:15 2017
Module time:
	user time   =      38.13 seconds =       0.64 minutes
	system time =       0.85 seconds =       0.01 minutes
	total time  =         20 seconds =       0.33 minutes
Total time:
	user time   =      38.13 seconds =       0.64 minutes
	system time =       0.85 seconds =       0.01 minutes
	total time  =         20 seconds =       0.33 minutes


Properties will be evaluated at   0.000000,   0.000000,   0.000000 Bohr

Properties computed using the  density matrix

  Nuclear Dipole Moment: (a.u.)
     X:   177.0156      Y:   -32.9581      Z:   -32.7491

  Electronic Dipole Moment: (a.u.)
     X:  -176.7816      Y:    32.9635      Z:    32.6861

  Dipole Moment: (a.u.)
     X:     0.2339      Y:     0.0054      Z:    -0.0629     Total:     0.2423

  Dipole Moment: (Debye)
     X:     0.5946      Y:     0.0138      Z:    -0.1600     Total:     0.6159

  Quadrupole Moment: (Debye Ang)
    XX:   -24.4465     YY:   -21.9053     ZZ:   -22.3532
    XY:    -4.1079     XZ:    -4.8880     YZ:     2.1346

  Traceless Quadrupole Moment: (Debye Ang)
    XX:    -1.5448     YY:     0.9964     ZZ:     0.5484
    XY:    -4.1079     XZ:    -4.8880     YZ:     2.1346

  Mulliken Charges: (a.u.)
   Center  Symbol    Alpha    Beta     Spin     Total
       1     O     4.14136  4.14136  0.00000 -0.28271
       2     C     2.92059  2.92059  0.00000  0.15882
       3     C     2.99777  2.99777  0.00000  0.00445
       4     N     3.58773  3.58773  0.00000 -0.17545
       5     H     0.43026  0.43026  0.00000  0.13948
       6     H     0.50215  0.50215  0.00000 -0.00431
       7     H     0.50385  0.50385  0.00000 -0.00770
       8     H     0.49608  0.49608  0.00000  0.00784
       9     H     0.49326  0.49326  0.00000  0.01348
      10     H     0.46362  0.46362  0.00000  0.07275
      11     H     0.46332  0.46332  0.00000  0.07336

   Total alpha = 17.00000, Total beta = 17.00000, Total charge = -0.00000


*** Psi4 exiting successfully. Buy a developer a beer!
