    -----------------------------------------------------------------------
          Psi4: An Open-Source Ab Initio Electronic Structure Package
                              Psi4 (no tag) Driver

                          Git: Rev {detached?}  

    J. M. Turney, A. C. Simmonett, R. M. Parrish, E. G. Hohenstein,
    F. A. Evangelista, J. T. Fermann, B. J. Mintz, L. A. Burns, J. J. Wilke,
    M. L. Abrams, N. J. Russ, M. L. Leininger, C. L. Janssen, E. T. Seidl,
    W. D. Allen, H. F. Schaefer, R. A. King, E. F. Valeev, C. D. Sherrill,
    and T. D. Crawford, WIREs Comput. Mol. Sci. 2, 556-565 (2012)
    (doi: 10.1002/wcms.93)

                         Additional Contributions by
    A. E. DePrince, M. Saitow, U. Bozkaya, A. Yu. Sokolov
    -----------------------------------------------------------------------


    Psi4 started on: Tue Jul  5 16:22:15 2016

    Process ID:  22912
    PSI4DATADIR: /export131/home/mjharvey/miniconda3/share
    Memory level set to 256.000 MB

  ==> Input File <==

--------------------------------------------------------------------------
set {
	reference rhf
	basis 6-31G*
}


set_num_threads( 1 )
memory 2 gb

molecule MOL {
0 1

H	 2.235631	 1.779595	 0.082552
O	 1.305828	 1.786901	 0.258424
C	 0.702312	 0.627605	 -0.264544
C	 -0.714990	 0.596302	 0.266387
H	 1.232034	 -0.262833	 0.063130
H	 0.696559	 0.647759	 -1.352241
O	 -1.405996	 -0.526611	 -0.195820
H	 -1.257453	 1.468809	 -0.075599
H	 -0.688972	 0.618407	 1.353696
H	 -0.890587	 -1.292708	 0.022039

	symmetry c1
}
set optking {
	frozen_dihedral = ("
		10 7 4 3
	")
}

ee = energy('scf')
oeprop('DIPOLE', 'QUADRUPOLE', 'MULLIKEN_CHARGES')
f=open( 'psi4out.xyz', 'w' )
f.write( "10  " )
f.write( str(ee) + "\n" )
f.write( MOL.save_string_xyz() )
f.close()
--------------------------------------------------------------------------

  Memory set to   2.000 GiB by Python script.

*** tstart() called on cx1-49-4-2.cx1.hpc.ic.ac.uk
*** at Tue Jul  5 16:22:16 2016


         ---------------------------------------------------------
                                   SCF
            by Justin Turney, Rob Parrish, and Andy Simmonett
                              RHF Reference
                        1 Threads,   2000 MiB Core
         ---------------------------------------------------------

  ==> Geometry <==

    Molecular point group: c1
    Full point group: C1

    Geometry (in Angstrom), charge = 0, multiplicity = 1:

       Center              X                  Y                   Z               Mass       
    ------------   -----------------  -----------------  -----------------  -----------------
           H          2.242348259261     1.169839000586     0.064534125956     1.007825032070
           O          1.312545259261     1.177145000586     0.240406125956    15.994914619560
           C          0.709029259261     0.017849000586    -0.282561874044    12.000000000000
           C         -0.708272740739    -0.013453999414     0.248369125956    12.000000000000
           H          1.238751259261    -0.872588999414     0.045112125956     1.007825032070
           H          0.703276259261     0.038003000586    -1.370258874044     1.007825032070
           O         -1.399278740739    -1.136366999414    -0.213837874044    15.994914619560
           H         -1.250735740739     0.859053000586    -0.093616874044     1.007825032070
           H         -0.682254740739     0.008651000586     1.335678125956     1.007825032070
           H         -0.883869740739    -1.902463999414     0.004021125956     1.007825032070

  Running in c1 symmetry.

  Rotational constants: A =      1.00843  B =      0.13572  C =      0.12612 [cm^-1]
  Rotational constants: A =  30232.10774  B =   4068.66049  C =   3781.06632 [MHz]
  Nuclear repulsion =  131.648459352351807

  Charge       = 0
  Multiplicity = 1
  Electrons    = 34
  Nalpha       = 17
  Nbeta        = 17

  ==> Algorithm <==

  SCF Algorithm Type is DF.
  DIIS enabled.
  MOM disabled.
  Fractional occupation disabled.
  Guess Type is CORE.
  Energy threshold   = 1.00e-06
  Density threshold  = 1.00e-06
  Integral threshold = 0.00e+00

  ==> Primary Basis <==

  Basis Set: 6-31G*
    Number of shells: 36
    Number of basis function: 72
    Number of Cartesian functions: 72
    Spherical Harmonics?: false
    Max angular momentum: 2

  ==> Pre-Iterations <==

   -------------------------------------------------------
    Irrep   Nso     Nmo     Nalpha   Nbeta   Ndocc  Nsocc
   -------------------------------------------------------
     A         72      72       0       0       0       0
   -------------------------------------------------------
    Total      72      72      17      17      17       0
   -------------------------------------------------------

 OEINTS: Overlap, kinetic, potential, dipole, and quadrupole integrals
         stored in file 35.

  ==> Integral Setup <==

  ==> DFJK: Density-Fitted J/K Matrices <==

    J tasked:                  Yes
    K tasked:                  Yes
    wK tasked:                  No
    OpenMP threads:              1
    Integrals threads:           1
    Memory (MB):              1430
    Algorithm:                Core
    Integral Cache:           NONE
    Schwarz Cutoff:          1E-12
    Fitting Condition:       1E-12

   => Auxiliary Basis Set <=

  Basis Set: 
    Number of shells: 150
    Number of basis function: 474
    Number of Cartesian functions: 474
    Spherical Harmonics?: false
    Max angular momentum: 3

  Minimum eigenvalue in the overlap matrix is 4.2211056931E-03.
  Using Symmetric Orthogonalization.
  SCF Guess: Core (One-Electron) Hamiltonian.

  ==> Iterations <==

                           Total Energy        Delta E     RMS |[F,P]|

   @DF-RHF iter   1:  -202.12007897461049   -2.02120e+02   8.23410e-02 
   @DF-RHF iter   2:  -203.37077322481159   -1.25069e+00   6.84016e-02 DIIS
   @DF-RHF iter   3:  -227.29065664307117   -2.39199e+01   2.73470e-02 DIIS
   @DF-RHF iter   4:  -228.76354051022381   -1.47288e+00   7.42977e-03 DIIS
   @DF-RHF iter   5:  -228.89568028111259   -1.32140e-01   3.17397e-03 DIIS
   @DF-RHF iter   6:  -228.91979920580857   -2.41189e-02   3.96691e-04 DIIS
   @DF-RHF iter   7:  -228.92036910675861   -5.69901e-04   1.82088e-04 DIIS
   @DF-RHF iter   8:  -228.92046555487920   -9.64481e-05   6.86662e-05 DIIS
   @DF-RHF iter   9:  -228.92048185060602   -1.62957e-05   1.40003e-05 DIIS
   @DF-RHF iter  10:  -228.92048268721035   -8.36604e-07   5.13860e-06 DIIS
   @DF-RHF iter  11:  -228.92048277976730   -9.25569e-08   1.56532e-06 DIIS
   @DF-RHF iter  12:  -228.92048279237056   -1.26033e-08   3.22806e-07 DIIS

  ==> Post-Iterations <==

    Orbital Energies (a.u.)
    -----------------------

    Doubly Occupied:                                                      

       1A    -20.564420     2A    -20.560730     3A    -11.277066  
       4A    -11.268190     5A     -1.377102     6A     -1.363098  
       7A     -0.999510     8A     -0.849900     9A     -0.716156  
      10A     -0.695472    11A     -0.640393    12A     -0.609527  
      13A     -0.581902    14A     -0.532173    15A     -0.484446  
      16A     -0.455211    17A     -0.436859  

    Virtual:                                                              

      18A      0.215821    19A      0.221065    20A      0.284817  
      21A      0.305645    22A      0.314131    23A      0.361862  
      24A      0.392501    25A      0.432156    26A      0.455176  
      27A      0.724307    28A      0.783741    29A      0.822755  
      30A      0.828316    31A      0.908068    32A      0.949139  
      33A      1.063327    34A      1.073290    35A      1.100027  
      36A      1.124334    37A      1.170606    38A      1.185065  
      39A      1.196889    40A      1.243230    41A      1.257008  
      42A      1.285455    43A      1.337521    44A      1.397929  
      45A      1.506467    46A      1.607874    47A      1.700898  
      48A      1.712499    49A      1.823443    50A      1.896633  
      51A      1.934750    52A      2.033915    53A      2.119343  
      54A      2.140883    55A      2.287205    56A      2.345603  
      57A      2.394914    58A      2.422760    59A      2.521828  
      60A      2.604128    61A      2.658123    62A      2.789902  
      63A      2.798975    64A      2.853965    65A      2.931090  
      66A      2.957525    67A      3.234176    68A      3.248791  
      69A      4.104185    70A      4.275886    71A      4.626981  
      72A      4.856138  

    Final Occupation by Irrep:
              A 
    DOCC [    17 ]

  Energy converged.

  @DF-RHF Final Energy:  -228.92048279237056

   => Energetics <=

    Nuclear Repulsion Energy =            131.6484593523518072
    One-Electron Energy =                -574.3135394897258266
    Two-Electron Energy =                 213.7445973450032852
    DFT Exchange-Correlation Energy =       0.0000000000000000
    Empirical Dispersion Energy =           0.0000000000000000
    PCM Polarization Energy =               0.0000000000000000
    EFP Energy =                            0.0000000000000000
    Total Energy =                       -228.9204827923707626

    Alert: EFP and PCM quantities not currently incorporated into SCF psivars.

Properties will be evaluated at   0.000000,   0.000000,   0.000000 Bohr
  ==> Properties <==


Properties computed using the SCF density matrix

  Nuclear Dipole Moment: (a.u.)
     X:     1.2816      Y:    -0.6556      Z:    -0.0135

  Electronic Dipole Moment: (a.u.)
     X:    -0.2636      Y:     0.1705      Z:     0.0065

  Dipole Moment: (a.u.)
     X:     1.0180      Y:    -0.4851      Z:    -0.0070     Total:     1.1277

  Dipole Moment: (Debye)
     X:     2.5875      Y:    -1.2330      Z:    -0.0179     Total:     2.8663


  Saving occupied orbitals to File 180.

*** tstop() called on cx1-49-4-2.cx1.hpc.ic.ac.uk at Tue Jul  5 16:22:19 2016
Module time:
	user time   =       2.71 seconds =       0.05 minutes
	system time =       0.03 seconds =       0.00 minutes
	total time  =          3 seconds =       0.05 minutes
Total time:
	user time   =       2.71 seconds =       0.05 minutes
	system time =       0.03 seconds =       0.00 minutes
	total time  =          3 seconds =       0.05 minutes


Properties will be evaluated at   0.000000,   0.000000,   0.000000 Bohr

Properties computed using the  density matrix

  Nuclear Dipole Moment: (a.u.)
     X:     1.2816      Y:    -0.6556      Z:    -0.0135

  Electronic Dipole Moment: (a.u.)
     X:    -0.2636      Y:     0.1705      Z:     0.0065

  Dipole Moment: (a.u.)
     X:     1.0180      Y:    -0.4851      Z:    -0.0070     Total:     1.1277

  Dipole Moment: (Debye)
     X:     2.5875      Y:    -1.2330      Z:    -0.0179     Total:     2.8663

  Quadrupole Moment: (Debye Ang)
    XX:   -23.9795     YY:   -24.3308     ZZ:   -25.5329
    XY:    -2.0499     XZ:    -2.0678     YZ:    -2.0061

  Traceless Quadrupole Moment: (Debye Ang)
    XX:     0.6349     YY:     0.2836     ZZ:    -0.9185
    XY:    -2.0499     XZ:    -2.0678     YZ:    -2.0061

  Mulliken Charges: (a.u.)
   Center  Symbol    Alpha    Beta     Spin     Total
       1     H     0.27817  0.27817  0.00000  0.44366
       2     O     4.37262  4.37262  0.00000 -0.74524
       3     C     3.01053  3.01053  0.00000 -0.02106
       4     C     2.99906  2.99906  0.00000  0.00187
       5     H     0.43736  0.43736  0.00000  0.12529
       6     H     0.42080  0.42080  0.00000  0.15840
       7     O     4.36805  4.36805  0.00000 -0.73611
       8     H     0.40764  0.40764  0.00000  0.18471
       9     H     0.42226  0.42226  0.00000  0.15549
      10     H     0.28351  0.28351  0.00000  0.43299

   Total alpha = 17.00000, Total beta = 17.00000, Total charge =  0.00000


*** PSI4 exiting successfully. Buy a developer a beer!
