    -----------------------------------------------------------------------
          Psi4: An Open-Source Ab Initio Electronic Structure Package
                              Psi4 (no tag) Driver

                          Git: Rev {detached?}  

    J. M. Turney, A. C. Simmonett, R. M. Parrish, E. G. Hohenstein,
    F. A. Evangelista, J. T. Fermann, B. J. Mintz, L. A. Burns, J. J. Wilke,
    M. L. Abrams, N. J. Russ, M. L. Leininger, C. L. Janssen, E. T. Seidl,
    W. D. Allen, H. F. Schaefer, R. A. King, E. F. Valeev, C. D. Sherrill,
    and T. D. Crawford, WIREs Comput. Mol. Sci. 2, 556-565 (2012)
    (doi: 10.1002/wcms.93)

                         Additional Contributions by
    A. E. DePrince, M. Saitow, U. Bozkaya, A. Yu. Sokolov
    -----------------------------------------------------------------------


    Psi4 started on: Tue Jul  5 16:31:49 2016

    Process ID:  11653
    PSI4DATADIR: /export131/home/mjharvey/miniconda3/share
    Memory level set to 256.000 MB

  ==> Input File <==

--------------------------------------------------------------------------
set {
	reference rhf
	basis 6-31G*
}


set_num_threads( 1 )
memory 2 gb

molecule MOL {
0 1

H	 1.179860	 -1.177142	 -0.474050
O	 1.328369	 -0.317226	 -0.843295
C	 0.709265	 0.639550	 -0.033818
C	 -0.795902	 0.595680	 -0.067389
H	 1.053438	 1.604321	 -0.388733
H	 1.046217	 0.549694	 0.998371
C	 -1.522220	 -0.487727	 -0.255690
H	 -1.282245	 1.548446	 0.074703
H	 -1.071454	 -1.449856	 -0.418625
H	 -2.596511	 -0.445958	 -0.267127

	symmetry c1
}
set optking {
	frozen_dihedral = ("
		5 3 2 1,
		3 4 7 9
	")
}

ee = energy('scf')
oeprop('DIPOLE', 'QUADRUPOLE', 'MULLIKEN_CHARGES')
f=open( 'psi4out.xyz', 'w' )
f.write( "10  " )
f.write( str(ee) + "\n" )
f.write( MOL.save_string_xyz() )
f.close()
--------------------------------------------------------------------------

  Memory set to   2.000 GiB by Python script.

*** tstart() called on cx1-3-5-2.cx1.hpc.ic.ac.uk
*** at Tue Jul  5 16:31:49 2016


         ---------------------------------------------------------
                                   SCF
            by Justin Turney, Rob Parrish, and Andy Simmonett
                              RHF Reference
                        1 Threads,   2000 MiB Core
         ---------------------------------------------------------

  ==> Geometry <==

    Molecular point group: c1
    Full point group: C1

    Geometry (in Angstrom), charge = 0, multiplicity = 1:

       Center              X                  Y                   Z               Mass       
    ------------   -----------------  -----------------  -----------------  -----------------
           H          1.175430499033    -1.255197109469    -0.159615288421     1.007825032070
           O          1.323939499033    -0.395281109469    -0.528860288421    15.994914619560
           C          0.704835499033     0.561494890531     0.280616711579    12.000000000000
           C         -0.800331500967     0.517624890531     0.247045711579    12.000000000000
           H          1.049008499033     1.526265890531    -0.074298288421     1.007825032070
           H          1.041787499033     0.471638890531     1.312805711579     1.007825032070
           C         -1.526649500967    -0.565782109469     0.058744711579    12.000000000000
           H         -1.286674500967     1.470390890531     0.389137711579     1.007825032070
           H         -1.075883500967    -1.527911109469    -0.104190288421     1.007825032070
           H         -2.600940500967    -0.524013109469     0.047307711579     1.007825032070

  Running in c1 symmetry.

  Rotational constants: A =      0.59013  B =      0.19240  C =      0.15258 [cm^-1]
  Rotational constants: A =  17691.78325  B =   5768.13240  C =   4574.14191 [MHz]
  Nuclear repulsion =  119.166323769795369

  Charge       = 0
  Multiplicity = 1
  Electrons    = 32
  Nalpha       = 16
  Nbeta        = 16

  ==> Algorithm <==

  SCF Algorithm Type is DF.
  DIIS enabled.
  MOM disabled.
  Fractional occupation disabled.
  Guess Type is CORE.
  Energy threshold   = 1.00e-06
  Density threshold  = 1.00e-06
  Integral threshold = 0.00e+00

  ==> Primary Basis <==

  Basis Set: 6-31G*
    Number of shells: 36
    Number of basis function: 72
    Number of Cartesian functions: 72
    Spherical Harmonics?: false
    Max angular momentum: 2

  ==> Pre-Iterations <==

   -------------------------------------------------------
    Irrep   Nso     Nmo     Nalpha   Nbeta   Ndocc  Nsocc
   -------------------------------------------------------
     A         72      72       0       0       0       0
   -------------------------------------------------------
    Total      72      72      16      16      16       0
   -------------------------------------------------------

 OEINTS: Overlap, kinetic, potential, dipole, and quadrupole integrals
         stored in file 35.

  ==> Integral Setup <==

  ==> DFJK: Density-Fitted J/K Matrices <==

    J tasked:                  Yes
    K tasked:                  Yes
    wK tasked:                  No
    OpenMP threads:              1
    Integrals threads:           1
    Memory (MB):              1430
    Algorithm:                Core
    Integral Cache:           NONE
    Schwarz Cutoff:          1E-12
    Fitting Condition:       1E-12

   => Auxiliary Basis Set <=

  Basis Set: 
    Number of shells: 150
    Number of basis function: 474
    Number of Cartesian functions: 474
    Spherical Harmonics?: false
    Max angular momentum: 3

  Minimum eigenvalue in the overlap matrix is 4.1636203313E-03.
  Using Symmetric Orthogonalization.
  SCF Guess: Core (One-Electron) Hamiltonian.

  ==> Iterations <==

                           Total Energy        Delta E     RMS |[F,P]|

   @DF-RHF iter   1:  -158.34000972726727   -1.58340e+02   8.93886e-02 
   @DF-RHF iter   2:  -123.08754282938368    3.52525e+01   8.08833e-02 DIIS
   @DF-RHF iter   3:  -167.84229934162732   -4.47548e+01   5.94764e-02 DIIS
   @DF-RHF iter   4:  -189.86609929017715   -2.20238e+01   2.75563e-02 DIIS
   @DF-RHF iter   5:  -191.83791277447068   -1.97181e+00   5.28959e-03 DIIS
   @DF-RHF iter   6:  -191.90115846629277   -6.32457e-02   1.93673e-03 DIIS
   @DF-RHF iter   7:  -191.91118925389168   -1.00308e-02   6.52395e-04 DIIS
   @DF-RHF iter   8:  -191.91263850332945   -1.44925e-03   1.30939e-04 DIIS
   @DF-RHF iter   9:  -191.91273351293887   -9.50096e-05   4.49041e-05 DIIS
   @DF-RHF iter  10:  -191.91274786892080   -1.43560e-05   1.68697e-05 DIIS
   @DF-RHF iter  11:  -191.91274993128178   -2.06236e-06   6.17253e-06 DIIS
   @DF-RHF iter  12:  -191.91275008390880   -1.52627e-07   2.22815e-06 DIIS
   @DF-RHF iter  13:  -191.91275010048054   -1.65717e-08   4.19812e-07 DIIS

  ==> Post-Iterations <==

    Orbital Energies (a.u.)
    -----------------------

    Doubly Occupied:                                                      

       1A    -20.559728     2A    -11.277800     3A    -11.231492  
       4A    -11.222527     5A     -1.368557     6A     -1.059506  
       7A     -0.929154     8A     -0.766802     9A     -0.697151  
      10A     -0.658428    11A     -0.620237    12A     -0.568849  
      13A     -0.528478    14A     -0.505483    15A     -0.442541  
      16A     -0.366133  

    Virtual:                                                              

      17A      0.176723    18A      0.223199    19A      0.257981  
      20A      0.290199    21A      0.330600    22A      0.336917  
      23A      0.355726    24A      0.414371    25A      0.469554  
      26A      0.537812    27A      0.727273    28A      0.751196  
      29A      0.781632    30A      0.818878    31A      0.836086  
      32A      0.895030    33A      0.912120    34A      0.955164  
      35A      1.009661    36A      1.080467    37A      1.128219  
      38A      1.153971    39A      1.172926    40A      1.194362  
      41A      1.217676    42A      1.250688    43A      1.339402  
      44A      1.360129    45A      1.408176    46A      1.452985  
      47A      1.501489    48A      1.718501    49A      1.732713  
      50A      1.861022    51A      1.938445    52A      1.988697  
      53A      2.029497    54A      2.147664    55A      2.268229  
      56A      2.285053    57A      2.363242    58A      2.457280  
      59A      2.499690    60A      2.560764    61A      2.689268  
      62A      2.732527    63A      2.788273    64A      2.851636  
      65A      2.887876    66A      3.113785    67A      3.206990  
      68A      3.311474    69A      4.168697    70A      4.545841  
      71A      4.638152    72A      4.852445  

    Final Occupation by Irrep:
              A 
    DOCC [    16 ]

  Energy converged.

  @DF-RHF Final Energy:  -191.91275010048054

   => Energetics <=

    Nuclear Repulsion Energy =            119.1663237697953690
    One-Electron Energy =                -496.5524440097107117
    Two-Electron Energy =                 185.4733701394345076
    DFT Exchange-Correlation Energy =       0.0000000000000000
    Empirical Dispersion Energy =           0.0000000000000000
    PCM Polarization Energy =               0.0000000000000000
    EFP Energy =                            0.0000000000000000
    Total Energy =                       -191.9127501004808209

    Alert: EFP and PCM quantities not currently incorporated into SCF psivars.

Properties will be evaluated at   0.000000,   0.000000,   0.000000 Bohr
  ==> Properties <==


Properties computed using the SCF density matrix

  Nuclear Dipole Moment: (a.u.)
     X:    -1.5848      Y:     0.1492      Z:     1.3204

  Electronic Dipole Moment: (a.u.)
     X:     1.2637      Y:    -0.2458      Z:    -0.7177

  Dipole Moment: (a.u.)
     X:    -0.3211      Y:    -0.0966      Z:     0.6027     Total:     0.6896

  Dipole Moment: (Debye)
     X:    -0.8161      Y:    -0.2454      Z:     1.5318     Total:     1.7529


  Saving occupied orbitals to File 180.

*** tstop() called on cx1-3-5-2.cx1.hpc.ic.ac.uk at Tue Jul  5 16:31:52 2016
Module time:
	user time   =       2.24 seconds =       0.04 minutes
	system time =       0.03 seconds =       0.00 minutes
	total time  =          3 seconds =       0.05 minutes
Total time:
	user time   =       2.24 seconds =       0.04 minutes
	system time =       0.03 seconds =       0.00 minutes
	total time  =          3 seconds =       0.05 minutes


Properties will be evaluated at   0.000000,   0.000000,   0.000000 Bohr

Properties computed using the  density matrix

  Nuclear Dipole Moment: (a.u.)
     X:    -1.5848      Y:     0.1492      Z:     1.3204

  Electronic Dipole Moment: (a.u.)
     X:     1.2637      Y:    -0.2458      Z:    -0.7177

  Dipole Moment: (a.u.)
     X:    -0.3211      Y:    -0.0966      Z:     0.6027     Total:     0.6896

  Dipole Moment: (Debye)
     X:    -0.8161      Y:    -0.2454      Z:     1.5318     Total:     1.7529

  Quadrupole Moment: (Debye Ang)
    XX:   -26.5529     YY:   -20.6136     ZZ:   -27.6941
    XY:    -0.4688     XZ:     2.1787     YZ:    -0.0077

  Traceless Quadrupole Moment: (Debye Ang)
    XX:    -1.5994     YY:     4.3399     ZZ:    -2.7406
    XY:    -0.4688     XZ:     2.1787     YZ:    -0.0077

  Mulliken Charges: (a.u.)
   Center  Symbol    Alpha    Beta     Spin     Total
       1     H     0.27972  0.27972  0.00000  0.44057
       2     O     4.36340  4.36340  0.00000 -0.72679
       3     C     3.00884  3.00884  0.00000 -0.01767
       4     C     3.08173  3.08173  0.00000 -0.16346
       5     H     0.41107  0.41107  0.00000  0.17786
       6     H     0.42274  0.42274  0.00000  0.15452
       7     C     3.19580  3.19580  0.00000 -0.39160
       8     H     0.40833  0.40833  0.00000  0.18335
       9     H     0.41986  0.41986  0.00000  0.16029
      10     H     0.40853  0.40853  0.00000  0.18295

   Total alpha = 16.00000, Total beta = 16.00000, Total charge =  0.00000


*** PSI4 exiting successfully. Buy a developer a beer!
