    -----------------------------------------------------------------------
          Psi4: An Open-Source Ab Initio Electronic Structure Package
                              Psi4 (no tag) Driver

                          Git: Rev {detached?}  

    J. M. Turney, A. C. Simmonett, R. M. Parrish, E. G. Hohenstein,
    F. A. Evangelista, J. T. Fermann, B. J. Mintz, L. A. Burns, J. J. Wilke,
    M. L. Abrams, N. J. Russ, M. L. Leininger, C. L. Janssen, E. T. Seidl,
    W. D. Allen, H. F. Schaefer, R. A. King, E. F. Valeev, C. D. Sherrill,
    and T. D. Crawford, WIREs Comput. Mol. Sci. 2, 556-565 (2012)
    (doi: 10.1002/wcms.93)

                         Additional Contributions by
    A. E. DePrince, M. Saitow, U. Bozkaya, A. Yu. Sokolov
    -----------------------------------------------------------------------


    Psi4 started on: Tue Jul  5 16:51:10 2016

    Process ID:  31059
    PSI4DATADIR: /export131/home/mjharvey/miniconda3/share
    Memory level set to 256.000 MB

  ==> Input File <==

--------------------------------------------------------------------------
set {
	reference rhf
	basis 6-31G*
}


set_num_threads( 1 )
memory 2 gb

molecule MOL {
0 1

H	 -2.095764	 0.435638	 -2.350391
C	 -2.795213	 1.048318	 -1.768139
C	 -2.660244	 0.921717	 -0.272021
O	 -3.583432	 1.744001	 -2.321751
C	 -2.982830	 -0.492378	 0.230502
H	 -1.658165	 1.225284	 0.007967
H	 -3.359783	 1.628209	 0.173142
C	 -4.457163	 -0.873821	 0.075124
H	 -2.367436	 -1.200443	 -0.316506
H	 -2.689020	 -0.580244	 1.275353
C	 -4.761788	 -2.289393	 0.569263
H	 -4.738985	 -0.786168	 -0.972130
H	 -5.080945	 -0.163769	 0.614810
C	 -6.233863	 -2.673409	 0.397578
H	 -4.128756	 -2.992860	 0.034345
H	 -4.489777	 -2.370501	 1.620840
C	 -6.604049	 -4.052915	 0.954351
H	 -6.496509	 -2.630404	 -0.658291
H	 -6.848680	 -1.925065	 0.893254
C	 -5.954001	 -5.228777	 0.223320
H	 -7.684158	 -4.165186	 0.902303
H	 -6.345723	 -4.096283	 2.010433
H	 -6.182089	 -5.201982	 -0.839001
H	 -4.874386	 -5.227135	 0.330105
H	 -6.317674	 -6.173992	 0.614864

	symmetry c1
}
set optking {
	frozen_dihedral = ("
		6 3 5 8,
		3 5 8 12,
		12 8 11 14,
		8 11 14 18,
		20 17 14 18
	")
}

ee = energy('scf')
oeprop('DIPOLE', 'QUADRUPOLE', 'MULLIKEN_CHARGES')
f=open( 'psi4out.xyz', 'w' )
f.write( "25  " )
f.write( str(ee) + "\n" )
f.write( MOL.save_string_xyz() )
f.close()
--------------------------------------------------------------------------

  Memory set to   2.000 GiB by Python script.

*** tstart() called on cx1-3-1-3.cx1.hpc.ic.ac.uk
*** at Tue Jul  5 16:51:11 2016


         ---------------------------------------------------------
                                   SCF
            by Justin Turney, Rob Parrish, and Andy Simmonett
                              RHF Reference
                        1 Threads,   2000 MiB Core
         ---------------------------------------------------------

  ==> Geometry <==

    Molecular point group: c1
    Full point group: C1

    Geometry (in Angstrom), charge = 0, multiplicity = 1:

       Center              X                  Y                   Z               Mass       
    ------------   -----------------  -----------------  -----------------  -----------------
           H          2.358290914695     1.764745928760    -2.125217678919     1.007825032070
           C          1.658841914695     2.377425928760    -1.542965678919    12.000000000000
           C          1.793810914695     2.250824928760    -0.046847678919    12.000000000000
           O          0.870622914695     3.073108928760    -2.096577678919    15.994914619560
           C          1.471224914695     0.836729928760     0.455675321081    12.000000000000
           H          2.795889914695     2.554391928760     0.233140321081     1.007825032070
           H          1.094271914695     2.957316928760     0.398315321081     1.007825032070
           C         -0.003108085305     0.455286928760     0.300297321081    12.000000000000
           H          2.086618914695     0.128664928760    -0.091332678919     1.007825032070
           H          1.765034914695     0.748863928760     1.500526321081     1.007825032070
           C         -0.307733085305    -0.960285071240     0.794436321081    12.000000000000
           H         -0.284930085305     0.542939928760    -0.746956678919     1.007825032070
           H         -0.626890085305     1.165338928760     0.839983321081     1.007825032070
           C         -1.779808085305    -1.344301071240     0.622751321081    12.000000000000
           H          0.325298914695    -1.663752071240     0.259518321081     1.007825032070
           H         -0.035722085305    -1.041393071240     1.846013321081     1.007825032070
           C         -2.149994085305    -2.723807071240     1.179524321081    12.000000000000
           H         -2.042454085305    -1.301296071240    -0.433117678919     1.007825032070
           H         -2.394625085305    -0.595957071240     1.118427321081     1.007825032070
           C         -1.499946085305    -3.899669071240     0.448493321081    12.000000000000
           H         -3.230103085305    -2.836078071240     1.127476321081     1.007825032070
           H         -1.891668085305    -2.767175071240     2.235606321081     1.007825032070
           H         -1.728034085305    -3.872874071240    -0.613827678919     1.007825032070
           H         -0.420331085305    -3.898027071240     0.555278321081     1.007825032070
           H         -1.863619085305    -4.844884071240     0.840037321081     1.007825032070

  Running in c1 symmetry.

  Rotational constants: A =      0.12813  B =      0.01610  C =      0.01555 [cm^-1]
  Rotational constants: A =   3841.17126  B =    482.79364  C =    466.18029 [MHz]
  Nuclear repulsion =  440.492198901686436

  Charge       = 0
  Multiplicity = 1
  Electrons    = 72
  Nalpha       = 36
  Nbeta        = 36

  ==> Algorithm <==

  SCF Algorithm Type is DF.
  DIIS enabled.
  MOM disabled.
  Fractional occupation disabled.
  Guess Type is CORE.
  Energy threshold   = 1.00e-06
  Density threshold  = 1.00e-06
  Integral threshold = 0.00e+00

  ==> Primary Basis <==

  Basis Set: 6-31G*
    Number of shells: 86
    Number of basis function: 167
    Number of Cartesian functions: 167
    Spherical Harmonics?: false
    Max angular momentum: 2

  ==> Pre-Iterations <==

   -------------------------------------------------------
    Irrep   Nso     Nmo     Nalpha   Nbeta   Ndocc  Nsocc
   -------------------------------------------------------
     A        167     167       0       0       0       0
   -------------------------------------------------------
    Total     167     167      36      36      36       0
   -------------------------------------------------------

 OEINTS: Overlap, kinetic, potential, dipole, and quadrupole integrals
         stored in file 35.

  ==> Integral Setup <==

  ==> DFJK: Density-Fitted J/K Matrices <==

    J tasked:                  Yes
    K tasked:                  Yes
    wK tasked:                  No
    OpenMP threads:              1
    Integrals threads:           1
    Memory (MB):              1430
    Algorithm:                Core
    Integral Cache:           NONE
    Schwarz Cutoff:          1E-12
    Fitting Condition:       1E-12

   => Auxiliary Basis Set <=

  Basis Set: 
    Number of shells: 360
    Number of basis function: 1129
    Number of Cartesian functions: 1129
    Spherical Harmonics?: false
    Max angular momentum: 3

  Minimum eigenvalue in the overlap matrix is 3.0461060871E-03.
  Using Symmetric Orthogonalization.
  SCF Guess: Core (One-Electron) Hamiltonian.

  ==> Iterations <==

                           Total Energy        Delta E     RMS |[F,P]|

   @DF-RHF iter   1:  -292.03331476288821   -2.92033e+02   5.78030e-02 
   @DF-RHF iter   2:   -34.24006174762820    2.57793e+02   7.54177e-02 DIIS
   @DF-RHF iter   3:  -268.59479897221973   -2.34355e+02   4.41382e-02 DIIS
   @DF-RHF iter   4:  -200.45376260688687    6.81410e+01   6.63775e-02 DIIS
   @DF-RHF iter   5:  -320.53471850717978   -1.20081e+02   3.60542e-02 DIIS
   @DF-RHF iter   6:  -354.40083890344573   -3.38661e+01   3.43004e-02 DIIS
   @DF-RHF iter   7:  -383.94598350522921   -2.95451e+01   1.05738e-02 DIIS
   @DF-RHF iter   8:  -386.80417190477402   -2.85819e+00   4.74227e-03 DIIS
   @DF-RHF iter   9:  -387.10132777110681   -2.97156e-01   1.07551e-03 DIIS
   @DF-RHF iter  10:  -387.11760622199466   -1.62785e-02   4.55133e-04 DIIS
   @DF-RHF iter  11:  -387.12080681298772   -3.20059e-03   1.80891e-04 DIIS
   @DF-RHF iter  12:  -387.12133690950594   -5.30097e-04   4.52322e-05 DIIS
   @DF-RHF iter  13:  -387.12138434864374   -4.74391e-05   1.85114e-05 DIIS
   @DF-RHF iter  14:  -387.12139201506119   -7.66642e-06   7.62129e-06 DIIS
   @DF-RHF iter  15:  -387.12139370526830   -1.69021e-06   2.23729e-06 DIIS
   @DF-RHF iter  16:  -387.12139386034659   -1.55078e-07   6.43158e-07 DIIS

  ==> Post-Iterations <==

    Orbital Energies (a.u.)
    -----------------------

    Doubly Occupied:                                                      

       1A    -20.563207     2A    -11.326545     3A    -11.235286  
       4A    -11.234120     5A    -11.222650     6A    -11.218987  
       7A    -11.217377     8A    -11.216193     9A    -11.210084  
      10A     -1.402931    11A     -1.103146    12A     -1.069005  
      13A     -1.012676    14A     -0.942077    15A     -0.875073  
      16A     -0.819064    17A     -0.787903    18A     -0.780368  
      19A     -0.668164    20A     -0.661356    21A     -0.631678  
      22A     -0.622856    23A     -0.607164    24A     -0.589950  
      25A     -0.566609    26A     -0.563139    27A     -0.524442  
      28A     -0.519361    29A     -0.516669    30A     -0.498799  
      31A     -0.485322    32A     -0.478658    33A     -0.463653  
      34A     -0.458038    35A     -0.441811    36A     -0.410019  

    Virtual:                                                              

      37A      0.159290    38A      0.225701    39A      0.242989  
      40A      0.253940    41A      0.265295    42A      0.272970  
      43A      0.280828    44A      0.301064    45A      0.308025  
      46A      0.310768    47A      0.312506    48A      0.331586  
      49A      0.337894    50A      0.341500    51A      0.347094  
      52A      0.360953    53A      0.370354    54A      0.382431  
      55A      0.394983    56A      0.423354    57A      0.430779  
      58A      0.465697    59A      0.469938    60A      0.481522  
      61A      0.502664    62A      0.689726    63A      0.700685  
      64A      0.712529    65A      0.733638    66A      0.745147  
      67A      0.752784    68A      0.777732    69A      0.779408  
      70A      0.833865    71A      0.844912    72A      0.864182  
      73A      0.886328    74A      0.919949    75A      0.941446  
      76A      0.957153    77A      0.972849    78A      0.982830  
      79A      0.985859    80A      1.019973    81A      1.048117  
      82A      1.074303    83A      1.096856    84A      1.114283  
      85A      1.118906    86A      1.126850    87A      1.136766  
      88A      1.144404    89A      1.157591    90A      1.172360  
      91A      1.179365    92A      1.194280    93A      1.200331  
      94A      1.206096    95A      1.213746    96A      1.222053  
      97A      1.229481    98A      1.249055    99A      1.257669  
     100A      1.263616   101A      1.288680   102A      1.303891  
     103A      1.330013   104A      1.348519   105A      1.399108  
     106A      1.437040   107A      1.482267   108A      1.613323  
     109A      1.649974   110A      1.684546   111A      1.724556  
     112A      1.771330   113A      1.800905   114A      1.831185  
     115A      1.848025   116A      1.879200   117A      1.896394  
     118A      1.934186   119A      1.966356   120A      2.064533  
     121A      2.081772   122A      2.121776   123A      2.147791  
     124A      2.150253   125A      2.179435   126A      2.198987  
     127A      2.232053   128A      2.241210   129A      2.270119  
     130A      2.279938   131A      2.293702   132A      2.330332  
     133A      2.349088   134A      2.372698   135A      2.386416  
     136A      2.432710   137A      2.467144   138A      2.519354  
     139A      2.569452   140A      2.607826   141A      2.638038  
     142A      2.655454   143A      2.679428   144A      2.715689  
     145A      2.752220   146A      2.755708   147A      2.793783  
     148A      2.828666   149A      2.916101   150A      2.931826  
     151A      2.971496   152A      2.978811   153A      3.001804  
     154A      3.018883   155A      3.135709   156A      3.198054  
     157A      3.256748   158A      3.365493   159A      4.303195  
     160A      4.525665   161A      4.572752   162A      4.643624  
     163A      4.736342   164A      4.826498   165A      4.877053  
     166A      4.917040   167A      5.008453  

    Final Occupation by Irrep:
              A 
    DOCC [    36 ]

  Energy converged.

  @DF-RHF Final Energy:  -387.12139386034659

   => Energetics <=

    Nuclear Repulsion Energy =            440.4921989016864359
    One-Electron Energy =               -1397.3383824468562580
    Two-Electron Energy =                 569.7247896848242590
    DFT Exchange-Correlation Energy =       0.0000000000000000
    Empirical Dispersion Energy =           0.0000000000000000
    PCM Polarization Energy =               0.0000000000000000
    EFP Energy =                            0.0000000000000000
    Total Energy =                       -387.1213938603456199

    Alert: EFP and PCM quantities not currently incorporated into SCF psivars.

Properties will be evaluated at   0.000000,   0.000000,   0.000000 Bohr
  ==> Properties <==


Properties computed using the SCF density matrix

  Nuclear Dipole Moment: (a.u.)
     X:    -3.8329      Y:   -12.1341      Z:     6.4996

  Electronic Dipole Moment: (a.u.)
     X:     4.4222      Y:    11.4222      Z:    -5.7581

  Dipole Moment: (a.u.)
     X:     0.5893      Y:    -0.7118      Z:     0.7415     Total:     1.1848

  Dipole Moment: (Debye)
     X:     1.4979      Y:    -1.8093      Z:     1.8847     Total:     3.0115


  Saving occupied orbitals to File 180.

*** tstop() called on cx1-3-1-3.cx1.hpc.ic.ac.uk at Tue Jul  5 16:51:36 2016
Module time:
	user time   =      24.52 seconds =       0.41 minutes
	system time =       0.22 seconds =       0.00 minutes
	total time  =         25 seconds =       0.42 minutes
Total time:
	user time   =      24.52 seconds =       0.41 minutes
	system time =       0.22 seconds =       0.00 minutes
	total time  =         25 seconds =       0.42 minutes


Properties will be evaluated at   0.000000,   0.000000,   0.000000 Bohr

Properties computed using the  density matrix

  Nuclear Dipole Moment: (a.u.)
     X:    -3.8329      Y:   -12.1341      Z:     6.4996

  Electronic Dipole Moment: (a.u.)
     X:     4.4222      Y:    11.4222      Z:    -5.7581

  Dipole Moment: (a.u.)
     X:     0.5893      Y:    -0.7118      Z:     0.7415     Total:     1.1848

  Dipole Moment: (Debye)
     X:     1.4979      Y:    -1.8093      Z:     1.8847     Total:     3.0115

  Quadrupole Moment: (Debye Ang)
    XX:   -53.7072     YY:   -68.0259     ZZ:   -63.2934
    XY:     2.8441     XZ:    -0.9462     YZ:     7.8041

  Traceless Quadrupole Moment: (Debye Ang)
    XX:     7.9683     YY:    -6.3504     ZZ:    -1.6179
    XY:     2.8441     XZ:    -0.9462     YZ:     7.8041

  Mulliken Charges: (a.u.)
   Center  Symbol    Alpha    Beta     Spin     Total
       1     H     0.43265  0.43265  0.00000  0.13471
       2     C     2.83181  2.83181  0.00000  0.33638
       3     C     3.20766  3.20766  0.00000 -0.41533
       4     O     4.23634  4.23634  0.00000 -0.47269
       5     C     3.16616  3.16616  0.00000 -0.33233
       6     H     0.40696  0.40696  0.00000  0.18609
       7     H     0.40165  0.40165  0.00000  0.19671
       8     C     3.15487  3.15487  0.00000 -0.30974
       9     H     0.42008  0.42008  0.00000  0.15984
      10     H     0.41286  0.41286  0.00000  0.17427
      11     C     3.15429  3.15429  0.00000 -0.30858
      12     H     0.41617  0.41617  0.00000  0.16766
      13     H     0.41820  0.41820  0.00000  0.16360
      14     C     3.15308  3.15308  0.00000 -0.30616
      15     H     0.42140  0.42140  0.00000  0.15719
      16     H     0.42363  0.42363  0.00000  0.15274
      17     C     3.15271  3.15271  0.00000 -0.30542
      18     H     0.42229  0.42229  0.00000  0.15543
      19     H     0.42114  0.42114  0.00000  0.15772
      20     C     3.24134  3.24134  0.00000 -0.48267
      21     H     0.42005  0.42005  0.00000  0.15989
      22     H     0.42340  0.42340  0.00000  0.15320
      23     H     0.42170  0.42170  0.00000  0.15660
      24     H     0.42075  0.42075  0.00000  0.15850
      25     H     0.41880  0.41880  0.00000  0.16240

   Total alpha = 36.00000, Total beta = 36.00000, Total charge = -0.00000


*** PSI4 exiting successfully. Buy a developer a beer!
