    -----------------------------------------------------------------------
          Psi4: An Open-Source Ab Initio Electronic Structure Package
                              Psi4 (no tag) Driver

                          Git: Rev {detached?}  

    J. M. Turney, A. C. Simmonett, R. M. Parrish, E. G. Hohenstein,
    F. A. Evangelista, J. T. Fermann, B. J. Mintz, L. A. Burns, J. J. Wilke,
    M. L. Abrams, N. J. Russ, M. L. Leininger, C. L. Janssen, E. T. Seidl,
    W. D. Allen, H. F. Schaefer, R. A. King, E. F. Valeev, C. D. Sherrill,
    and T. D. Crawford, WIREs Comput. Mol. Sci. 2, 556-565 (2012)
    (doi: 10.1002/wcms.93)

                         Additional Contributions by
    A. E. DePrince, M. Saitow, U. Bozkaya, A. Yu. Sokolov
    -----------------------------------------------------------------------


    Psi4 started on: Tue Jul  5 16:28:26 2016

    Process ID:  15873
    PSI4DATADIR: /export131/home/mjharvey/miniconda3/share
    Memory level set to 256.000 MB

  ==> Input File <==

--------------------------------------------------------------------------
set {
	reference rhf
	basis 6-31G*
}


set_num_threads( 1 )
memory 2 gb

molecule MOL {
0 1

H	 2.233508	 -0.590042	 0.311931
C	 1.817904	 -0.574895	 -0.702882
C	 0.537048	 0.203385	 -0.859812
O	 2.373890	 -1.146379	 -1.584026
C	 -0.558097	 -0.297372	 0.091132
H	 0.223041	 0.135893	 -1.894860
H	 0.754501	 1.248224	 -0.641051
C	 -1.850991	 0.512573	 -0.019058
H	 -0.767688	 -1.342949	 -0.122441
H	 -0.195761	 -0.258458	 1.116830
C	 -3.096943	 -0.368295	 -0.099594
H	 -1.800724	 1.150330	 -0.898172
H	 -1.931651	 1.177355	 0.838044
H	 -3.060452	 -1.020287	 -0.967456
H	 -3.996858	 0.233488	 -0.175704
H	 -3.191959	 -0.995686	 0.782074

	symmetry c1
}
set optking {
	frozen_dihedral = ("
		6 3 5 9,
		4 2 3 6
	")
}

ee = energy('scf')
oeprop('DIPOLE', 'QUADRUPOLE', 'MULLIKEN_CHARGES')
f=open( 'psi4out.xyz', 'w' )
f.write( "16  " )
f.write( str(ee) + "\n" )
f.write( MOL.save_string_xyz() )
f.close()
--------------------------------------------------------------------------

  Memory set to   2.000 GiB by Python script.

*** tstart() called on cx1-1-3-3.cx1.hpc.ic.ac.uk
*** at Tue Jul  5 16:28:26 2016


         ---------------------------------------------------------
                                   SCF
            by Justin Turney, Rob Parrish, and Andy Simmonett
                              RHF Reference
                        1 Threads,   2000 MiB Core
         ---------------------------------------------------------

  ==> Geometry <==

    Molecular point group: c1
    Full point group: C1

    Geometry (in Angstrom), charge = 0, multiplicity = 1:

       Center              X                  Y                   Z               Mass       
    ------------   -----------------  -----------------  -----------------  -----------------
           H          2.369074554392    -0.300803589454     0.847320296527     1.007825032070
           C          1.953470554392    -0.285656589454    -0.167492703473    12.000000000000
           C          0.672614554392     0.492623410546    -0.324422703473    12.000000000000
           O          2.509456554392    -0.857140589454    -1.048636703473    15.994914619560
           C         -0.422530445608    -0.008133589454     0.626521296527    12.000000000000
           H          0.358607554392     0.425131410546    -1.359470703473     1.007825032070
           H          0.890067554392     1.537462410546    -0.105661703473     1.007825032070
           C         -1.715424445608     0.801811410546     0.516331296527    12.000000000000
           H         -0.632121445608    -1.053710589454     0.412948296527     1.007825032070
           H         -0.060194445608     0.030780410546     1.652219296527     1.007825032070
           C         -2.961376445608    -0.079056589454     0.435795296527    12.000000000000
           H         -1.665157445608     1.439568410546    -0.362782703473     1.007825032070
           H         -1.796084445608     1.466593410546     1.373433296527     1.007825032070
           H         -2.924885445608    -0.731048589454    -0.432066703473     1.007825032070
           H         -3.861291445608     0.522726410546     0.359685296527     1.007825032070
           H         -3.056392445608    -0.706447589454     1.317463296527     1.007825032070

  Running in c1 symmetry.

  Rotational constants: A =      0.40482  B =      0.04357  C =      0.04251 [cm^-1]
  Rotational constants: A =  12136.10161  B =   1306.27691  C =   1274.56631 [MHz]
  Nuclear repulsion =  229.577402704364260

  Charge       = 0
  Multiplicity = 1
  Electrons    = 48
  Nalpha       = 24
  Nbeta        = 24

  ==> Algorithm <==

  SCF Algorithm Type is DF.
  DIIS enabled.
  MOM disabled.
  Fractional occupation disabled.
  Guess Type is CORE.
  Energy threshold   = 1.00e-06
  Density threshold  = 1.00e-06
  Integral threshold = 0.00e+00

  ==> Primary Basis <==

  Basis Set: 6-31G*
    Number of shells: 56
    Number of basis function: 110
    Number of Cartesian functions: 110
    Spherical Harmonics?: false
    Max angular momentum: 2

  ==> Pre-Iterations <==

   -------------------------------------------------------
    Irrep   Nso     Nmo     Nalpha   Nbeta   Ndocc  Nsocc
   -------------------------------------------------------
     A        110     110       0       0       0       0
   -------------------------------------------------------
    Total     110     110      24      24      24       0
   -------------------------------------------------------

 OEINTS: Overlap, kinetic, potential, dipole, and quadrupole integrals
         stored in file 35.

  ==> Integral Setup <==

  ==> DFJK: Density-Fitted J/K Matrices <==

    J tasked:                  Yes
    K tasked:                  Yes
    wK tasked:                  No
    OpenMP threads:              1
    Integrals threads:           1
    Memory (MB):              1430
    Algorithm:                Core
    Integral Cache:           NONE
    Schwarz Cutoff:          1E-12
    Fitting Condition:       1E-12

   => Auxiliary Basis Set <=

  Basis Set: 
    Number of shells: 234
    Number of basis function: 736
    Number of Cartesian functions: 736
    Spherical Harmonics?: false
    Max angular momentum: 3

  Minimum eigenvalue in the overlap matrix is 3.6597587948E-03.
  Using Symmetric Orthogonalization.
  SCF Guess: Core (One-Electron) Hamiltonian.

  ==> Iterations <==

                           Total Energy        Delta E     RMS |[F,P]|

   @DF-RHF iter   1:  -204.72088311297807   -2.04721e+02   7.23158e-02 
   @DF-RHF iter   2:  -113.29515823236903    9.14257e+01   9.28433e-02 DIIS
   @DF-RHF iter   3:  -246.98146726513261   -1.33686e+02   3.14308e-02 DIIS
   @DF-RHF iter   4:  -164.90242895689920    8.20790e+01   9.07889e-02 DIIS
   @DF-RHF iter   5:  -176.50619794262411   -1.16038e+01   7.97466e-02 DIIS
   @DF-RHF iter   6:  -197.82085782212613   -2.13147e+01   6.60427e-02 DIIS
   @DF-RHF iter   7:  -209.51272812090383   -1.16919e+01   6.62710e-02 DIIS
   @DF-RHF iter   8:  -212.21392798103511   -2.70120e+00   6.24107e-02 DIIS
   @DF-RHF iter   9:  -229.18277652713795   -1.69688e+01   5.09671e-02 DIIS
   @DF-RHF iter  10:  -243.00459217942966   -1.38218e+01   4.35665e-02 DIIS
   @DF-RHF iter  11:  -244.95929120830039   -1.95470e+00   3.99155e-02 DIIS
   @DF-RHF iter  12:  -246.90108799377003   -1.94180e+00   3.78926e-02 DIIS
   @DF-RHF iter  13:  -246.82772107746740    7.33669e-02   3.77644e-02 DIIS
   @DF-RHF iter  14:  -246.96570942210366   -1.37988e-01   3.81124e-02 DIIS
   @DF-RHF iter  15:  -268.98861528692322   -2.20229e+01   1.27741e-02 DIIS
   @DF-RHF iter  16:  -269.92905958030781   -9.40444e-01   3.33757e-03 DIIS
   @DF-RHF iter  17:  -269.99669035660668   -6.76308e-02   1.42011e-03 DIIS
   @DF-RHF iter  18:  -270.01121243813981   -1.45221e-02   6.65387e-04 DIIS
   @DF-RHF iter  19:  -270.01429089060110   -3.07845e-03   1.75788e-04 DIIS
   @DF-RHF iter  20:  -270.01462545727526   -3.34567e-04   5.23550e-05 DIIS
   @DF-RHF iter  21:  -270.01465613087578   -3.06736e-05   1.72500e-05 DIIS
   @DF-RHF iter  22:  -270.01465905794129   -2.92707e-06   4.34003e-06 DIIS
   @DF-RHF iter  23:  -270.01465928160377   -2.23662e-07   9.61485e-07 DIIS

  ==> Post-Iterations <==

    Orbital Energies (a.u.)
    -----------------------

    Doubly Occupied:                                                      

       1A    -20.562298     2A    -11.326073     3A    -11.235774  
       4A    -11.234963     5A    -11.227800     6A    -11.218056  
       7A     -1.402080     8A     -1.096548     9A     -1.017985  
      10A     -0.906251    11A     -0.811530    12A     -0.794263  
      13A     -0.674509    14A     -0.651468    15A     -0.625301  
      16A     -0.602258    17A     -0.587441    18A     -0.549467  
      19A     -0.522358    20A     -0.516262    21A     -0.488724  
      22A     -0.477343    23A     -0.474594    24A     -0.408386  

    Virtual:                                                              

      25A      0.161809    26A      0.224480    27A      0.252592  
      28A      0.268827    29A      0.278723    30A      0.297884  
      31A      0.310940    32A      0.313538    33A      0.319947  
      34A      0.331335    35A      0.346412    36A      0.403901  
      37A      0.428889    38A      0.433297    39A      0.474118  
      40A      0.498310    41A      0.706047    42A      0.715538  
      43A      0.735586    44A      0.769348    45A      0.778722  
      46A      0.823493    47A      0.830093    48A      0.850403  
      49A      0.911981    50A      0.936698    51A      0.953131  
      52A      0.978179    53A      1.022917    54A      1.059943  
      55A      1.087723    56A      1.112555    57A      1.116944  
      58A      1.132342    59A      1.143614    60A      1.162668  
      61A      1.172487    62A      1.186781    63A      1.196703  
      64A      1.219366    65A      1.226917    66A      1.253903  
      67A      1.278685    68A      1.349645    69A      1.361956  
      70A      1.408960    71A      1.513163    72A      1.672489  
      73A      1.703193    74A      1.747761    75A      1.799787  
      76A      1.832315    77A      1.881120    78A      1.966085  
      79A      2.014013    80A      2.049748    81A      2.119719  
      82A      2.138364    83A      2.178322    84A      2.214807  
      85A      2.257202    86A      2.272956    87A      2.316906  
      88A      2.377900    89A      2.405166    90A      2.429750  
      91A      2.559490    92A      2.569299    93A      2.664806  
      94A      2.686172    95A      2.722671    96A      2.729394  
      97A      2.783336    98A      2.883957    99A      2.948864  
     100A      2.975766   101A      3.032742   102A      3.096064  
     103A      3.267299   104A      3.365282   105A      4.281972  
     106A      4.524096   107A      4.593017   108A      4.705631  
     109A      4.846864   110A      4.976226  

    Final Occupation by Irrep:
              A 
    DOCC [    24 ]

  Energy converged.

  @DF-RHF Final Energy:  -270.01465928160377

   => Energetics <=

    Nuclear Repulsion Energy =            229.5774027043642604
    One-Electron Energy =                -820.3606739157501124
    Two-Electron Energy =                 320.7686119297821392
    DFT Exchange-Correlation Energy =       0.0000000000000000
    Empirical Dispersion Energy =           0.0000000000000000
    PCM Polarization Energy =               0.0000000000000000
    EFP Energy =                            0.0000000000000000
    Total Energy =                       -270.0146592816037696

    Alert: EFP and PCM quantities not currently incorporated into SCF psivars.

Properties will be evaluated at   0.000000,   0.000000,   0.000000 Bohr
  ==> Properties <==


Properties computed using the SCF density matrix

  Nuclear Dipole Moment: (a.u.)
     X:    -9.7174      Y:     2.4617      Z:     3.4665

  Electronic Dipole Moment: (a.u.)
     X:     8.9417      Y:    -1.8485      Z:    -2.6842

  Dipole Moment: (a.u.)
     X:    -0.7757      Y:     0.6132      Z:     0.7823     Total:     1.2608

  Dipole Moment: (Debye)
     X:    -1.9716      Y:     1.5586      Z:     1.9884     Total:     3.2047


  Saving occupied orbitals to File 180.

*** tstop() called on cx1-1-3-3.cx1.hpc.ic.ac.uk at Tue Jul  5 16:28:39 2016
Module time:
	user time   =      11.89 seconds =       0.20 minutes
	system time =       0.07 seconds =       0.00 minutes
	total time  =         13 seconds =       0.22 minutes
Total time:
	user time   =      11.89 seconds =       0.20 minutes
	system time =       0.07 seconds =       0.00 minutes
	total time  =         13 seconds =       0.22 minutes


Properties will be evaluated at   0.000000,   0.000000,   0.000000 Bohr

Properties computed using the  density matrix

  Nuclear Dipole Moment: (a.u.)
     X:    -9.7174      Y:     2.4617      Z:     3.4665

  Electronic Dipole Moment: (a.u.)
     X:     8.9417      Y:    -1.8485      Z:    -2.6842

  Dipole Moment: (a.u.)
     X:    -0.7757      Y:     0.6132      Z:     0.7823     Total:     1.2608

  Dipole Moment: (Debye)
     X:    -1.9716      Y:     1.5586      Z:     1.9884     Total:     3.2047

  Quadrupole Moment: (Debye Ang)
    XX:   -45.0446     YY:   -39.4529     ZZ:   -40.1315
    XY:     3.9748     XZ:     5.3874     YZ:    -1.9101

  Traceless Quadrupole Moment: (Debye Ang)
    XX:    -3.5016     YY:     2.0901     ZZ:     1.4115
    XY:     3.9748     XZ:     5.3874     YZ:    -1.9101

  Mulliken Charges: (a.u.)
   Center  Symbol    Alpha    Beta     Spin     Total
       1     H     0.43234  0.43234  0.00000  0.13532
       2     C     2.83003  2.83003  0.00000  0.33993
       3     C     3.21055  3.21055  0.00000 -0.42109
       4     O     4.23720  4.23720  0.00000 -0.47439
       5     C     3.16706  3.16706  0.00000 -0.33412
       6     H     0.39908  0.39908  0.00000  0.20184
       7     H     0.40920  0.40920  0.00000  0.18159
       8     C     3.15391  3.15391  0.00000 -0.30782
       9     H     0.41067  0.41067  0.00000  0.17866
      10     H     0.41684  0.41684  0.00000  0.16633
      11     C     3.24176  3.24176  0.00000 -0.48352
      12     H     0.41731  0.41731  0.00000  0.16537
      13     H     0.41781  0.41781  0.00000  0.16438
      14     H     0.41880  0.41880  0.00000  0.16240
      15     H     0.41766  0.41766  0.00000  0.16468
      16     H     0.41978  0.41978  0.00000  0.16043

   Total alpha = 24.00000, Total beta = 24.00000, Total charge = -0.00000


*** PSI4 exiting successfully. Buy a developer a beer!
