    -----------------------------------------------------------------------
          Psi4: An Open-Source Ab Initio Electronic Structure Package
                              Psi4 (no tag) Driver

                          Git: Rev {detached?}  

    J. M. Turney, A. C. Simmonett, R. M. Parrish, E. G. Hohenstein,
    F. A. Evangelista, J. T. Fermann, B. J. Mintz, L. A. Burns, J. J. Wilke,
    M. L. Abrams, N. J. Russ, M. L. Leininger, C. L. Janssen, E. T. Seidl,
    W. D. Allen, H. F. Schaefer, R. A. King, E. F. Valeev, C. D. Sherrill,
    and T. D. Crawford, WIREs Comput. Mol. Sci. 2, 556-565 (2012)
    (doi: 10.1002/wcms.93)

                         Additional Contributions by
    A. E. DePrince, M. Saitow, U. Bozkaya, A. Yu. Sokolov
    -----------------------------------------------------------------------


    Psi4 started on: Tue Jul  5 17:37:27 2016

    Process ID:  25099
    PSI4DATADIR: /export131/home/mjharvey/miniconda3/share
    Memory level set to 256.000 MB

  ==> Input File <==

--------------------------------------------------------------------------
set {
	reference rhf
	basis 6-31G*
}


set_num_threads( 1 )
memory 2 gb

molecule MOL {
0 1

H	 6.873145	 -8.487949	 0.385835
C	 6.771465	 -7.651146	 -0.298229
C	 7.473084	 -6.406409	 0.243563
H	 7.193202	 -7.951253	 -1.252909
H	 5.709974	 -7.472091	 -0.446472
C	 7.343122	 -5.204419	 -0.694596
H	 8.523163	 -6.628233	 0.403971
H	 7.053118	 -6.151320	 1.215288
C	 5.917421	 -4.961721	 -1.190320
H	 7.698403	 -4.311320	 -0.192805
H	 7.984244	 -5.358028	 -1.559701
C	 4.964761	 -4.436609	 -0.126394
H	 5.927221	 -4.222280	 -1.989632
H	 5.499987	 -5.864611	 -1.630451
C	 3.475324	 -4.538016	 -0.405696
O	 5.366231	 -3.944790	 0.885209
C	 3.142513	 -5.197708	 -1.752249
H	 3.077758	 -3.530724	 -0.373804
H	 3.010537	 -5.105855	 0.398180
C	 3.906992	 -6.506058	 -1.962969
H	 2.073565	 -5.394231	 -1.800676
H	 3.371148	 -4.517137	 -2.568350
C	 3.584233	 -7.172245	 -3.299729
H	 3.675183	 -7.191428	 -1.151430
H	 4.975620	 -6.311267	 -1.903941
H	 2.526789	 -7.408725	 -3.374670
H	 3.837980	 -6.523738	 -4.133494
H	 4.139105	 -8.097216	 -3.419829

	symmetry c1
}
set optking {
	frozen_dihedral = ("
		10 6 3 2,
		12 15 17 21
	")
}

ee = energy('scf')
oeprop('DIPOLE', 'QUADRUPOLE', 'MULLIKEN_CHARGES')
f=open( 'psi4out.xyz', 'w' )
f.write( "28  " )
f.write( str(ee) + "\n" )
f.write( MOL.save_string_xyz() )
f.close()
--------------------------------------------------------------------------

  Memory set to   2.000 GiB by Python script.

*** tstart() called on cx1-3-4-4.cx1.hpc.ic.ac.uk
*** at Tue Jul  5 17:37:27 2016


         ---------------------------------------------------------
                                   SCF
            by Justin Turney, Rob Parrish, and Andy Simmonett
                              RHF Reference
                        1 Threads,   2000 MiB Core
         ---------------------------------------------------------

  ==> Geometry <==

    Molecular point group: c1
    Full point group: C1

    Geometry (in Angstrom), charge = 0, multiplicity = 1:

       Center              X                  Y                   Z               Mass       
    ------------   -----------------  -----------------  -----------------  -----------------
           H          1.676293732485    -2.863883609901     1.253023784036     1.007825032070
           C          1.574613732485    -2.027080609901     0.568959784036    12.000000000000
           C          2.276232732485    -0.782343609901     1.110751784036    12.000000000000
           H          1.996350732485    -2.327187609901    -0.385720215964     1.007825032070
           H          0.513122732485    -1.848025609901     0.420716784036     1.007825032070
           C          2.146270732485     0.419646390099     0.172592784036    12.000000000000
           H          3.326311732485    -1.004167609901     1.271159784036     1.007825032070
           H          1.856266732485    -0.527254609901     2.082476784036     1.007825032070
           C          0.720569732485     0.662344390099    -0.323131215964    12.000000000000
           H          2.501551732485     1.312745390099     0.674383784036     1.007825032070
           H          2.787392732485     0.266037390099    -0.692512215964     1.007825032070
           C         -0.232090267515     1.187456390099     0.740794784036    12.000000000000
           H          0.730369732485     1.401785390099    -1.122443215964     1.007825032070
           H          0.303135732485    -0.240545609901    -0.763262215964     1.007825032070
           C         -1.721527267515     1.086049390099     0.461492784036    12.000000000000
           O          0.169379732485     1.679275390099     1.752397784036    15.994914619560
           C         -2.054338267515     0.426357390099    -0.885060215964    12.000000000000
           H         -2.119093267515     2.093341390099     0.493384784036     1.007825032070
           H         -2.186314267515     0.518210390099     1.265368784036     1.007825032070
           C         -1.289859267515    -0.881992609901    -1.095780215964    12.000000000000
           H         -3.123286267515     0.229834390099    -0.933487215964     1.007825032070
           H         -1.825703267515     1.106928390099    -1.701161215964     1.007825032070
           C         -1.612618267515    -1.548179609901    -2.432540215964    12.000000000000
           H         -1.521668267515    -1.567362609901    -0.284241215964     1.007825032070
           H         -0.221231267515    -0.687201609901    -1.036752215964     1.007825032070
           H         -2.670062267515    -1.784659609901    -2.507481215964     1.007825032070
           H         -1.358871267515    -0.899672609901    -3.266305215964     1.007825032070
           H         -1.057746267515    -2.473150609901    -2.552640215964     1.007825032070

  Running in c1 symmetry.

  Rotational constants: A =      0.04894  B =      0.03280  C =      0.02273 [cm^-1]
  Rotational constants: A =   1467.30389  B =    983.21712  C =    681.52036 [MHz]
  Nuclear repulsion =  577.686517440819784

  Charge       = 0
  Multiplicity = 1
  Electrons    = 80
  Nalpha       = 40
  Nbeta        = 40

  ==> Algorithm <==

  SCF Algorithm Type is DF.
  DIIS enabled.
  MOM disabled.
  Fractional occupation disabled.
  Guess Type is CORE.
  Energy threshold   = 1.00e-06
  Density threshold  = 1.00e-06
  Integral threshold = 0.00e+00

  ==> Primary Basis <==

  Basis Set: 6-31G*
    Number of shells: 96
    Number of basis function: 186
    Number of Cartesian functions: 186
    Spherical Harmonics?: false
    Max angular momentum: 2

  ==> Pre-Iterations <==

   -------------------------------------------------------
    Irrep   Nso     Nmo     Nalpha   Nbeta   Ndocc  Nsocc
   -------------------------------------------------------
     A        186     186       0       0       0       0
   -------------------------------------------------------
    Total     186     186      40      40      40       0
   -------------------------------------------------------

 OEINTS: Overlap, kinetic, potential, dipole, and quadrupole integrals
         stored in file 35.

  ==> Integral Setup <==

  ==> DFJK: Density-Fitted J/K Matrices <==

    J tasked:                  Yes
    K tasked:                  Yes
    wK tasked:                  No
    OpenMP threads:              1
    Integrals threads:           1
    Memory (MB):              1430
    Algorithm:                Core
    Integral Cache:           NONE
    Schwarz Cutoff:          1E-12
    Fitting Condition:       1E-12

   => Auxiliary Basis Set <=

  Basis Set: 
    Number of shells: 402
    Number of basis function: 1260
    Number of Cartesian functions: 1260
    Spherical Harmonics?: false
    Max angular momentum: 3

  Minimum eigenvalue in the overlap matrix is 1.2153050001E-03.
  Using Symmetric Orthogonalization.
  SCF Guess: Core (One-Electron) Hamiltonian.

  ==> Iterations <==

                           Total Energy        Delta E     RMS |[F,P]|

   @DF-RHF iter   1:  -281.05030150162349   -2.81050e+02   6.65301e-02 
   @DF-RHF iter   2:  -190.29346580364836    9.07568e+01   6.13106e-02 DIIS
   @DF-RHF iter   3:  -330.99944799888715   -1.40706e+02   4.81119e-02 DIIS
   @DF-RHF iter   4:  -366.89659477348494   -3.58971e+01   3.69870e-02 DIIS
   @DF-RHF iter   5:  -368.69533939076962   -1.79874e+00   3.96252e-02 DIIS
   @DF-RHF iter   6:  -425.15303364071838   -5.64577e+01   6.48570e-03 DIIS
   @DF-RHF iter   7:  -425.69229688643657   -5.39263e-01   4.34226e-03 DIIS
   @DF-RHF iter   8:  -425.98872472726623   -2.96428e-01   1.04301e-03 DIIS
   @DF-RHF iter   9:  -426.01251751389975   -2.37928e-02   4.83603e-04 DIIS
   @DF-RHF iter  10:  -426.01742076813196   -4.90325e-03   1.44275e-04 DIIS
   @DF-RHF iter  11:  -426.01799946908625   -5.78701e-04   5.38580e-05 DIIS
   @DF-RHF iter  12:  -426.01807595962862   -7.64905e-05   1.66327e-05 DIIS
   @DF-RHF iter  13:  -426.01808407831879   -8.11869e-06   5.15076e-06 DIIS
   @DF-RHF iter  14:  -426.01808506429666   -9.85978e-07   1.42650e-06 DIIS
   @DF-RHF iter  15:  -426.01808518199539   -1.17699e-07   5.90040e-07 DIIS

  ==> Post-Iterations <==

    Orbital Energies (a.u.)
    -----------------------

    Doubly Occupied:                                                      

       1A    -20.545514     2A    -11.322554     3A    -11.232498  
       4A    -11.231695     5A    -11.217428     6A    -11.215645  
       7A    -11.211875     8A    -11.211133     9A    -11.210525  
      10A    -11.207961    11A     -1.391382    12A     -1.124306  
      13A     -1.073709    14A     -1.017753    15A     -0.999449  
      16A     -0.919577    17A     -0.902484    18A     -0.830217  
      19A     -0.791521    20A     -0.745280    21A     -0.684248  
      22A     -0.653946    23A     -0.633535    24A     -0.627214  
      25A     -0.609448    26A     -0.603424    27A     -0.585817  
      28A     -0.561494    29A     -0.552768    30A     -0.545236  
      31A     -0.533291    32A     -0.521958    33A     -0.501133  
      34A     -0.481263    35A     -0.476853    36A     -0.466234  
      37A     -0.463613    38A     -0.458851    39A     -0.392794  
      40A     -0.380738  

    Virtual:                                                              

      41A      0.157737    42A      0.216514    43A      0.238498  
      44A      0.249610    45A      0.253710    46A      0.282660  
      47A      0.293367    48A      0.304768    49A      0.306616  
      50A      0.316383    51A      0.322563    52A      0.328544  
      53A      0.336985    54A      0.340926    55A      0.347206  
      56A      0.348293    57A      0.374315    58A      0.379997  
      59A      0.392357    60A      0.400125    61A      0.406092  
      62A      0.427905    63A      0.434451    64A      0.447410  
      65A      0.473035    66A      0.507372    67A      0.537225  
      68A      0.586006    69A      0.695457    70A      0.702373  
      71A      0.718086    72A      0.736771    73A      0.738358  
      74A      0.748096    75A      0.757320    76A      0.771704  
      77A      0.838949    78A      0.863381    79A      0.870696  
      80A      0.874980    81A      0.907313    82A      0.924715  
      83A      0.928425    84A      0.955328    85A      0.970862  
      86A      0.985760    87A      0.997069    88A      1.002057  
      89A      1.021762    90A      1.037819    91A      1.079065  
      92A      1.093790    93A      1.108451    94A      1.129055  
      95A      1.136340    96A      1.147548    97A      1.160444  
      98A      1.170855    99A      1.172689   100A      1.182760  
     101A      1.186766   102A      1.191700   103A      1.207383  
     104A      1.221253   105A      1.222527   106A      1.230061  
     107A      1.234358   108A      1.251372   109A      1.255628  
     110A      1.265813   111A      1.280228   112A      1.326057  
     113A      1.351456   114A      1.382486   115A      1.390359  
     116A      1.400802   117A      1.452463   118A      1.467433  
     119A      1.575053   120A      1.649867   121A      1.695667  
     122A      1.714662   123A      1.736958   124A      1.756296  
     125A      1.794372   126A      1.811729   127A      1.861980  
     128A      1.876343   129A      1.917802   130A      1.933598  
     131A      1.975648   132A      2.015340   133A      2.040740  
     134A      2.099207   135A      2.109259   136A      2.127838  
     137A      2.152304   138A      2.167171   139A      2.193382  
     140A      2.215561   141A      2.237081   142A      2.260522  
     143A      2.277192   144A      2.290976   145A      2.303392  
     146A      2.353186   147A      2.368262   148A      2.377777  
     149A      2.388467   150A      2.410814   151A      2.461105  
     152A      2.511217   153A      2.534708   154A      2.581873  
     155A      2.598950   156A      2.640109   157A      2.656516  
     158A      2.667942   159A      2.690418   160A      2.725314  
     161A      2.729899   162A      2.748277   163A      2.778917  
     164A      2.788630   165A      2.837276   166A      2.887865  
     167A      2.934318   168A      2.960356   169A      2.984970  
     170A      3.006864   171A      3.055360   172A      3.087108  
     173A      3.129286   174A      3.220053   175A      3.405072  
     176A      3.447169   177A      4.463330   178A      4.557955  
     179A      4.624654   180A      4.677553   181A      4.761742  
     182A      4.797996   183A      4.891506   184A      4.973282  
     185A      4.991711   186A      5.091505  

    Final Occupation by Irrep:
              A 
    DOCC [    40 ]

  Energy converged.

  @DF-RHF Final Energy:  -426.01808518199539

   => Energetics <=

    Nuclear Repulsion Energy =            577.6865174408197845
    One-Electron Energy =               -1723.1364802186508314
    Two-Electron Energy =                 719.4318775958361130
    DFT Exchange-Correlation Energy =       0.0000000000000000
    Empirical Dispersion Energy =           0.0000000000000000
    PCM Polarization Energy =               0.0000000000000000
    EFP Energy =                            0.0000000000000000
    Total Energy =                       -426.0180851819948202

    Alert: EFP and PCM quantities not currently incorporated into SCF psivars.

Properties will be evaluated at   0.000000,   0.000000,   0.000000 Bohr
  ==> Properties <==


Properties computed using the SCF density matrix

  Nuclear Dipole Moment: (a.u.)
     X:    -0.3678      Y:    -8.7050      Z:    -7.2902

  Electronic Dipole Moment: (a.u.)
     X:    -0.0987      Y:     8.1909      Z:     6.2893

  Dipole Moment: (a.u.)
     X:    -0.4665      Y:    -0.5141      Z:    -1.0009     Total:     1.2181

  Dipole Moment: (Debye)
     X:    -1.1858      Y:    -1.3067      Z:    -2.5440     Total:     3.0961


  Saving occupied orbitals to File 180.

*** tstop() called on cx1-3-4-4.cx1.hpc.ic.ac.uk at Tue Jul  5 17:38:04 2016
Module time:
	user time   =      36.60 seconds =       0.61 minutes
	system time =       0.32 seconds =       0.01 minutes
	total time  =         37 seconds =       0.62 minutes
Total time:
	user time   =      36.60 seconds =       0.61 minutes
	system time =       0.32 seconds =       0.01 minutes
	total time  =         37 seconds =       0.62 minutes


Properties will be evaluated at   0.000000,   0.000000,   0.000000 Bohr

Properties computed using the  density matrix

  Nuclear Dipole Moment: (a.u.)
     X:    -0.3678      Y:    -8.7050      Z:    -7.2902

  Electronic Dipole Moment: (a.u.)
     X:    -0.0987      Y:     8.1909      Z:     6.2893

  Dipole Moment: (a.u.)
     X:    -0.4665      Y:    -0.5141      Z:    -1.0009     Total:     1.2181

  Dipole Moment: (Debye)
     X:    -1.1858      Y:    -1.3067      Z:    -2.5440     Total:     3.0961

  Quadrupole Moment: (Debye Ang)
    XX:   -63.1810     YY:   -68.4600     ZZ:   -70.9538
    XY:    -1.9646     XZ:    -1.6052     YZ:    -5.9242

  Traceless Quadrupole Moment: (Debye Ang)
    XX:     4.3506     YY:    -0.9284     ZZ:    -3.4222
    XY:    -1.9646     XZ:    -1.6052     YZ:    -5.9242

  Mulliken Charges: (a.u.)
   Center  Symbol    Alpha    Beta     Spin     Total
       1     H     0.41521  0.41521  0.00000  0.16959
       2     C     3.24840  3.24840  0.00000 -0.49680
       3     C     3.15684  3.15684  0.00000 -0.31367
       4     H     0.42317  0.42317  0.00000  0.15366
       5     H     0.42759  0.42759  0.00000  0.14483
       6     C     3.14344  3.14344  0.00000 -0.28687
       7     H     0.41970  0.41970  0.00000  0.16060
       8     H     0.40952  0.40952  0.00000  0.18097
       9     C     3.21235  3.21235  0.00000 -0.42469
      10     H     0.40643  0.40643  0.00000  0.18713
      11     H     0.42480  0.42480  0.00000  0.15039
      12     C     2.73102  2.73102  0.00000  0.53796
      13     H     0.40405  0.40405  0.00000  0.19190
      14     H     0.43607  0.43607  0.00000  0.12787
      15     C     3.20208  3.20208  0.00000 -0.40416
      16     O     4.26994  4.26994  0.00000 -0.53989
      17     C     3.16825  3.16825  0.00000 -0.33650
      18     H     0.39720  0.39720  0.00000  0.20560
      19     H     0.39976  0.39976  0.00000  0.20047
      20     C     3.16464  3.16464  0.00000 -0.32929
      21     H     0.40964  0.40964  0.00000  0.18073
      22     H     0.41810  0.41810  0.00000  0.16380
      23     C     3.23730  3.23730  0.00000 -0.47459
      24     H     0.41590  0.41590  0.00000  0.16820
      25     H     0.39969  0.39969  0.00000  0.20062
      26     H     0.41911  0.41911  0.00000  0.16177
      27     H     0.42221  0.42221  0.00000  0.15558
      28     H     0.41762  0.41762  0.00000  0.16477

   Total alpha = 40.00000, Total beta = 40.00000, Total charge =  0.00000


*** PSI4 exiting successfully. Buy a developer a beer!
