    -----------------------------------------------------------------------
          Psi4: An Open-Source Ab Initio Electronic Structure Package
                              Psi4 (no tag) Driver

                          Git: Rev {detached?}  

    J. M. Turney, A. C. Simmonett, R. M. Parrish, E. G. Hohenstein,
    F. A. Evangelista, J. T. Fermann, B. J. Mintz, L. A. Burns, J. J. Wilke,
    M. L. Abrams, N. J. Russ, M. L. Leininger, C. L. Janssen, E. T. Seidl,
    W. D. Allen, H. F. Schaefer, R. A. King, E. F. Valeev, C. D. Sherrill,
    and T. D. Crawford, WIREs Comput. Mol. Sci. 2, 556-565 (2012)
    (doi: 10.1002/wcms.93)

                         Additional Contributions by
    A. E. DePrince, M. Saitow, U. Bozkaya, A. Yu. Sokolov
    -----------------------------------------------------------------------


    Psi4 started on: Tue Jul  5 16:33:49 2016

    Process ID:  21969
    PSI4DATADIR: /export131/home/mjharvey/miniconda3/share
    Memory level set to 256.000 MB

  ==> Input File <==

--------------------------------------------------------------------------
set {
	reference rhf
	basis 6-31G*
}


set_num_threads( 1 )
memory 2 gb

molecule MOL {
0 1

H	 1.921989	 -0.566793	 0.570288
C	 1.076478	 -0.623739	 -0.101406
O	 0.000000	 0.000000	 0.521119
H	 1.336186	 -0.131078	 -1.037101
H	 0.863591	 -1.670713	 -0.311681
C	 -1.165642	 0.000000	 -0.238270
H	 -1.228672	 0.883184	 -0.872070
H	 -2.003012	 0.000000	 0.445920
H	 -1.228672	 -0.883184	 -0.872070

	symmetry c1
}
ee = energy('scf')
oeprop('DIPOLE', 'QUADRUPOLE', 'MULLIKEN_CHARGES')
f=open( 'psi4out.xyz', 'w' )
f.write( "9  " )
f.write( str(ee) + "\n" )
f.write( MOL.save_string_xyz() )
f.close()
--------------------------------------------------------------------------

  Memory set to   2.000 GiB by Python script.

*** tstart() called on cx1-3-15-2.cx1.hpc.ic.ac.uk
*** at Tue Jul  5 16:33:50 2016


         ---------------------------------------------------------
                                   SCF
            by Justin Turney, Rob Parrish, and Andy Simmonett
                              RHF Reference
                        1 Threads,   2000 MiB Core
         ---------------------------------------------------------

  ==> Geometry <==

    Molecular point group: c1
    Full point group: C1

    Geometry (in Angstrom), charge = 0, multiplicity = 1:

       Center              X                  Y                   Z               Mass       
    ------------   -----------------  -----------------  -----------------  -----------------
           H          1.952639528239    -0.352379741847     0.523240002122     1.007825032070
           C          1.107128528239    -0.409325741847    -0.148453997878    12.000000000000
           O          0.030650528239     0.214413258153     0.474071002122    15.994914619560
           H          1.366836528239     0.083335258153    -1.084148997878     1.007825032070
           H          0.894241528239    -1.456299741847    -0.358728997878     1.007825032070
           C         -1.134991471761     0.214413258153    -0.285317997878    12.000000000000
           H         -1.198021471761     1.097597258153    -0.919117997878     1.007825032070
           H         -1.972361471761     0.214413258153     0.398872002122     1.007825032070
           H         -1.198021471761    -0.668770741847    -0.919117997878     1.007825032070

  Running in c1 symmetry.

  Rotational constants: A =      1.36921  B =      0.33765  C =      0.30129 [cm^-1]
  Rotational constants: A =  41047.74772  B =  10122.49182  C =   9032.38424 [MHz]
  Nuclear repulsion =   84.781331154432095

  Charge       = 0
  Multiplicity = 1
  Electrons    = 26
  Nalpha       = 13
  Nbeta        = 13

  ==> Algorithm <==

  SCF Algorithm Type is DF.
  DIIS enabled.
  MOM disabled.
  Fractional occupation disabled.
  Guess Type is CORE.
  Energy threshold   = 1.00e-06
  Density threshold  = 1.00e-06
  Integral threshold = 0.00e+00

  ==> Primary Basis <==

  Basis Set: 6-31G*
    Number of shells: 30
    Number of basis function: 57
    Number of Cartesian functions: 57
    Spherical Harmonics?: false
    Max angular momentum: 2

  ==> Pre-Iterations <==

   -------------------------------------------------------
    Irrep   Nso     Nmo     Nalpha   Nbeta   Ndocc  Nsocc
   -------------------------------------------------------
     A         57      57       0       0       0       0
   -------------------------------------------------------
    Total      57      57      13      13      13       0
   -------------------------------------------------------

 OEINTS: Overlap, kinetic, potential, dipole, and quadrupole integrals
         stored in file 35.

  ==> Integral Setup <==

  ==> DFJK: Density-Fitted J/K Matrices <==

    J tasked:                  Yes
    K tasked:                  Yes
    wK tasked:                  No
    OpenMP threads:              1
    Integrals threads:           1
    Memory (MB):              1430
    Algorithm:                Core
    Integral Cache:           NONE
    Schwarz Cutoff:          1E-12
    Fitting Condition:       1E-12

   => Auxiliary Basis Set <=

  Basis Set: 
    Number of shells: 126
    Number of basis function: 393
    Number of Cartesian functions: 393
    Spherical Harmonics?: false
    Max angular momentum: 3

  Minimum eigenvalue in the overlap matrix is 7.5720804364E-03.
  Using Symmetric Orthogonalization.
  SCF Guess: Core (One-Electron) Hamiltonian.

  ==> Iterations <==

                           Total Energy        Delta E     RMS |[F,P]|

   @DF-RHF iter   1:  -129.87157495160892   -1.29872e+02   9.38477e-02 
   @DF-RHF iter   2:  -130.02104279661336   -1.49468e-01   6.08962e-02 DIIS
   @DF-RHF iter   3:  -149.58643116897059   -1.95654e+01   5.55943e-02 DIIS
   @DF-RHF iter   4:  -152.17012843079959   -2.58370e+00   3.60976e-02 DIIS
   @DF-RHF iter   5:  -153.72455826519956   -1.55443e+00   1.53920e-02 DIIS
   @DF-RHF iter   6:  -154.04033240765796   -3.15774e-01   4.42939e-03 DIIS
   @DF-RHF iter   7:  -154.06201020380013   -2.16778e-02   4.17689e-04 DIIS
   @DF-RHF iter   8:  -154.06251990290576   -5.09699e-04   9.37265e-05 DIIS
   @DF-RHF iter   9:  -154.06254337468346   -2.34718e-05   1.78896e-05 DIIS
   @DF-RHF iter  10:  -154.06254451967555   -1.14499e-06   6.22963e-06 DIIS
   @DF-RHF iter  11:  -154.06254461996497   -1.00289e-07   1.47238e-06 DIIS
   @DF-RHF iter  12:  -154.06254462773467   -7.76970e-09   3.57622e-07 DIIS

  ==> Post-Iterations <==

    Orbital Energies (a.u.)
    -----------------------

    Doubly Occupied:                                                      

       1A    -20.554877     2A    -11.265529     3A    -11.264687  
       4A     -1.378959     5A     -0.974455     6A     -0.873414  
       7A     -0.660440     8A     -0.654792     9A     -0.644140  
      10A     -0.555055    11A     -0.527254    12A     -0.475918  
      13A     -0.414769  

    Virtual:                                                              

      14A      0.238287    15A      0.297135    16A      0.305279  
      17A      0.316104    18A      0.321156    19A      0.341314  
      20A      0.351254    21A      0.434529    22A      0.726844  
      23A      0.766445    24A      0.780058    25A      0.802917  
      26A      0.819888    27A      0.924037    28A      1.096858  
      29A      1.120907    30A      1.133580    31A      1.146708  
      32A      1.161851    33A      1.203878    34A      1.239109  
      35A      1.321430    36A      1.353778    37A      1.361619  
      38A      1.642439    39A      1.708713    40A      1.766127  
      41A      1.807198    42A      1.899629    43A      2.209764  
      44A      2.414831    45A      2.420429    46A      2.454960  
      47A      2.494856    48A      2.516545    49A      2.577602  
      50A      2.704346    51A      2.857353    52A      2.884274  
      53A      3.105924    54A      3.286827    55A      4.334951  
      56A      4.628072    57A      4.705918  

    Final Occupation by Irrep:
              A 
    DOCC [    13 ]

  Energy converged.

  @DF-RHF Final Energy:  -154.06254462773467

   => Energetics <=

    Nuclear Repulsion Energy =             84.7813311544320953
    One-Electron Energy =                -377.1992578919886796
    Two-Electron Energy =                 138.3553821098219601
    DFT Exchange-Correlation Energy =       0.0000000000000000
    Empirical Dispersion Energy =           0.0000000000000000
    PCM Polarization Energy =               0.0000000000000000
    EFP Energy =                            0.0000000000000000
    Total Energy =                       -154.0625446277346100

    Alert: EFP and PCM quantities not currently incorporated into SCF psivars.

Properties will be evaluated at   0.000000,   0.000000,   0.000000 Bohr
  ==> Properties <==


Properties computed using the SCF density matrix

  Nuclear Dipole Moment: (a.u.)
     X:    -0.1449      Y:    -1.0134      Z:    -2.2092

  Electronic Dipole Moment: (a.u.)
     X:     0.1103      Y:     0.7476      Z:     1.6715

  Dipole Moment: (a.u.)
     X:    -0.0345      Y:    -0.2658      Z:    -0.5377     Total:     0.6008

  Dipole Moment: (Debye)
     X:    -0.0878      Y:    -0.6756      Z:    -1.3667     Total:     1.5271


  Saving occupied orbitals to File 180.

*** tstop() called on cx1-3-15-2.cx1.hpc.ic.ac.uk at Tue Jul  5 16:33:52 2016
Module time:
	user time   =       1.45 seconds =       0.02 minutes
	system time =       0.02 seconds =       0.00 minutes
	total time  =          2 seconds =       0.03 minutes
Total time:
	user time   =       1.45 seconds =       0.02 minutes
	system time =       0.02 seconds =       0.00 minutes
	total time  =          2 seconds =       0.03 minutes


Properties will be evaluated at   0.000000,   0.000000,   0.000000 Bohr

Properties computed using the  density matrix

  Nuclear Dipole Moment: (a.u.)
     X:    -0.1449      Y:    -1.0134      Z:    -2.2092

  Electronic Dipole Moment: (a.u.)
     X:     0.1103      Y:     0.7476      Z:     1.6715

  Dipole Moment: (a.u.)
     X:    -0.0345      Y:    -0.2658      Z:    -0.5377     Total:     0.6008

  Dipole Moment: (Debye)
     X:    -0.0878      Y:    -0.6756      Z:    -1.3667     Total:     1.5271

  Quadrupole Moment: (Debye Ang)
    XX:   -17.1745     YY:   -20.0859     ZZ:   -20.7747
    XY:    -0.7241     XZ:     0.1545     YZ:    -0.3925

  Traceless Quadrupole Moment: (Debye Ang)
    XX:     2.1706     YY:    -0.7409     ZZ:    -1.4297
    XY:    -0.7241     XZ:     0.1545     YZ:    -0.3925

  Mulliken Charges: (a.u.)
   Center  Symbol    Alpha    Beta     Spin     Total
       1     H     0.41225  0.41225  0.00000  0.17550
       2     C     3.08068  3.08068  0.00000 -0.16137
       3     O     4.29609  4.29609  0.00000 -0.59218
       4     H     0.43038  0.43038  0.00000  0.13924
       5     H     0.42947  0.42947  0.00000  0.14107
       6     C     3.07909  3.07909  0.00000 -0.15817
       7     H     0.42641  0.42641  0.00000  0.14717
       8     H     0.41415  0.41415  0.00000  0.17170
       9     H     0.43148  0.43148  0.00000  0.13704

   Total alpha = 13.00000, Total beta = 13.00000, Total charge = -0.00000


*** PSI4 exiting successfully. Buy a developer a beer!
