    -----------------------------------------------------------------------
          Psi4: An Open-Source Ab Initio Electronic Structure Package
                              Psi4 (no tag) Driver

                          Git: Rev {detached?}  

    J. M. Turney, A. C. Simmonett, R. M. Parrish, E. G. Hohenstein,
    F. A. Evangelista, J. T. Fermann, B. J. Mintz, L. A. Burns, J. J. Wilke,
    M. L. Abrams, N. J. Russ, M. L. Leininger, C. L. Janssen, E. T. Seidl,
    W. D. Allen, H. F. Schaefer, R. A. King, E. F. Valeev, C. D. Sherrill,
    and T. D. Crawford, WIREs Comput. Mol. Sci. 2, 556-565 (2012)
    (doi: 10.1002/wcms.93)

                         Additional Contributions by
    A. E. DePrince, M. Saitow, U. Bozkaya, A. Yu. Sokolov
    -----------------------------------------------------------------------


    Psi4 started on: Tue Jul  5 16:34:06 2016

    Process ID:  16469
    PSI4DATADIR: /export131/home/mjharvey/miniconda3/share
    Memory level set to 256.000 MB

  ==> Input File <==

--------------------------------------------------------------------------
set {
	reference rhf
	basis 6-31G*
}


set_num_threads( 1 )
memory 2 gb

molecule MOL {
0 1

H	 1.016797	 0.366123	 -2.162987
O	 1.631499	 0.886023	 -1.665460
C	 0.933123	 1.800208	 -0.858179
C	 0.031547	 1.023609	 0.088541
H	 0.323809	 2.461624	 -1.471493
H	 1.627426	 2.424882	 -0.300660
C	 -1.134819	 0.293262	 -0.585751
H	 -0.364656	 1.721166	 0.821156
H	 0.648061	 0.310390	 0.633012
C	 -1.917817	 -0.639439	 0.339494
H	 -0.758119	 -0.268455	 -1.433105
H	 -1.813832	 1.041889	 -0.986690
H	 -2.777680	 -1.057197	 -0.174994
H	 -1.310268	 -1.471279	 0.680599
H	 -2.283753	 -0.111424	 1.216626

	symmetry c1
}
set optking {
	frozen_dihedral = ("
		8 4 7 11,
		2 3 4 8
	")
}

ee = energy('scf')
oeprop('DIPOLE', 'QUADRUPOLE', 'MULLIKEN_CHARGES')
f=open( 'psi4out.xyz', 'w' )
f.write( "15  " )
f.write( str(ee) + "\n" )
f.write( MOL.save_string_xyz() )
f.close()
--------------------------------------------------------------------------

  Memory set to   2.000 GiB by Python script.

*** tstart() called on cx1-1-3-3.cx1.hpc.ic.ac.uk
*** at Tue Jul  5 16:34:06 2016


         ---------------------------------------------------------
                                   SCF
            by Justin Turney, Rob Parrish, and Andy Simmonett
                              RHF Reference
                        1 Threads,   2000 MiB Core
         ---------------------------------------------------------

  ==> Geometry <==

    Molecular point group: c1
    Full point group: C1

    Geometry (in Angstrom), charge = 0, multiplicity = 1:

       Center              X                  Y                   Z               Mass       
    ------------   -----------------  -----------------  -----------------  -----------------
           H          1.080202709231    -0.300294522468    -1.595534013722     1.007825032070
           O          1.694904709231     0.219605477532    -1.098007013722    15.994914619560
           C          0.996528709231     1.133790477532    -0.290726013722    12.000000000000
           C          0.094952709231     0.357191477532     0.655993986278    12.000000000000
           H          0.387214709231     1.795206477532    -0.904040013722     1.007825032070
           H          1.690831709231     1.758464477532     0.266792986278     1.007825032070
           C         -1.071413290769    -0.373155522468    -0.018298013722    12.000000000000
           H         -0.301250290769     1.054748477532     1.388608986278     1.007825032070
           H          0.711466709231    -0.356027522468     1.200464986278     1.007825032070
           C         -1.854411290769    -1.305856522468     0.906946986278    12.000000000000
           H         -0.694713290769    -0.934872522468    -0.865652013722     1.007825032070
           H         -1.750426290769     0.375471477532    -0.419237013722     1.007825032070
           H         -2.714274290769    -1.723614522468     0.392458986278     1.007825032070
           H         -1.246862290769    -2.137696522468     1.248051986278     1.007825032070
           H         -2.220347290769    -0.777841522468     1.784078986278     1.007825032070

  Running in c1 symmetry.

  Rotational constants: A =      0.40585  B =      0.07994  C =      0.07393 [cm^-1]
  Rotational constants: A =  12167.22284  B =   2396.56086  C =   2216.37140 [MHz]
  Nuclear repulsion =  189.119925316918966

  Charge       = 0
  Multiplicity = 1
  Electrons    = 42
  Nalpha       = 21
  Nbeta        = 21

  ==> Algorithm <==

  SCF Algorithm Type is DF.
  DIIS enabled.
  MOM disabled.
  Fractional occupation disabled.
  Guess Type is CORE.
  Energy threshold   = 1.00e-06
  Density threshold  = 1.00e-06
  Integral threshold = 0.00e+00

  ==> Primary Basis <==

  Basis Set: 6-31G*
    Number of shells: 50
    Number of basis function: 95
    Number of Cartesian functions: 95
    Spherical Harmonics?: false
    Max angular momentum: 2

  ==> Pre-Iterations <==

   -------------------------------------------------------
    Irrep   Nso     Nmo     Nalpha   Nbeta   Ndocc  Nsocc
   -------------------------------------------------------
     A         95      95       0       0       0       0
   -------------------------------------------------------
    Total      95      95      21      21      21       0
   -------------------------------------------------------

 OEINTS: Overlap, kinetic, potential, dipole, and quadrupole integrals
         stored in file 35.

  ==> Integral Setup <==

  ==> DFJK: Density-Fitted J/K Matrices <==

    J tasked:                  Yes
    K tasked:                  Yes
    wK tasked:                  No
    OpenMP threads:              1
    Integrals threads:           1
    Memory (MB):              1430
    Algorithm:                Core
    Integral Cache:           NONE
    Schwarz Cutoff:          1E-12
    Fitting Condition:       1E-12

   => Auxiliary Basis Set <=

  Basis Set: 
    Number of shells: 210
    Number of basis function: 655
    Number of Cartesian functions: 655
    Spherical Harmonics?: false
    Max angular momentum: 3

  Minimum eigenvalue in the overlap matrix is 4.3239198236E-03.
  Using Symmetric Orthogonalization.
  SCF Guess: Core (One-Electron) Hamiltonian.

  ==> Iterations <==

                           Total Energy        Delta E     RMS |[F,P]|

   @DF-RHF iter   1:  -180.41118120831169   -1.80411e+02   8.16199e-02 
   @DF-RHF iter   2:   -98.24748814922356    8.21637e+01   9.46795e-02 DIIS
   @DF-RHF iter   3:  -200.57998511353867   -1.02332e+02   4.53923e-02 DIIS
   @DF-RHF iter   4:  -165.00947301729440    3.55705e+01   7.78022e-02 DIIS
   @DF-RHF iter   5:  -223.89781328174314   -5.88883e+01   2.92269e-02 DIIS
   @DF-RHF iter   6:  -231.86121762908346   -7.96340e+00   7.99550e-03 DIIS
   @DF-RHF iter   7:  -232.09825946034442   -2.37042e-01   3.39061e-03 DIIS
   @DF-RHF iter   8:  -232.13934294000831   -4.10835e-02   4.61661e-04 DIIS
   @DF-RHF iter   9:  -232.14087885178594   -1.53591e-03   1.87327e-04 DIIS
   @DF-RHF iter  10:  -232.14113016642085   -2.51315e-04   5.56003e-05 DIIS
   @DF-RHF iter  11:  -232.14115841312321   -2.82467e-05   2.06585e-05 DIIS
   @DF-RHF iter  12:  -232.14116181085768   -3.39773e-06   6.65163e-06 DIIS
   @DF-RHF iter  13:  -232.14116216650825   -3.55651e-07   1.05740e-06 DIIS
   @DF-RHF iter  14:  -232.14116217392302   -7.41477e-09   4.35662e-07 DIIS

  ==> Post-Iterations <==

    Orbital Energies (a.u.)
    -----------------------

    Doubly Occupied:                                                      

       1A    -20.550440     2A    -11.269124     3A    -11.226604  
       4A    -11.216405     5A    -11.215452     6A     -1.359346  
       7A     -1.072335     8A     -0.979727     9A     -0.871523  
      10A     -0.797221    11A     -0.689734    12A     -0.649797  
      13A     -0.613756    14A     -0.603035    15A     -0.557412  
      16A     -0.543193    17A     -0.511958    18A     -0.489948  
      19A     -0.476861    20A     -0.459790    21A     -0.427241  

    Virtual:                                                              

      22A      0.219278    23A      0.245477    24A      0.259393  
      25A      0.286158    26A      0.309916    27A      0.321731  
      28A      0.327966    29A      0.338390    30A      0.343525  
      31A      0.371909    32A      0.407357    33A      0.417190  
      34A      0.440220    35A      0.452707    36A      0.696998  
      37A      0.720507    38A      0.745158    39A      0.758597  
      40A      0.816885    41A      0.837113    42A      0.872599  
      43A      0.913826    44A      0.954949    45A      1.007390  
      46A      1.039494    47A      1.060883    48A      1.123643  
      49A      1.130257    50A      1.163714    51A      1.170457  
      52A      1.185075    53A      1.190379    54A      1.201256  
      55A      1.211616    56A      1.229760    57A      1.235730  
      58A      1.264323    59A      1.330147    60A      1.375348  
      61A      1.472376    62A      1.523736    63A      1.662489  
      64A      1.669987    65A      1.738385    66A      1.835591  
      67A      1.871138    68A      1.950026    69A      2.016728  
      70A      2.103572    71A      2.153932    72A      2.207521  
      73A      2.228485    74A      2.276288    75A      2.299327  
      76A      2.352382    77A      2.424194    78A      2.456145  
      79A      2.551631    80A      2.592577    81A      2.650761  
      82A      2.691399    83A      2.721407    84A      2.763935  
      85A      2.789635    86A      2.888501    87A      2.947620  
      88A      3.057156    89A      3.074687    90A      3.217398  
      91A      4.207981    92A      4.570466    93A      4.702293  
      94A      4.808633    95A      4.953261  

    Final Occupation by Irrep:
              A 
    DOCC [    21 ]

  Energy converged.

  @DF-RHF Final Energy:  -232.14116217392302

   => Energetics <=

    Nuclear Repulsion Energy =            189.1199253169189660
    One-Electron Energy =                -689.3602458332275091
    Two-Electron Energy =                 268.0991583423863744
    DFT Exchange-Correlation Energy =       0.0000000000000000
    Empirical Dispersion Energy =           0.0000000000000000
    PCM Polarization Energy =               0.0000000000000000
    EFP Energy =                            0.0000000000000000
    Total Energy =                       -232.1411621739221687

    Alert: EFP and PCM quantities not currently incorporated into SCF psivars.

Properties will be evaluated at   0.000000,   0.000000,   0.000000 Bohr
  ==> Properties <==


Properties computed using the SCF density matrix

  Nuclear Dipole Moment: (a.u.)
     X:    -4.7337      Y:    -1.1675      Z:     2.3346

  Electronic Dipole Moment: (a.u.)
     X:     3.9878      Y:     1.2016      Z:    -2.2436

  Dipole Moment: (a.u.)
     X:    -0.7460      Y:     0.0342      Z:     0.0910     Total:     0.7523

  Dipole Moment: (Debye)
     X:    -1.8961      Y:     0.0869      Z:     0.2314     Total:     1.9121


  Saving occupied orbitals to File 180.

*** tstop() called on cx1-1-3-3.cx1.hpc.ic.ac.uk at Tue Jul  5 16:34:12 2016
Module time:
	user time   =       6.08 seconds =       0.10 minutes
	system time =       0.04 seconds =       0.00 minutes
	total time  =          6 seconds =       0.10 minutes
Total time:
	user time   =       6.08 seconds =       0.10 minutes
	system time =       0.04 seconds =       0.00 minutes
	total time  =          6 seconds =       0.10 minutes


Properties will be evaluated at   0.000000,   0.000000,   0.000000 Bohr

Properties computed using the  density matrix

  Nuclear Dipole Moment: (a.u.)
     X:    -4.7337      Y:    -1.1675      Z:     2.3346

  Electronic Dipole Moment: (a.u.)
     X:     3.9878      Y:     1.2016      Z:    -2.2436

  Dipole Moment: (a.u.)
     X:    -0.7460      Y:     0.0342      Z:     0.0910     Total:     0.7523

  Dipole Moment: (Debye)
     X:    -1.8961      Y:     0.0869      Z:     0.2314     Total:     1.9121

  Quadrupole Moment: (Debye Ang)
    XX:   -38.7146     YY:   -31.8664     ZZ:   -32.7270
    XY:    -0.0891     XZ:     2.6646     YZ:     1.5534

  Traceless Quadrupole Moment: (Debye Ang)
    XX:    -4.2786     YY:     2.5696     ZZ:     1.7090
    XY:    -0.0891     XZ:     2.6646     YZ:     1.5534

  Mulliken Charges: (a.u.)
   Center  Symbol    Alpha    Beta     Spin     Total
       1     H     0.27738  0.27738  0.00000  0.44523
       2     O     4.37275  4.37275  0.00000 -0.74549
       3     C     2.99647  2.99647  0.00000  0.00706
       4     C     3.16342  3.16342  0.00000 -0.32684
       5     H     0.43187  0.43187  0.00000  0.13626
       6     H     0.41278  0.41278  0.00000  0.17444
       7     C     3.15767  3.15767  0.00000 -0.31533
       8     H     0.42503  0.42503  0.00000  0.14993
       9     H     0.41477  0.41477  0.00000  0.17046
      10     C     3.23853  3.23853  0.00000 -0.47705
      11     H     0.43289  0.43289  0.00000  0.13423
      12     H     0.42071  0.42071  0.00000  0.15858
      13     H     0.41799  0.41799  0.00000  0.16401
      14     H     0.41825  0.41825  0.00000  0.16351
      15     H     0.41950  0.41950  0.00000  0.16101

   Total alpha = 21.00000, Total beta = 21.00000, Total charge = -0.00000


*** PSI4 exiting successfully. Buy a developer a beer!
