
    -----------------------------------------------------------------------
          Psi4: An Open-Source Ab Initio Electronic Structure Package
                               Psi4 1.1 release

                         Git: Rev {HEAD} add49b9 


    R. M. Parrish, L. A. Burns, D. G. A. Smith, A. C. Simmonett,
    A. E. DePrince III, E. G. Hohenstein, U. Bozkaya, A. Yu. Sokolov,
    R. Di Remigio, R. M. Richard, J. F. Gonthier, A. M. James,
    H. R. McAlexander, A. Kumar, M. Saitow, X. Wang, B. P. Pritchard,
    P. Verma, H. F. Schaefer III, K. Patkowski, R. A. King, E. F. Valeev,
    F. A. Evangelista, J. M. Turney, T. D. Crawford, and C. D. Sherrill,
    J. Chem. Theory Comput. in press (2017).
    (doi: 10.1021/acs.jctc.7b00174)

    -----------------------------------------------------------------------


    Psi4 started on: Tuesday, 30 January 2018 01:48PM

    Process ID:  24207
    PSIDATADIR: /shared/raimis/opt/miniconda/envs/htmd/share/psi4
    Memory:     500.0 MiB
    Threads:    1
    
  ==> Input File <==

--------------------------------------------------------------------------
set_num_threads(1)
set_memory(4203741184)

set { reference rks }
set { basis cc-pVDZ }

molecule MOL {
    0 1
    noreorient
    nocom
    symmetry c1
    O    1.141000   0.017000   0.083000
    C    2.558000   0.086000  -0.005000
    C    3.192000  -0.789000   1.067000
    O    4.610000  -0.719000   0.979000
    H    0.908377  -0.927166   0.112641
    H    2.874000   1.128000   0.115000
    H    2.871000  -0.243000  -1.001000
    H    2.876000  -1.830000   0.947000
    H    2.879000  -0.459000   2.064000
    H    4.961000  -1.293000   1.682000
}

set optking { frozen_dihedral = (" 3 2 1 5 ") }

energy, wfn = energy('B3LYP-D3', return_wfn=True)

import os
os.chdir(os.environ['HTMD_PSI4_WORKDIR'])

oeprop(wfn, 'DIPOLE', 'QUADRUPOLE', 'MULLIKEN_CHARGES')

with open('psi4out.xyz', 'w') as f:
    f.write('10 ' )
    f.write('%.12f\n' % energy)
    f.write(MOL.save_string_xyz())
--------------------------------------------------------------------------
  Threads set to 1 by Python driver.

  Memory set to   3.915 GiB by Python driver.

*** tstart() called on computer06
*** at Tue Jan 30 13:48:52 2018

   => Loading Basis Set <=

    Name: CC-PVDZ
    Role: ORBITAL
    Keyword: BASIS
    atoms 1, 4 entry O          line   190 file /shared/raimis/opt/miniconda/envs/htmd/share/psi4/basis/cc-pvdz.gbs 
    atoms 2-3  entry C          line   130 file /shared/raimis/opt/miniconda/envs/htmd/share/psi4/basis/cc-pvdz.gbs 
    atoms 5-10 entry H          line    20 file /shared/raimis/opt/miniconda/envs/htmd/share/psi4/basis/cc-pvdz.gbs 


         ---------------------------------------------------------
                                   SCF
            by Justin Turney, Rob Parrish, and Andy Simmonett
                              RKS Reference
                        1 Threads,   4009 MiB Core
         ---------------------------------------------------------

  ==> Geometry <==

    Molecular point group: c1
    Full point group: C1

    Geometry (in Angstrom), charge = 0, multiplicity = 1:

       Center              X                  Y                   Z               Mass       
    ------------   -----------------  -----------------  -----------------  -----------------
           O          1.141000000000     0.017000000000     0.083000000000    15.994914619560
           C          2.558000000000     0.086000000000    -0.005000000000    12.000000000000
           C          3.192000000000    -0.789000000000     1.067000000000    12.000000000000
           O          4.610000000000    -0.719000000000     0.979000000000    15.994914619560
           H          0.908377000000    -0.927166000000     0.112641000000     1.007825032070
           H          2.874000000000     1.128000000000     0.115000000000     1.007825032070
           H          2.871000000000    -0.243000000000    -1.001000000000     1.007825032070
           H          2.876000000000    -1.830000000000     0.947000000000     1.007825032070
           H          2.879000000000    -0.459000000000     2.064000000000     1.007825032070
           H          4.961000000000    -1.293000000000     1.682000000000     1.007825032070

  Running in c1 symmetry.

  Rotational constants: A =      0.84251  B =      0.02533  C =      0.02485 [cm^-1]
  Rotational constants: A =  25257.94378  B =    759.29260  C =    744.97404 [MHz]
  Nuclear repulsion =  129.962684300045368

  Charge       = 0
  Multiplicity = 1
  Electrons    = 34
  Nalpha       = 17
  Nbeta        = 17

  ==> Algorithm <==

  SCF Algorithm Type is DF.
  DIIS enabled.
  MOM disabled.
  Fractional occupation disabled.
  Guess Type is SAD.
  Energy threshold   = 1.00e-06
  Density threshold  = 1.00e-06
  Integral threshold = 0.00e+00

  ==> Primary Basis <==

  Basis Set: CC-PVDZ
    Blend: CC-PVDZ
    Number of shells: 42
    Number of basis function: 86
    Number of Cartesian functions: 90
    Spherical Harmonics?: true
    Max angular momentum: 2

  ==> DFT Potential <==

   => B3LYP Composite Functional <= 

    B3LYP Hybrid-GGA Exchange-Correlation Functional (VWN1-RPA)

    P.J. Stephens et. al., J. Phys. Chem., 98, 11623-11627, 1994

    Points   =           5000
    Deriv    =              1
    GGA      =           TRUE
    Meta     =          FALSE

    X_LRC        =          FALSE
    X_Hybrid     =           TRUE
    X_Alpha      =   2.000000E-01
    X_Omega      =   0.000000E+00
    C_LRC        =          FALSE
    C_Hybrid     =          FALSE
    C_Alpha      =   0.000000E+00
    C_Omega      =   0.000000E+00

   => Exchange Functionals <=

    0.8000    B3_X
    0.2000      HF 

   => Correlation Functionals <=

    0.1900 VWN3RPA_C
    0.8100   LYP_C

   => Molecular Quadrature <=

    Radial Scheme    =       TREUTLER
    Pruning Scheme   =           FLAT
    Nuclear Scheme   =       TREUTLER

    BS radius alpha  =              1
    Pruning alpha    =              1
    Radial Points    =             75
    Spherical Points =            302
    Total Points     =         222536
    Total Blocks     =            211
    Max Points       =           4944
    Max Functions    =             86

   => -D3ZERO: Empirical Dispersion <=

    Grimme's -D3 (zero-damping) Dispersion Correction
    Grimme S.; Antony J.; Ehrlich S.; Krieg H. (2010), J. Chem. Phys., 132: 154104

        S6 =   1.000000E+00
        S8 =   1.703000E+00
       SR6 =   1.261000E+00
    ALPHA6 =   1.400000E+01

   => Loading Basis Set <=

    Name: (CC-PVDZ AUX)
    Role: JKFIT
    Keyword: DF_BASIS_SCF
    atoms 1, 4 entry O          line   220 file /shared/raimis/opt/miniconda/envs/htmd/share/psi4/basis/cc-pvdz-jkfit.gbs 
    atoms 2-3  entry C          line   120 file /shared/raimis/opt/miniconda/envs/htmd/share/psi4/basis/cc-pvdz-jkfit.gbs 
    atoms 5-10 entry H          line    50 file /shared/raimis/opt/miniconda/envs/htmd/share/psi4/basis/cc-pvdz-jkfit.gbs 

  ==> Pre-Iterations <==

   -------------------------------------------------------
    Irrep   Nso     Nmo     Nalpha   Nbeta   Ndocc  Nsocc
   -------------------------------------------------------
     A         86      86       0       0       0       0
   -------------------------------------------------------
    Total      86      86      17      17      17       0
   -------------------------------------------------------

  ==> Integral Setup <==

  ==> DFJK: Density-Fitted J/K Matrices <==

    J tasked:                  Yes
    K tasked:                  Yes
    wK tasked:                  No
    OpenMP threads:              1
    Integrals threads:           1
    Memory (MB):              3006
    Algorithm:                Core
    Integral Cache:           NONE
    Schwarz Cutoff:          1E-12
    Fitting Condition:       1E-12

   => Auxiliary Basis Set <=

  Basis Set: (CC-PVDZ AUX)
    Blend: CC-PVDZ-JKFIT
    Number of shells: 150
    Number of basis function: 418
    Number of Cartesian functions: 474
    Spherical Harmonics?: true
    Max angular momentum: 3

  Minimum eigenvalue in the overlap matrix is 5.0698255914E-03.
  Using Symmetric Orthogonalization.

  SCF Guess: Superposition of Atomic Densities via on-the-fly atomic UHF.

  ==> Iterations <==

                           Total Energy        Delta E     RMS |[F,P]|

   @DF-RKS iter   0:  -230.98532858553622   -2.30985e+02   4.09870e-02 
   @DF-RKS iter   1:  -230.17719218120581    8.08136e-01   5.28451e-03 
   @DF-RKS iter   2:  -230.11830801443867    5.88842e-02   7.22306e-03 DIIS
   @DF-RKS iter   3:  -230.25709840145942   -1.38790e-01   6.21836e-04 DIIS
   @DF-RKS iter   4:  -230.25818126551619   -1.08286e-03   2.18060e-04 DIIS
   @DF-RKS iter   5:  -230.25835038089400   -1.69115e-04   4.54383e-05 DIIS
   @DF-RKS iter   6:  -230.25835746943307   -7.08854e-06   6.61011e-06 DIIS
   @DF-RKS iter   7:  -230.25835754798140   -7.85483e-08   4.22703e-06 DIIS
   @DF-RKS iter   8:  -230.25835759540928   -4.74279e-08   4.19025e-07 DIIS

  ==> Post-Iterations <==

    Orbital Energies (a.u.)
    -----------------------

    Doubly Occupied:                                                      

       1A    -19.135843     2A    -19.134592     3A    -10.231393  
       4A    -10.227156     5A     -1.023223     6A     -1.011611  
       7A     -0.732177     8A     -0.620261     9A     -0.518258  
      10A     -0.495105    11A     -0.459967    12A     -0.428291  
      13A     -0.398537    14A     -0.348114    15A     -0.324240  
      16A     -0.269592    17A     -0.268228  

    Virtual:                                                              

      18A      0.043493    19A      0.050326    20A      0.101328  
      21A      0.114514    22A      0.127436    23A      0.164392  
      24A      0.193313    25A      0.233365    26A      0.247267  
      27A      0.434990    28A      0.441462    29A      0.498417  
      30A      0.517317    31A      0.550808    32A      0.573058  
      33A      0.600408    34A      0.623455    35A      0.637054  
      36A      0.651413    37A      0.668617    38A      0.678857  
      39A      0.876613    40A      0.893170    41A      0.905408  
      42A      0.973049    43A      1.018893    44A      1.052954  
      45A      1.058022    46A      1.127376    47A      1.190765  
      48A      1.205598    49A      1.245301    50A      1.331629  
      51A      1.340639    52A      1.387300    53A      1.465265  
      54A      1.520728    55A      1.593815    56A      1.621090  
      57A      1.647059    58A      1.650268    59A      1.670871  
      60A      1.681484    61A      1.727483    62A      1.776360  
      63A      1.831744    64A      1.854128    65A      1.907582  
      66A      2.000230    67A      2.004061    68A      2.046742  
      69A      2.109608    70A      2.132685    71A      2.239212  
      72A      2.289549    73A      2.406217    74A      2.447824  
      75A      2.467651    76A      2.516497    77A      2.916377  
      78A      2.948355    79A      2.980817    80A      3.005816  
      81A      3.079966    82A      3.105281    83A      3.185145  
      84A      3.247053    85A      3.671071    86A      3.688685  

    Final Occupation by Irrep:
              A 
    DOCC [    17 ]

  Energy converged.

  @DF-RKS Final Energy:  -230.25835759540928

   => Energetics <=

    Nuclear Repulsion Energy =            129.9626843000453675
    One-Electron Energy =                -571.5564057951860377
    Two-Electron Energy =                 235.8779403645977482
    DFT Exchange-Correlation Energy =     -24.5379284248663261
    Empirical Dispersion Energy =          -0.0046480400000000
    PCM Polarization Energy =               0.0000000000000000
    EFP Energy =                            0.0000000000000000
    Total Energy =                       -230.2583575954092794



Properties will be evaluated at   0.000000,   0.000000,   0.000000 Bohr

Properties computed using the SCF density matrix

  Nuclear Dipole Moment: (a.u.)
     X:   184.9614      Y:   -25.4322      Z:    35.5035

  Electronic Dipole Moment: (a.u.)
     X:  -184.8518      Y:    24.6075      Z:   -35.0785

  Dipole Moment: (a.u.)
     X:     0.1096      Y:    -0.8248      Z:     0.4250     Total:     0.9343

  Dipole Moment: (Debye)
     X:     0.2786      Y:    -2.0964      Z:     1.0802     Total:     2.3747


*** tstop() called on computer06 at Tue Jan 30 13:49:13 2018
Module time:
	user time   =      19.46 seconds =       0.32 minutes
	system time =       0.14 seconds =       0.00 minutes
	total time  =         21 seconds =       0.35 minutes
Total time:
	user time   =      19.46 seconds =       0.32 minutes
	system time =       0.14 seconds =       0.00 minutes
	total time  =         21 seconds =       0.35 minutes


Properties will be evaluated at   0.000000,   0.000000,   0.000000 Bohr

Properties computed using the  density matrix

  Nuclear Dipole Moment: (a.u.)
     X:   184.9614      Y:   -25.4322      Z:    35.5035

  Electronic Dipole Moment: (a.u.)
     X:  -184.8518      Y:    24.6075      Z:   -35.0785

  Dipole Moment: (a.u.)
     X:     0.1096      Y:    -0.8248      Z:     0.4250     Total:     0.9343

  Dipole Moment: (Debye)
     X:     0.2786      Y:    -2.0964      Z:     1.0802     Total:     2.3747

  Quadrupole Moment: (Debye Ang)
    XX:   -25.7794     YY:   -21.2562     ZZ:   -21.9303
    XY:    -4.5640     XZ:     5.1847     YZ:    -2.5572

  Traceless Quadrupole Moment: (Debye Ang)
    XX:    -2.7907     YY:     1.7324     ZZ:     1.0583
    XY:    -4.5640     XZ:     5.1847     YZ:    -2.5572

  Mulliken Charges: (a.u.)
   Center  Symbol    Alpha    Beta     Spin     Total
       1     O     4.13842  4.13842  0.00000 -0.27685
       2     C     2.92446  2.92446  0.00000  0.15109
       3     C     2.95113  2.95113  0.00000  0.09774
       4     O     4.13888  4.13888  0.00000 -0.27777
       5     H     0.43175  0.43175  0.00000  0.13649
       6     H     0.48588  0.48588  0.00000  0.02823
       7     H     0.49695  0.49695  0.00000  0.00611
       8     H     0.50674  0.50674  0.00000 -0.01348
       9     H     0.49774  0.49774  0.00000  0.00453
      10     H     0.42805  0.42805  0.00000  0.14390

   Total alpha = 17.00000, Total beta = 17.00000, Total charge = -0.00000


*** Psi4 exiting successfully. Buy a developer a beer!
