    -----------------------------------------------------------------------
          Psi4: An Open-Source Ab Initio Electronic Structure Package
                              Psi4 (no tag) Driver

                          Git: Rev {detached?}  

    J. M. Turney, A. C. Simmonett, R. M. Parrish, E. G. Hohenstein,
    F. A. Evangelista, J. T. Fermann, B. J. Mintz, L. A. Burns, J. J. Wilke,
    M. L. Abrams, N. J. Russ, M. L. Leininger, C. L. Janssen, E. T. Seidl,
    W. D. Allen, H. F. Schaefer, R. A. King, E. F. Valeev, C. D. Sherrill,
    and T. D. Crawford, WIREs Comput. Mol. Sci. 2, 556-565 (2012)
    (doi: 10.1002/wcms.93)

                         Additional Contributions by
    A. E. DePrince, M. Saitow, U. Bozkaya, A. Yu. Sokolov
    -----------------------------------------------------------------------


    Psi4 started on: Tue Jul  5 16:41:18 2016

    Process ID:  24022
    PSI4DATADIR: /export131/home/mjharvey/miniconda3/share
    Memory level set to 256.000 MB

  ==> Input File <==

--------------------------------------------------------------------------
set {
	reference rhf
	basis 6-31G*
}


set_num_threads( 1 )
memory 2 gb

molecule MOL {
0 1

O	 1.675226	 -0.368710	 0.577590
C	 0.861134	 0.272526	 -0.014869
C	 -0.623889	 -0.118271	 -0.003699
C	 1.295079	 1.496672	 -0.801739
C	 -0.895332	 -1.256461	 -1.002431
C	 -1.473649	 1.103340	 -0.370799
C	 -0.983900	 -0.581483	 1.422328
H	 -0.615301	 -0.972064	 -2.012700
H	 -1.954261	 -1.493213	 -1.010207
H	 -0.360539	 -2.164946	 -0.747760
H	 -1.227476	 1.468527	 -1.361691
H	 -2.526716	 0.838935	 -0.358521
H	 -1.314819	 1.915855	 0.325860
H	 -2.039679	 -0.828001	 1.472951
H	 -0.427637	 -1.464071	 1.720694
H	 -0.789023	 0.202493	 2.147048
H	 1.071499	 2.392265	 -0.229562
H	 2.363722	 1.446878	 -0.958712
H	 0.787892	 1.583921	 -1.754823

	symmetry c1
}
ee = energy('scf')
oeprop('DIPOLE', 'QUADRUPOLE', 'MULLIKEN_CHARGES')
f=open( 'psi4out.xyz', 'w' )
f.write( "19  " )
f.write( str(ee) + "\n" )
f.write( MOL.save_string_xyz() )
f.close()
--------------------------------------------------------------------------

  Memory set to   2.000 GiB by Python script.

*** tstart() called on cx1-3-15-2.cx1.hpc.ic.ac.uk
*** at Tue Jul  5 16:41:19 2016


         ---------------------------------------------------------
                                   SCF
            by Justin Turney, Rob Parrish, and Andy Simmonett
                              RHF Reference
                        1 Threads,   2000 MiB Core
         ---------------------------------------------------------

  ==> Geometry <==

    Molecular point group: c1
    Full point group: C1

    Geometry (in Angstrom), charge = 0, multiplicity = 1:

       Center              X                  Y                   Z               Mass       
    ------------   -----------------  -----------------  -----------------  -----------------
           O          1.696596554061    -0.449117292311     0.605615943144    15.994914619560
           C          0.882504554061     0.192118707689     0.013156943144    12.000000000000
           C         -0.602518445939    -0.198678292311     0.024326943144    12.000000000000
           C          1.316449554061     1.416264707689    -0.773713056856    12.000000000000
           C         -0.873961445939    -1.336868292311    -0.974405056856    12.000000000000
           C         -1.452278445939     1.022932707689    -0.342773056856    12.000000000000
           C         -0.962529445939    -0.661890292311     1.450353943144    12.000000000000
           H         -0.593930445939    -1.052471292311    -1.984674056856     1.007825032070
           H         -1.932890445939    -1.573620292311    -0.982181056856     1.007825032070
           H         -0.339168445939    -2.245353292311    -0.719734056856     1.007825032070
           H         -1.206105445939     1.388119707689    -1.333665056856     1.007825032070
           H         -2.505345445939     0.758527707689    -0.330495056856     1.007825032070
           H         -1.293448445939     1.835447707689     0.353885943144     1.007825032070
           H         -2.018308445939    -0.908408292311     1.500976943144     1.007825032070
           H         -0.406266445939    -1.544478292311     1.748719943144     1.007825032070
           H         -0.767652445939     0.122085707689     2.175073943144     1.007825032070
           H          1.092869554061     2.311857707689    -0.201536056856     1.007825032070
           H          2.385092554061     1.366470707689    -0.930686056856     1.007825032070
           H          0.809262554061     1.503513707689    -1.726797056856     1.007825032070

  Running in c1 symmetry.

  Rotational constants: A =      0.10730  B =      0.07667  C =      0.06418 [cm^-1]
  Rotational constants: A =   3216.68826  B =   2298.61353  C =   1923.93457 [MHz]
  Nuclear repulsion =  326.369287288314354

  Charge       = 0
  Multiplicity = 1
  Electrons    = 56
  Nalpha       = 28
  Nbeta        = 28

  ==> Algorithm <==

  SCF Algorithm Type is DF.
  DIIS enabled.
  MOM disabled.
  Fractional occupation disabled.
  Guess Type is CORE.
  Energy threshold   = 1.00e-06
  Density threshold  = 1.00e-06
  Integral threshold = 0.00e+00

  ==> Primary Basis <==

  Basis Set: 6-31G*
    Number of shells: 66
    Number of basis function: 129
    Number of Cartesian functions: 129
    Spherical Harmonics?: false
    Max angular momentum: 2

  ==> Pre-Iterations <==

   -------------------------------------------------------
    Irrep   Nso     Nmo     Nalpha   Nbeta   Ndocc  Nsocc
   -------------------------------------------------------
     A        129     129       0       0       0       0
   -------------------------------------------------------
    Total     129     129      28      28      28       0
   -------------------------------------------------------

 OEINTS: Overlap, kinetic, potential, dipole, and quadrupole integrals
         stored in file 35.

  ==> Integral Setup <==

  ==> DFJK: Density-Fitted J/K Matrices <==

    J tasked:                  Yes
    K tasked:                  Yes
    wK tasked:                  No
    OpenMP threads:              1
    Integrals threads:           1
    Memory (MB):              1430
    Algorithm:                Core
    Integral Cache:           NONE
    Schwarz Cutoff:          1E-12
    Fitting Condition:       1E-12

   => Auxiliary Basis Set <=

  Basis Set: 
    Number of shells: 276
    Number of basis function: 867
    Number of Cartesian functions: 867
    Spherical Harmonics?: false
    Max angular momentum: 3

  Minimum eigenvalue in the overlap matrix is 2.9652058694E-03.
  Using Symmetric Orthogonalization.
  SCF Guess: Core (One-Electron) Hamiltonian.

  ==> Iterations <==

                           Total Energy        Delta E     RMS |[F,P]|

   @DF-RHF iter   1:  -208.60484039978371   -2.08605e+02   9.11977e-02 
   @DF-RHF iter   2:  -249.59293298197508   -4.09881e+01   4.18867e-02 DIIS
   @DF-RHF iter   3:  -237.36871662962983    1.22242e+01   6.86611e-02 DIIS
   @DF-RHF iter   4:  -289.50097113490131   -5.21323e+01   4.12224e-02 DIIS
   @DF-RHF iter   5:  -300.31406522903694   -1.08131e+01   2.96665e-02 DIIS
   @DF-RHF iter   6:  -305.61447049707795   -5.30041e+00   1.81069e-02 DIIS
   @DF-RHF iter   7:  -308.26265079042173   -2.64818e+00   8.54442e-03 DIIS
   @DF-RHF iter   8:  -308.96276355404837   -7.00113e-01   2.89666e-03 DIIS
   @DF-RHF iter   9:  -309.04739378052125   -8.46302e-02   1.22573e-03 DIIS
   @DF-RHF iter  10:  -309.05803845850892   -1.06447e-02   2.24147e-04 DIIS
   @DF-RHF iter  11:  -309.05922916919076   -1.19071e-03   1.20079e-04 DIIS
   @DF-RHF iter  12:  -309.05942467188777   -1.95503e-04   4.13000e-05 DIIS
   @DF-RHF iter  13:  -309.05946629667221   -4.16248e-05   1.28171e-05 DIIS
   @DF-RHF iter  14:  -309.05947013353375   -3.83686e-06   2.54259e-06 DIIS
   @DF-RHF iter  15:  -309.05947026321803   -1.29684e-07   7.13492e-07 DIIS

  ==> Post-Iterations <==

    Orbital Energies (a.u.)
    -----------------------

    Doubly Occupied:                                                      

       1A    -20.547639     2A    -11.322954     3A    -11.246462  
       4A    -11.226390     5A    -11.223258     6A    -11.221403  
       7A    -11.212889     8A     -1.394039     9A     -1.110508  
      10A     -1.003031    11A     -0.944063    12A     -0.936823  
      13A     -0.835628    14A     -0.703625    15A     -0.665813  
      16A     -0.631454    17A     -0.625456    18A     -0.590530  
      19A     -0.585302    20A     -0.569381    21A     -0.549210  
      22A     -0.545617    23A     -0.526149    24A     -0.512943  
      25A     -0.500409    26A     -0.472080    27A     -0.461600  
      28A     -0.391798  

    Virtual:                                                              

      29A      0.167033    30A      0.206880    31A      0.261397  
      32A      0.266628    33A      0.284276    34A      0.300901  
      35A      0.307510    36A      0.313441    37A      0.327630  
      38A      0.344886    39A      0.356069    40A      0.371262  
      41A      0.376129    42A      0.382807    43A      0.399598  
      44A      0.433012    45A      0.446969    46A      0.491148  
      47A      0.530259    48A      0.688309    49A      0.693654  
      50A      0.708628    51A      0.751763    52A      0.771178  
      53A      0.796692    54A      0.848378    55A      0.865259  
      56A      0.886166    57A      0.915191    58A      0.942599  
      59A      0.964641    60A      1.001124    61A      1.004978  
      62A      1.049464    63A      1.062506    64A      1.094550  
      65A      1.108172    66A      1.110753    67A      1.146642  
      68A      1.162427    69A      1.165077    70A      1.178674  
      71A      1.182939    72A      1.185612    73A      1.220552  
      74A      1.221462    75A      1.232973    76A      1.250371  
      77A      1.266541    78A      1.301230    79A      1.318950  
      80A      1.336828    81A      1.413397    82A      1.421411  
      83A      1.574232    84A      1.615754    85A      1.663752  
      86A      1.729712    87A      1.826156    88A      1.872891  
      89A      1.898679    90A      1.948788    91A      2.004280  
      92A      2.024658    93A      2.082339    94A      2.121220  
      95A      2.142126    96A      2.172145    97A      2.188318  
      98A      2.245331    99A      2.268682   100A      2.304196  
     101A      2.326921   102A      2.397122   103A      2.408505  
     104A      2.436686   105A      2.484728   106A      2.509195  
     107A      2.590908   108A      2.600677   109A      2.608695  
     110A      2.614612   111A      2.626128   112A      2.683394  
     113A      2.733999   114A      2.813179   115A      2.888587  
     116A      2.913457   117A      2.973747   118A      3.037266  
     119A      3.095198   120A      3.167644   121A      3.394167  
     122A      3.406020   123A      4.493802   124A      4.556560  
     125A      4.668756   126A      4.747797   127A      4.779247  
     128A      4.856349   129A      5.171206  

    Final Occupation by Irrep:
              A 
    DOCC [    28 ]

  Energy converged.

  @DF-RHF Final Energy:  -309.05947026321803

   => Energetics <=

    Nuclear Repulsion Energy =            326.3692872883143536
    One-Electron Energy =               -1065.7444349809049982
    Two-Electron Energy =                 430.3156774293727267
    DFT Exchange-Correlation Energy =       0.0000000000000000
    Empirical Dispersion Energy =           0.0000000000000000
    PCM Polarization Energy =               0.0000000000000000
    EFP Energy =                            0.0000000000000000
    Total Energy =                       -309.0594702632179178

    Alert: EFP and PCM quantities not currently incorporated into SCF psivars.

Properties will be evaluated at   0.000000,   0.000000,   0.000000 Bohr
  ==> Properties <==


Properties computed using the SCF density matrix

  Nuclear Dipole Moment: (a.u.)
     X:    -6.3440      Y:     1.8369      Z:    -2.2762

  Electronic Dipole Moment: (a.u.)
     X:     5.5082      Y:    -1.2776      Z:     1.7128

  Dipole Moment: (a.u.)
     X:    -0.8358      Y:     0.5592      Z:    -0.5634     Total:     1.1527

  Dipole Moment: (Debye)
     X:    -2.1244      Y:     1.4214      Z:    -1.4319     Total:     2.9298


  Saving occupied orbitals to File 180.

*** tstop() called on cx1-3-15-2.cx1.hpc.ic.ac.uk at Tue Jul  5 16:41:30 2016
Module time:
	user time   =      10.92 seconds =       0.18 minutes
	system time =       0.06 seconds =       0.00 minutes
	total time  =         11 seconds =       0.18 minutes
Total time:
	user time   =      10.92 seconds =       0.18 minutes
	system time =       0.06 seconds =       0.00 minutes
	total time  =         11 seconds =       0.18 minutes


Properties will be evaluated at   0.000000,   0.000000,   0.000000 Bohr

Properties computed using the  density matrix

  Nuclear Dipole Moment: (a.u.)
     X:    -6.3440      Y:     1.8369      Z:    -2.2762

  Electronic Dipole Moment: (a.u.)
     X:     5.5082      Y:    -1.2776      Z:     1.7128

  Dipole Moment: (a.u.)
     X:    -0.8358      Y:     0.5592      Z:    -0.5634     Total:     1.1527

  Dipole Moment: (Debye)
     X:    -2.1244      Y:     1.4214      Z:    -1.4319     Total:     2.9298

  Quadrupole Moment: (Debye Ang)
    XX:   -49.4119     YY:   -44.0330     ZZ:   -45.2744
    XY:     3.0390     XZ:    -2.6760     YZ:     0.7111

  Traceless Quadrupole Moment: (Debye Ang)
    XX:    -3.1721     YY:     2.2068     ZZ:     0.9654
    XY:     3.0390     XZ:    -2.6760     YZ:     0.7111

  Mulliken Charges: (a.u.)
   Center  Symbol    Alpha    Beta     Spin     Total
       1     O     4.26551  4.26551  0.00000 -0.53102
       2     C     2.72704  2.72704  0.00000  0.54592
       3     C     3.06390  3.06390  0.00000 -0.12779
       4     C     3.29149  3.29149  0.00000 -0.58299
       5     C     3.23585  3.23585  0.00000 -0.47170
       6     C     3.24164  3.24164  0.00000 -0.48328
       7     C     3.23157  3.23157  0.00000 -0.46314
       8     H     0.41961  0.41961  0.00000  0.16077
       9     H     0.41491  0.41491  0.00000  0.17017
      10     H     0.40612  0.40612  0.00000  0.18776
      11     H     0.41832  0.41832  0.00000  0.16335
      12     H     0.41367  0.41367  0.00000  0.17265
      13     H     0.41690  0.41690  0.00000  0.16620
      14     H     0.42158  0.42158  0.00000  0.15684
      15     H     0.40325  0.40325  0.00000  0.19350
      16     H     0.41897  0.41897  0.00000  0.16205
      17     H     0.40410  0.40410  0.00000  0.19180
      18     H     0.39554  0.39554  0.00000  0.20892
      19     H     0.41001  0.41001  0.00000  0.17999

   Total alpha = 28.00000, Total beta = 28.00000, Total charge =  0.00000


*** PSI4 exiting successfully. Buy a developer a beer!
