    -----------------------------------------------------------------------
          Psi4: An Open-Source Ab Initio Electronic Structure Package
                              Psi4 (no tag) Driver

                          Git: Rev {detached?}  

    J. M. Turney, A. C. Simmonett, R. M. Parrish, E. G. Hohenstein,
    F. A. Evangelista, J. T. Fermann, B. J. Mintz, L. A. Burns, J. J. Wilke,
    M. L. Abrams, N. J. Russ, M. L. Leininger, C. L. Janssen, E. T. Seidl,
    W. D. Allen, H. F. Schaefer, R. A. King, E. F. Valeev, C. D. Sherrill,
    and T. D. Crawford, WIREs Comput. Mol. Sci. 2, 556-565 (2012)
    (doi: 10.1002/wcms.93)

                         Additional Contributions by
    A. E. DePrince, M. Saitow, U. Bozkaya, A. Yu. Sokolov
    -----------------------------------------------------------------------


    Psi4 started on: Tue Jul  5 16:59:02 2016

    Process ID:  18285
    PSI4DATADIR: /export131/home/mjharvey/miniconda3/share
    Memory level set to 256.000 MB

  ==> Input File <==

--------------------------------------------------------------------------
set {
	reference rhf
	basis 6-31G*
}


set_num_threads( 1 )
memory 2 gb

molecule MOL {
0 1

H	 -2.482719	 -2.186854	 -0.776179
C	 -1.933021	 -1.322901	 -0.452459
C	 -2.589117	 -0.166966	 -0.064774
C	 -0.555413	 -1.354388	 -0.418523
H	 -3.663174	 -0.122582	 -0.084097
C	 -1.868731	 0.937565	 0.349694
H	 -0.018447	 -2.232234	 -0.711491
C	 0.154804	 -0.237046	 -0.000077
H	 -2.396374	 1.824953	 0.646732
C	 -0.476183	 0.946325	 0.398066
N	 1.611208	 -0.370857	 -0.000034
C	 0.209257	 2.210523	 0.868074
O	 2.274126	 0.622059	 -0.008063
O	 2.068510	 -1.474748	 0.007823
H	 0.863210	 2.614381	 0.107567
H	 -0.541914	 2.951963	 1.109700
H	 0.814864	 2.031623	 1.745775

	symmetry c1
}
ee = energy('scf')
oeprop('DIPOLE', 'QUADRUPOLE', 'MULLIKEN_CHARGES')
f=open( 'psi4out.xyz', 'w' )
f.write( "17  " )
f.write( str(ee) + "\n" )
f.write( MOL.save_string_xyz() )
f.close()
--------------------------------------------------------------------------

  Memory set to   2.000 GiB by Python script.

*** tstart() called on cx1-3-4-1.cx1.hpc.ic.ac.uk
*** at Tue Jul  5 16:59:02 2016


         ---------------------------------------------------------
                                   SCF
            by Justin Turney, Rob Parrish, and Andy Simmonett
                              RHF Reference
                        1 Threads,   2000 MiB Core
         ---------------------------------------------------------

  ==> Geometry <==

    Molecular point group: c1
    Full point group: C1

    Geometry (in Angstrom), charge = 0, multiplicity = 1:

       Center              X                  Y                   Z               Mass       
    ------------   -----------------  -----------------  -----------------  -----------------
           H         -2.481540268116    -2.174047976213    -0.850676077953     1.007825032070
           C         -1.931842268116    -1.310094976213    -0.526956077953    12.000000000000
           C         -2.587938268116    -0.154159976213    -0.139271077953    12.000000000000
           C         -0.554234268116    -1.341581976213    -0.493020077953    12.000000000000
           H         -3.661995268116    -0.109775976213    -0.158594077953     1.007825032070
           C         -1.867552268116     0.950371023787     0.275196922047    12.000000000000
           H         -0.017268268116    -2.219427976213    -0.785988077953     1.007825032070
           C          0.155982731884    -0.224239976213    -0.074574077953    12.000000000000
           H         -2.395195268116     1.837759023787     0.572234922047     1.007825032070
           C         -0.475004268116     0.959131023787     0.323568922047    12.000000000000
           N          1.612386731884    -0.358050976213    -0.074531077953    14.003074004780
           C          0.210435731884     2.223329023787     0.793576922047    12.000000000000
           O          2.275304731884     0.634865023787    -0.082560077953    15.994914619560
           O          2.069688731884    -1.461941976213    -0.066674077953    15.994914619560
           H          0.864388731884     2.627187023787     0.033069922047     1.007825032070
           H         -0.540735268116     2.964769023787     1.035202922047     1.007825032070
           H          0.816042731884     2.044429023787     1.671277922047     1.007825032070

  Running in c1 symmetry.

  Rotational constants: A =      0.07607  B =      0.04272  C =      0.02781 [cm^-1]
  Rotational constants: A =   2280.45851  B =   1280.64296  C =    833.79058 [MHz]
  Nuclear repulsion =  509.346963807619318

  Charge       = 0
  Multiplicity = 1
  Electrons    = 72
  Nalpha       = 36
  Nbeta        = 36

  ==> Algorithm <==

  SCF Algorithm Type is DF.
  DIIS enabled.
  MOM disabled.
  Fractional occupation disabled.
  Guess Type is CORE.
  Energy threshold   = 1.00e-06
  Density threshold  = 1.00e-06
  Integral threshold = 0.00e+00

  ==> Primary Basis <==

  Basis Set: 6-31G*
    Number of shells: 74
    Number of basis function: 164
    Number of Cartesian functions: 164
    Spherical Harmonics?: false
    Max angular momentum: 2

  ==> Pre-Iterations <==

   -------------------------------------------------------
    Irrep   Nso     Nmo     Nalpha   Nbeta   Ndocc  Nsocc
   -------------------------------------------------------
     A        164     164       0       0       0       0
   -------------------------------------------------------
    Total     164     164      36      36      36       0
   -------------------------------------------------------

 OEINTS: Overlap, kinetic, potential, dipole, and quadrupole integrals
         stored in file 35.

  ==> Integral Setup <==

  ==> DFJK: Density-Fitted J/K Matrices <==

    J tasked:                  Yes
    K tasked:                  Yes
    wK tasked:                  No
    OpenMP threads:              1
    Integrals threads:           1
    Memory (MB):              1430
    Algorithm:                Core
    Integral Cache:           NONE
    Schwarz Cutoff:          1E-12
    Fitting Condition:       1E-12

   => Auxiliary Basis Set <=

  Basis Set: 
    Number of shells: 303
    Number of basis function: 985
    Number of Cartesian functions: 985
    Spherical Harmonics?: false
    Max angular momentum: 3

  Minimum eigenvalue in the overlap matrix is 3.7585905056E-04.
  Using Symmetric Orthogonalization.
  SCF Guess: Core (One-Electron) Hamiltonian.

  ==> Iterations <==

                           Total Energy        Delta E     RMS |[F,P]|

   @DF-RHF iter   1:  -359.04068771490972   -3.59041e+02   6.73676e-02 
   @DF-RHF iter   2:  -293.12039465567693    6.59203e+01   5.82952e-02 DIIS
   @DF-RHF iter   3:  -354.79977076985733   -6.16794e+01   6.11985e-02 DIIS
   @DF-RHF iter   4:  -447.45911469484315   -9.26593e+01   3.95063e-02 DIIS
   @DF-RHF iter   5:  -456.90807069342452   -9.44896e+00   3.06213e-02 DIIS
   @DF-RHF iter   6:  -471.27359489205730   -1.43655e+01   9.25584e-03 DIIS
   @DF-RHF iter   7:  -472.70614347938988   -1.43255e+00   5.66646e-03 DIIS
   @DF-RHF iter   8:  -473.17438229287109   -4.68239e-01   1.25804e-03 DIIS
   @DF-RHF iter   9:  -473.19965772394255   -2.52754e-02   5.89038e-04 DIIS
   @DF-RHF iter  10:  -473.20418887007907   -4.53115e-03   3.50223e-04 DIIS
   @DF-RHF iter  11:  -473.20604439343015   -1.85552e-03   1.13775e-04 DIIS
   @DF-RHF iter  12:  -473.20630680566364   -2.62412e-04   4.03517e-05 DIIS
   @DF-RHF iter  13:  -473.20634379717580   -3.69915e-05   1.15225e-05 DIIS
   @DF-RHF iter  14:  -473.20634955165485   -5.75448e-06   5.15529e-06 DIIS
   @DF-RHF iter  15:  -473.20635063742236   -1.08577e-06   2.64301e-06 DIIS
   @DF-RHF iter  16:  -473.20635090972894   -2.72307e-07   8.88738e-07 DIIS

  ==> Post-Iterations <==

    Orbital Energies (a.u.)
    -----------------------

    Doubly Occupied:                                                      

       1A    -20.598671     2A    -20.597031     3A    -15.853093  
       4A    -11.301699     5A    -11.283160     6A    -11.266362  
       7A    -11.264118     8A    -11.254028     9A    -11.253105  
      10A    -11.233461    11A     -1.631868    12A     -1.413345  
      13A     -1.199408    14A     -1.091403    15A     -1.071941  
      16A     -0.979846    17A     -0.930910    18A     -0.847193  
      19A     -0.822330    20A     -0.768886    21A     -0.731298  
      22A     -0.725170    23A     -0.693539    24A     -0.662814  
      25A     -0.637751    26A     -0.598259    27A     -0.590017  
      28A     -0.562806    29A     -0.540940    30A     -0.520201  
      31A     -0.519009    32A     -0.485150    33A     -0.477782  
      34A     -0.447760    35A     -0.369238    36A     -0.353523  

    Virtual:                                                              

      37A      0.066515    38A      0.123473    39A      0.172838  
      40A      0.224822    41A      0.256984    42A      0.278640  
      43A      0.304199    44A      0.311652    45A      0.314692  
      46A      0.336798    47A      0.374137    48A      0.389970  
      49A      0.402051    50A      0.456107    51A      0.478582  
      52A      0.501277    53A      0.529202    54A      0.535056  
      55A      0.609971    56A      0.678694    57A      0.700108  
      58A      0.711641    59A      0.722950    60A      0.747356  
      61A      0.761306    62A      0.792871    63A      0.799840  
      64A      0.809750    65A      0.818986    66A      0.827208  
      67A      0.837800    68A      0.853219    69A      0.889490  
      70A      0.899299    71A      0.919777    72A      0.947835  
      73A      0.980532    74A      0.984846    75A      1.036861  
      76A      1.051745    77A      1.076271    78A      1.082422  
      79A      1.090796    80A      1.101846    81A      1.145240  
      82A      1.151292    83A      1.169268    84A      1.180190  
      85A      1.202879    86A      1.221032    87A      1.239734  
      88A      1.265176    89A      1.271400    90A      1.298562  
      91A      1.305303    92A      1.315309    93A      1.323304  
      94A      1.384620    95A      1.437977    96A      1.451902  
      97A      1.464904    98A      1.510128    99A      1.536613  
     100A      1.591670   101A      1.637957   102A      1.641792  
     103A      1.674602   104A      1.695294   105A      1.712438  
     106A      1.738053   107A      1.751009   108A      1.757327  
     109A      1.866145   110A      1.945303   111A      2.008656  
     112A      2.041965   113A      2.047665   114A      2.089789  
     115A      2.114279   116A      2.131726   117A      2.141965  
     118A      2.172684   119A      2.217986   120A      2.241885  
     121A      2.269476   122A      2.276456   123A      2.283820  
     124A      2.358186   125A      2.382633   126A      2.427305  
     127A      2.446611   128A      2.469246   129A      2.471550  
     130A      2.478809   131A      2.529850   132A      2.549611  
     133A      2.587918   134A      2.621077   135A      2.635770  
     136A      2.699485   137A      2.722174   138A      2.800624  
     139A      2.862425   140A      2.928822   141A      2.936749  
     142A      2.978319   143A      2.986661   144A      3.039849  
     145A      3.094892   146A      3.106305   147A      3.127412  
     148A      3.195642   149A      3.253225   150A      3.289220  
     151A      3.314419   152A      3.491613   153A      3.611818  
     154A      3.821105   155A      4.174440   156A      4.326797  
     157A      4.411849   158A      4.503687   159A      4.529803  
     160A      4.546082   161A      4.684235   162A      4.772936  
     163A      4.811665   164A      5.137786  

    Final Occupation by Irrep:
              A 
    DOCC [    36 ]

  Energy converged.

  @DF-RHF Final Energy:  -473.20635090972894

   => Energetics <=

    Nuclear Repulsion Energy =            509.3469638076193178
    One-Electron Energy =               -1653.9525460188415309
    Two-Electron Energy =                 671.3992313014933870
    DFT Exchange-Correlation Energy =       0.0000000000000000
    Empirical Dispersion Energy =           0.0000000000000000
    PCM Polarization Energy =               0.0000000000000000
    EFP Energy =                            0.0000000000000000
    Total Energy =                       -473.2063509097287124

    Alert: EFP and PCM quantities not currently incorporated into SCF psivars.

Properties will be evaluated at   0.000000,   0.000000,   0.000000 Bohr
  ==> Properties <==


Properties computed using the SCF density matrix

  Nuclear Dipole Moment: (a.u.)
     X:    -6.9364      Y:     4.6571      Z:     1.4212

  Electronic Dipole Moment: (a.u.)
     X:     5.0658      Y:    -4.3428      Z:    -1.3928

  Dipole Moment: (a.u.)
     X:    -1.8705      Y:     0.3143      Z:     0.0284     Total:     1.8969

  Dipole Moment: (Debye)
     X:    -4.7544      Y:     0.7988      Z:     0.0721     Total:     4.8216


  Saving occupied orbitals to File 180.

*** tstop() called on cx1-3-4-1.cx1.hpc.ic.ac.uk at Tue Jul  5 16:59:25 2016
Module time:
	user time   =      22.17 seconds =       0.37 minutes
	system time =       0.25 seconds =       0.00 minutes
	total time  =         23 seconds =       0.38 minutes
Total time:
	user time   =      22.17 seconds =       0.37 minutes
	system time =       0.25 seconds =       0.00 minutes
	total time  =         23 seconds =       0.38 minutes


Properties will be evaluated at   0.000000,   0.000000,   0.000000 Bohr

Properties computed using the  density matrix

  Nuclear Dipole Moment: (a.u.)
     X:    -6.9364      Y:     4.6571      Z:     1.4212

  Electronic Dipole Moment: (a.u.)
     X:     5.0658      Y:    -4.3428      Z:    -1.3928

  Dipole Moment: (a.u.)
     X:    -1.8705      Y:     0.3143      Z:     0.0284     Total:     1.8969

  Dipole Moment: (Debye)
     X:    -4.7544      Y:     0.7988      Z:     0.0721     Total:     4.8216

  Quadrupole Moment: (Debye Ang)
    XX:   -61.3806     YY:   -54.8197     ZZ:   -58.0300
    XY:     2.1891     XZ:     0.8129     YZ:     3.3214

  Traceless Quadrupole Moment: (Debye Ang)
    XX:    -3.3038     YY:     3.2571     ZZ:     0.0467
    XY:     2.1891     XZ:     0.8129     YZ:     3.3214

  Mulliken Charges: (a.u.)
   Center  Symbol    Alpha    Beta     Spin     Total
       1     H     0.38929  0.38929  0.00000  0.22141
       2     C     3.11212  3.11212  0.00000 -0.22424
       3     C     3.08079  3.08079  0.00000 -0.16159
       4     C     3.08374  3.08374  0.00000 -0.16747
       5     H     0.38951  0.38951  0.00000  0.22097
       6     C     3.12604  3.12604  0.00000 -0.25209
       7     H     0.36493  0.36493  0.00000  0.27014
       8     C     2.93219  2.93219  0.00000  0.13562
       9     H     0.39276  0.39276  0.00000  0.21447
      10     C     2.96269  2.96269  0.00000  0.07462
      11     N     3.25017  3.25017  0.00000  0.49966
      12     C     3.23948  3.23948  0.00000 -0.47895
      13     O     4.23436  4.23436  0.00000 -0.46873
      14     O     4.23345  4.23345  0.00000 -0.46690
      15     H     0.39203  0.39203  0.00000  0.21595
      16     H     0.41438  0.41438  0.00000  0.17124
      17     H     0.40206  0.40206  0.00000  0.19588

   Total alpha = 36.00000, Total beta = 36.00000, Total charge = -0.00000


*** PSI4 exiting successfully. Buy a developer a beer!
