    -----------------------------------------------------------------------
          Psi4: An Open-Source Ab Initio Electronic Structure Package
                              Psi4 (no tag) Driver

                          Git: Rev {detached?}  

    J. M. Turney, A. C. Simmonett, R. M. Parrish, E. G. Hohenstein,
    F. A. Evangelista, J. T. Fermann, B. J. Mintz, L. A. Burns, J. J. Wilke,
    M. L. Abrams, N. J. Russ, M. L. Leininger, C. L. Janssen, E. T. Seidl,
    W. D. Allen, H. F. Schaefer, R. A. King, E. F. Valeev, C. D. Sherrill,
    and T. D. Crawford, WIREs Comput. Mol. Sci. 2, 556-565 (2012)
    (doi: 10.1002/wcms.93)

                         Additional Contributions by
    A. E. DePrince, M. Saitow, U. Bozkaya, A. Yu. Sokolov
    -----------------------------------------------------------------------


    Psi4 started on: Tue Jul  5 16:40:13 2016

    Process ID:   1584
    PSI4DATADIR: /export131/home/mjharvey/miniconda3/share
    Memory level set to 256.000 MB

  ==> Input File <==

--------------------------------------------------------------------------
set {
	reference rhf
	basis 6-31G*
}


set_num_threads( 1 )
memory 2 gb

molecule MOL {
0 1

H	 3.083879	 -1.346558	 0.395444
O	 2.172668	 -1.603300	 0.415122
C	 1.365383	 -0.540424	 0.207814
C	 0.090883	 -0.456295	 0.753594
C	 1.849641	 0.488680	 -0.580772
H	 -0.284071	 -1.258271	 1.367010
C	 -0.697804	 0.655754	 0.510714
H	 2.833907	 0.424960	 -1.002951
C	 1.053619	 1.598477	 -0.819012
H	 -1.682430	 0.709553	 0.938494
C	 -0.221903	 1.688907	 -0.276209
C	 1.567698	 2.707687	 -1.665326
H	 -0.832810	 2.553612	 -0.466163
O	 2.693969	 2.808307	 -2.034019
H	 0.822337	 3.459096	 -1.942942

	symmetry c1
}
set optking {
	frozen_dihedral = ("
		11 9 12 14
	")
}

ee = energy('scf')
oeprop('DIPOLE', 'QUADRUPOLE', 'MULLIKEN_CHARGES')
f=open( 'psi4out.xyz', 'w' )
f.write( "15  " )
f.write( str(ee) + "\n" )
f.write( MOL.save_string_xyz() )
f.close()
--------------------------------------------------------------------------

  Memory set to   2.000 GiB by Python script.

*** tstart() called on cx1-3-16-3.cx1.hpc.ic.ac.uk
*** at Tue Jul  5 16:40:14 2016


         ---------------------------------------------------------
                                   SCF
            by Justin Turney, Rob Parrish, and Andy Simmonett
                              RHF Reference
                        1 Threads,   2000 MiB Core
         ---------------------------------------------------------

  ==> Geometry <==

    Molecular point group: c1
    Full point group: C1

    Geometry (in Angstrom), charge = 0, multiplicity = 1:

       Center              X                  Y                   Z               Mass       
    ------------   -----------------  -----------------  -----------------  -----------------
           H          1.921087774759    -2.146032985316     0.797299538668     1.007825032070
           O          1.009876774759    -2.402774985316     0.816977538668    15.994914619560
           C          0.202591774759    -1.339898985316     0.609669538668    12.000000000000
           C         -1.071908225241    -1.255769985316     1.155449538668    12.000000000000
           C          0.686849774759    -0.310794985316    -0.178916461332    12.000000000000
           H         -1.446862225241    -2.057745985316     1.768865538668     1.007825032070
           C         -1.860595225241    -0.143720985316     0.912569538668    12.000000000000
           H          1.671115774759    -0.374514985316    -0.601095461332     1.007825032070
           C         -0.109172225241     0.799002014684    -0.417156461332    12.000000000000
           H         -2.845221225241    -0.089921985316     1.340349538668     1.007825032070
           C         -1.384694225241     0.889432014684     0.125646538668    12.000000000000
           C          0.404906774759     1.908212014684    -1.263470461332    12.000000000000
           H         -1.995601225241     1.754137014684    -0.064307461332     1.007825032070
           O          1.531177774759     2.008832014684    -1.632163461332    15.994914619560
           H         -0.340454225241     2.659621014684    -1.541086461332     1.007825032070

  Running in c1 symmetry.

  Rotational constants: A =      0.09753  B =      0.04416  C =      0.03044 [cm^-1]
  Rotational constants: A =   2923.95135  B =   1323.76312  C =    912.61050 [MHz]
  Nuclear repulsion =  403.436913182202602

  Charge       = 0
  Multiplicity = 1
  Electrons    = 64
  Nalpha       = 32
  Nbeta        = 32

  ==> Algorithm <==

  SCF Algorithm Type is DF.
  DIIS enabled.
  MOM disabled.
  Fractional occupation disabled.
  Guess Type is CORE.
  Energy threshold   = 1.00e-06
  Density threshold  = 1.00e-06
  Integral threshold = 0.00e+00

  ==> Primary Basis <==

  Basis Set: 6-31G*
    Number of shells: 66
    Number of basis function: 147
    Number of Cartesian functions: 147
    Spherical Harmonics?: false
    Max angular momentum: 2

  ==> Pre-Iterations <==

   -------------------------------------------------------
    Irrep   Nso     Nmo     Nalpha   Nbeta   Ndocc  Nsocc
   -------------------------------------------------------
     A        147     147       0       0       0       0
   -------------------------------------------------------
    Total     147     147      32      32      32       0
   -------------------------------------------------------

 OEINTS: Overlap, kinetic, potential, dipole, and quadrupole integrals
         stored in file 35.

  ==> Integral Setup <==

  ==> DFJK: Density-Fitted J/K Matrices <==

    J tasked:                  Yes
    K tasked:                  Yes
    wK tasked:                  No
    OpenMP threads:              1
    Integrals threads:           1
    Memory (MB):              1430
    Algorithm:                Core
    Integral Cache:           NONE
    Schwarz Cutoff:          1E-12
    Fitting Condition:       1E-12

   => Auxiliary Basis Set <=

  Basis Set: 
    Number of shells: 270
    Number of basis function: 879
    Number of Cartesian functions: 879
    Spherical Harmonics?: false
    Max angular momentum: 3

  Minimum eigenvalue in the overlap matrix is 4.1756486656E-04.
  Using Symmetric Orthogonalization.
  SCF Guess: Core (One-Electron) Hamiltonian.

  ==> Iterations <==

                           Total Energy        Delta E     RMS |[F,P]|

   @DF-RHF iter   1:  -346.35763339753112   -3.46358e+02   6.08878e-02 
   @DF-RHF iter   2:  -329.26658766643220    1.70910e+01   5.05230e-02 DIIS
   @DF-RHF iter   3:  -321.66695452962074    7.59963e+00   5.92581e-02 DIIS
   @DF-RHF iter   4:  -412.39549427244037   -9.07285e+01   2.00279e-02 DIIS
   @DF-RHF iter   5:  -413.45860226267405   -1.06311e+00   1.78687e-02 DIIS
   @DF-RHF iter   6:  -418.12600786162704   -4.66741e+00   3.44787e-03 DIIS
   @DF-RHF iter   7:  -418.24701453492207   -1.21007e-01   1.81820e-03 DIIS
   @DF-RHF iter   8:  -418.28052904493438   -3.35145e-02   3.83588e-04 DIIS
   @DF-RHF iter   9:  -418.28354594440657   -3.01690e-03   1.50497e-04 DIIS
   @DF-RHF iter  10:  -418.28389477546523   -3.48831e-04   8.51744e-05 DIIS
   @DF-RHF iter  11:  -418.28400685923498   -1.12084e-04   3.78834e-05 DIIS
   @DF-RHF iter  12:  -418.28404493016205   -3.80709e-05   1.08581e-05 DIIS
   @DF-RHF iter  13:  -418.28404980598089   -4.87582e-06   4.99997e-06 DIIS
   @DF-RHF iter  14:  -418.28405097567452   -1.16969e-06   2.37342e-06 DIIS
   @DF-RHF iter  15:  -418.28405136352046   -3.87846e-07   7.78200e-07 DIIS

  ==> Post-Iterations <==

    Orbital Energies (a.u.)
    -----------------------

    Doubly Occupied:                                                      

       1A    -20.596567     2A    -20.567261     3A    -11.335168  
       4A    -11.311308     5A    -11.253424     6A    -11.252226  
       7A    -11.248258     8A    -11.247456     9A    -11.243630  
      10A     -1.418428    11A     -1.408116    12A     -1.170147  
      13A     -1.049675    14A     -1.026090    15A     -0.900122  
      16A     -0.852404    17A     -0.797974    18A     -0.752877  
      19A     -0.702484    20A     -0.670844    21A     -0.660277  
      22A     -0.631160    23A     -0.616508    24A     -0.606069  
      25A     -0.566246    26A     -0.550770    27A     -0.532152  
      28A     -0.515967    29A     -0.486956    30A     -0.425330  
      31A     -0.353735    32A     -0.329619  

    Virtual:                                                              

      33A      0.082192    34A      0.140381    35A      0.220344  
      36A      0.222389    37A      0.237933    38A      0.268268  
      39A      0.310111    40A      0.310578    41A      0.331594  
      42A      0.375609    43A      0.404469    44A      0.450745  
      45A      0.460697    46A      0.486805    47A      0.493209  
      48A      0.571443    49A      0.591264    50A      0.677475  
      51A      0.713783    52A      0.723032    53A      0.731581  
      54A      0.757488    55A      0.765444    56A      0.798827  
      57A      0.813766    58A      0.819685    59A      0.847911  
      60A      0.852429    61A      0.858606    62A      0.881521  
      63A      0.897956    64A      0.939931    65A      0.992572  
      66A      1.007265    67A      1.016976    68A      1.043812  
      69A      1.076516    70A      1.090091    71A      1.099082  
      72A      1.125153    73A      1.137440    74A      1.167918  
      75A      1.178729    76A      1.189329    77A      1.210395  
      78A      1.227160    79A      1.264398    80A      1.285998  
      81A      1.296598    82A      1.348061    83A      1.378901  
      84A      1.392832    85A      1.420285    86A      1.464409  
      87A      1.495877    88A      1.514425    89A      1.529402  
      90A      1.602927    91A      1.638780    92A      1.669318  
      93A      1.718211    94A      1.726286    95A      1.746289  
      96A      1.753228    97A      1.820423    98A      1.840238  
      99A      1.909756   100A      2.030566   101A      2.043169  
     102A      2.049763   103A      2.084293   104A      2.094483  
     105A      2.140043   106A      2.178232   107A      2.231759  
     108A      2.253251   109A      2.272960   110A      2.295210  
     111A      2.304678   112A      2.353859   113A      2.388052  
     114A      2.419159   115A      2.467778   116A      2.491716  
     117A      2.559333   118A      2.603475   119A      2.621475  
     120A      2.638960   121A      2.668816   122A      2.738814  
     123A      2.776104   124A      2.851773   125A      2.892918  
     126A      2.906033   127A      2.965983   128A      3.004508  
     129A      3.036652   130A      3.044156   131A      3.112981  
     132A      3.156588   133A      3.221518   134A      3.308758  
     135A      3.341746   136A      3.419660   137A      3.551570  
     138A      3.833834   139A      4.323927   140A      4.346933  
     141A      4.512329   142A      4.531482   143A      4.609128  
     144A      4.636779   145A      4.777381   146A      4.874270  
     147A      5.183637  

    Final Occupation by Irrep:
              A 
    DOCC [    32 ]

  Energy converged.

  @DF-RHF Final Energy:  -418.28405136352046

   => Energetics <=

    Nuclear Repulsion Energy =            403.4369131822026020
    One-Electron Energy =               -1369.2834638565630030
    Two-Electron Energy =                 547.5624993108382341
    DFT Exchange-Correlation Energy =       0.0000000000000000
    Empirical Dispersion Energy =           0.0000000000000000
    PCM Polarization Energy =               0.0000000000000000
    EFP Energy =                            0.0000000000000000
    Total Energy =                       -418.2840513635221669

    Alert: EFP and PCM quantities not currently incorporated into SCF psivars.

Properties will be evaluated at   0.000000,   0.000000,   0.000000 Bohr
  ==> Properties <==


Properties computed using the SCF density matrix

  Nuclear Dipole Moment: (a.u.)
     X:    -2.8339      Y:    -0.2404      Z:     1.5898

  Electronic Dipole Moment: (a.u.)
     X:     2.1169      Y:     0.2033      Z:    -1.0297

  Dipole Moment: (a.u.)
     X:    -0.7169      Y:    -0.0372      Z:     0.5601     Total:     0.9106

  Dipole Moment: (Debye)
     X:    -1.8223      Y:    -0.0945      Z:     1.4237     Total:     2.3144


  Saving occupied orbitals to File 180.

*** tstop() called on cx1-3-16-3.cx1.hpc.ic.ac.uk at Tue Jul  5 16:40:32 2016
Module time:
	user time   =      18.17 seconds =       0.30 minutes
	system time =       0.11 seconds =       0.00 minutes
	total time  =         18 seconds =       0.30 minutes
Total time:
	user time   =      18.17 seconds =       0.30 minutes
	system time =       0.11 seconds =       0.00 minutes
	total time  =         18 seconds =       0.30 minutes


Properties will be evaluated at   0.000000,   0.000000,   0.000000 Bohr

Properties computed using the  density matrix

  Nuclear Dipole Moment: (a.u.)
     X:    -2.8339      Y:    -0.2404      Z:     1.5898

  Electronic Dipole Moment: (a.u.)
     X:     2.1169      Y:     0.2033      Z:    -1.0297

  Dipole Moment: (a.u.)
     X:    -0.7169      Y:    -0.0372      Z:     0.5601     Total:     0.9106

  Dipole Moment: (Debye)
     X:    -1.8223      Y:    -0.0945      Z:     1.4237     Total:     2.3144

  Quadrupole Moment: (Debye Ang)
    XX:   -46.9547     YY:   -55.5270     ZZ:   -54.4285
    XY:    -7.9925     XZ:     2.7190     YZ:     1.2475

  Traceless Quadrupole Moment: (Debye Ang)
    XX:     5.3487     YY:    -3.2236     ZZ:    -2.1251
    XY:    -7.9925     XZ:     2.7190     YZ:     1.2475

  Mulliken Charges: (a.u.)
   Center  Symbol    Alpha    Beta     Spin     Total
       1     H     0.26766  0.26766  0.00000  0.46468
       2     O     4.38164  4.38164  0.00000 -0.76328
       3     C     2.79117  2.79117  0.00000  0.41766
       4     C     3.11530  3.11530  0.00000 -0.23060
       5     C     3.13430  3.13430  0.00000 -0.26859
       6     H     0.38683  0.38683  0.00000  0.22634
       7     C     3.09657  3.09657  0.00000 -0.19313
       8     H     0.38098  0.38098  0.00000  0.23803
       9     C     3.04619  3.04619  0.00000 -0.09237
      10     H     0.39197  0.39197  0.00000  0.21605
      11     C     3.11354  3.11354  0.00000 -0.22708
      12     C     2.83318  2.83318  0.00000  0.33365
      13     H     0.39278  0.39278  0.00000  0.21444
      14     O     4.24660  4.24660  0.00000 -0.49321
      15     H     0.42129  0.42129  0.00000  0.15742

   Total alpha = 32.00000, Total beta = 32.00000, Total charge = -0.00000


*** PSI4 exiting successfully. Buy a developer a beer!
