    -----------------------------------------------------------------------
          Psi4: An Open-Source Ab Initio Electronic Structure Package
                              Psi4 (no tag) Driver

                          Git: Rev {detached?}  

    J. M. Turney, A. C. Simmonett, R. M. Parrish, E. G. Hohenstein,
    F. A. Evangelista, J. T. Fermann, B. J. Mintz, L. A. Burns, J. J. Wilke,
    M. L. Abrams, N. J. Russ, M. L. Leininger, C. L. Janssen, E. T. Seidl,
    W. D. Allen, H. F. Schaefer, R. A. King, E. F. Valeev, C. D. Sherrill,
    and T. D. Crawford, WIREs Comput. Mol. Sci. 2, 556-565 (2012)
    (doi: 10.1002/wcms.93)

                         Additional Contributions by
    A. E. DePrince, M. Saitow, U. Bozkaya, A. Yu. Sokolov
    -----------------------------------------------------------------------


    Psi4 started on: Tue Jul  5 17:36:33 2016

    Process ID:  23010
    PSI4DATADIR: /export131/home/mjharvey/miniconda3/share
    Memory level set to 256.000 MB

  ==> Input File <==

--------------------------------------------------------------------------
set {
	reference rhf
	basis 6-31G*
}


set_num_threads( 1 )
memory 2 gb

molecule MOL {
0 1

H	 -0.516443	 -2.540800	 0.997818
O	 0.141052	 -2.643897	 0.316770
C	 0.102382	 -1.563045	 -0.462125
C	 0.624473	 -0.343591	 0.253101
O	 -0.302492	 -1.603202	 -1.578136
C	 -0.265902	 0.883932	 0.072916
H	 0.740303	 -0.614115	 1.297502
H	 1.628992	 -0.158063	 -0.118751
C	 -1.728698	 0.646073	 0.462102
H	 -0.209144	 1.219470	 -0.958188
H	 0.135059	 1.692851	 0.673903
C	 -1.933463	 -0.055758	 1.807637
H	 -2.191054	 0.043809	 -0.316529
H	 -2.262759	 1.595242	 0.465784
C	 -1.105121	 0.571202	 2.928908
H	 -2.987870	 -0.018849	 2.073919
H	 -1.675047	 -1.108293	 1.725337
H	 -1.265435	 0.056496	 3.871082
H	 -1.367390	 1.615363	 3.073030
H	 -0.043259	 0.525961	 2.703877

	symmetry c1
}
set optking {
	frozen_dihedral = ("
		16 12 9 6,
		7 4 6 10,
		12 9 6 10,
		5 3 4 7
	")
}

ee = energy('scf')
oeprop('DIPOLE', 'QUADRUPOLE', 'MULLIKEN_CHARGES')
f=open( 'psi4out.xyz', 'w' )
f.write( "20  " )
f.write( str(ee) + "\n" )
f.write( MOL.save_string_xyz() )
f.close()
--------------------------------------------------------------------------

  Memory set to   2.000 GiB by Python script.

*** tstart() called on cx1-1-1-2.cx1.hpc.ic.ac.uk
*** at Tue Jul  5 17:36:33 2016


         ---------------------------------------------------------
                                   SCF
            by Justin Turney, Rob Parrish, and Andy Simmonett
                              RHF Reference
                        1 Threads,   2000 MiB Core
         ---------------------------------------------------------

  ==> Geometry <==

    Molecular point group: c1
    Full point group: C1

    Geometry (in Angstrom), charge = 0, multiplicity = 1:

       Center              X                  Y                   Z               Mass       
    ------------   -----------------  -----------------  -----------------  -----------------
           H          0.037903198762    -1.989998526525     0.513813816644     1.007825032070
           O          0.695398198762    -2.093095526525    -0.167234183356    15.994914619560
           C          0.656728198762    -1.012243526525    -0.946129183356    12.000000000000
           C          1.178819198762     0.207210473475    -0.230903183356    12.000000000000
           O          0.251854198762    -1.052400526525    -2.062140183356    15.994914619560
           C          0.288444198762     1.434733473475    -0.411088183356    12.000000000000
           H          1.294649198762    -0.063313526525     0.813497816644     1.007825032070
           H          2.183338198762     0.392738473475    -0.602755183356     1.007825032070
           C         -1.174351801238     1.196874473475    -0.021902183356    12.000000000000
           H          0.345202198762     1.770271473475    -1.442192183356     1.007825032070
           H          0.689405198762     2.243652473475     0.189898816644     1.007825032070
           C         -1.379116801238     0.495043473475     1.323632816644    12.000000000000
           H         -1.636707801238     0.594610473475    -0.800533183356     1.007825032070
           H         -1.708412801238     2.146043473475    -0.018220183356     1.007825032070
           C         -0.550774801238     1.122003473475     2.444903816644    12.000000000000
           H         -2.433523801238     0.531952473475     1.589914816644     1.007825032070
           H         -1.120700801238    -0.557491526525     1.241332816644     1.007825032070
           H         -0.711088801238     0.607297473475     3.387077816644     1.007825032070
           H         -0.813043801238     2.166164473475     2.589025816644     1.007825032070
           H          0.511087198762     1.076762473475     2.219872816644     1.007825032070

  Running in c1 symmetry.

  Rotational constants: A =      0.10422  B =      0.04403  C =      0.03928 [cm^-1]
  Rotational constants: A =   3124.41625  B =   1319.96269  C =   1177.53407 [MHz]
  Nuclear repulsion =  402.471651993450962

  Charge       = 0
  Multiplicity = 1
  Electrons    = 64
  Nalpha       = 32
  Nbeta        = 32

  ==> Algorithm <==

  SCF Algorithm Type is DF.
  DIIS enabled.
  MOM disabled.
  Fractional occupation disabled.
  Guess Type is CORE.
  Energy threshold   = 1.00e-06
  Density threshold  = 1.00e-06
  Integral threshold = 0.00e+00

  ==> Primary Basis <==

  Basis Set: 6-31G*
    Number of shells: 72
    Number of basis function: 144
    Number of Cartesian functions: 144
    Spherical Harmonics?: false
    Max angular momentum: 2

  ==> Pre-Iterations <==

   -------------------------------------------------------
    Irrep   Nso     Nmo     Nalpha   Nbeta   Ndocc  Nsocc
   -------------------------------------------------------
     A        144     144       0       0       0       0
   -------------------------------------------------------
    Total     144     144      32      32      32       0
   -------------------------------------------------------

 OEINTS: Overlap, kinetic, potential, dipole, and quadrupole integrals
         stored in file 35.

  ==> Integral Setup <==

  ==> DFJK: Density-Fitted J/K Matrices <==

    J tasked:                  Yes
    K tasked:                  Yes
    wK tasked:                  No
    OpenMP threads:              1
    Integrals threads:           1
    Memory (MB):              1430
    Algorithm:                Core
    Integral Cache:           NONE
    Schwarz Cutoff:          1E-12
    Fitting Condition:       1E-12

   => Auxiliary Basis Set <=

  Basis Set: 
    Number of shells: 300
    Number of basis function: 948
    Number of Cartesian functions: 948
    Spherical Harmonics?: false
    Max angular momentum: 3

  Minimum eigenvalue in the overlap matrix is 3.0088322796E-03.
  Using Symmetric Orthogonalization.
  SCF Guess: Core (One-Electron) Hamiltonian.

  ==> Iterations <==

                           Total Energy        Delta E     RMS |[F,P]|

   @DF-RHF iter   1:  -300.60581043321639   -3.00606e+02   6.37885e-02 
   @DF-RHF iter   2:  -152.79747791964627    1.47808e+02   8.55347e-02 DIIS
   @DF-RHF iter   3:  -352.73195431339985   -1.99934e+02   3.10161e-02 DIIS
   @DF-RHF iter   4:  -258.98748031512713    9.37445e+01   8.11243e-02 DIIS
   @DF-RHF iter   5:  -305.46163799365485   -4.64742e+01   6.29712e-02 DIIS
   @DF-RHF iter   6:  -341.26134949560054   -3.57997e+01   4.94742e-02 DIIS
   @DF-RHF iter   7:  -353.60277678561300   -1.23414e+01   3.91304e-02 DIIS
   @DF-RHF iter   8:  -370.28379144633760   -1.66810e+01   2.63049e-02 DIIS
   @DF-RHF iter   9:  -382.93552989335950   -1.26517e+01   8.97792e-03 DIIS
   @DF-RHF iter  10:  -383.72275126926633   -7.87221e-01   4.23289e-03 DIIS
   @DF-RHF iter  11:  -383.89167180138242   -1.68921e-01   1.22148e-03 DIIS
   @DF-RHF iter  12:  -383.91157480094631   -1.99030e-02   4.45498e-04 DIIS
   @DF-RHF iter  13:  -383.91450290088261   -2.92810e-03   1.66963e-04 DIIS
   @DF-RHF iter  14:  -383.91494483368450   -4.41933e-04   3.45340e-05 DIIS
   @DF-RHF iter  15:  -383.91497573466171   -3.09010e-05   1.22514e-05 DIIS
   @DF-RHF iter  16:  -383.91497891314083   -3.17848e-06   5.23507e-06 DIIS
   @DF-RHF iter  17:  -383.91497962501700   -7.11876e-07   1.96654e-06 DIIS
   @DF-RHF iter  18:  -383.91497978925412   -1.64237e-07   7.71906e-07 DIIS

  ==> Post-Iterations <==

    Orbital Energies (a.u.)
    -----------------------

    Doubly Occupied:                                                      

       1A    -20.597441     2A    -20.556104     3A    -11.378267  
       4A    -11.241027     5A    -11.238119     6A    -11.232753  
       7A    -11.227442     8A    -11.224122     9A     -1.466540  
      10A     -1.367920    11A     -1.110272    12A     -1.042585  
      13A     -0.963587    14A     -0.886177    15A     -0.825890  
      16A     -0.779831    17A     -0.714210    18A     -0.682392  
      19A     -0.659971    20A     -0.641635    21A     -0.634970  
      22A     -0.598676    23A     -0.575265    24A     -0.553104  
      25A     -0.533077    26A     -0.531597    27A     -0.503599  
      28A     -0.493779    29A     -0.476687    30A     -0.469643  
      31A     -0.464714    32A     -0.437559  

    Virtual:                                                              

      33A      0.169769    34A      0.184822    35A      0.233534  
      36A      0.254903    37A      0.279359    38A      0.283370  
      39A      0.299380    40A      0.313263    41A      0.323745  
      42A      0.332865    43A      0.348551    44A      0.370585  
      45A      0.373654    46A      0.388728    47A      0.407431  
      48A      0.424162    49A      0.454306    50A      0.495249  
      51A      0.534512    52A      0.584684    53A      0.691087  
      54A      0.702099    55A      0.715103    56A      0.737112  
      57A      0.761051    58A      0.776444    59A      0.835474  
      60A      0.855815    61A      0.886835    62A      0.910024  
      63A      0.918957    64A      0.938412    65A      0.955504  
      66A      0.962932    67A      1.001518    68A      1.036149  
      69A      1.051196    70A      1.079409    71A      1.097714  
      72A      1.121309    73A      1.125068    74A      1.150348  
      75A      1.166811    76A      1.180405    77A      1.186539  
      78A      1.202652    79A      1.217170    80A      1.223914  
      81A      1.233646    82A      1.252984    83A      1.267956  
      84A      1.298272    85A      1.314485    86A      1.323679  
      87A      1.361151    88A      1.377004    89A      1.426002  
      90A      1.478354    91A      1.514639    92A      1.646990  
      93A      1.654750    94A      1.714276    95A      1.736868  
      96A      1.758277    97A      1.854830    98A      1.872436  
      99A      1.907783   100A      1.923526   101A      2.011301  
     102A      2.022884   103A      2.058864   104A      2.102438  
     105A      2.112170   106A      2.128253   107A      2.139002  
     108A      2.212094   109A      2.263871   110A      2.268251  
     111A      2.298872   112A      2.305687   113A      2.341648  
     114A      2.358933   115A      2.411758   116A      2.431455  
     117A      2.495060   118A      2.565868   119A      2.623547  
     120A      2.659887   121A      2.663323   122A      2.688997  
     123A      2.716735   124A      2.743630   125A      2.789076  
     126A      2.819126   127A      2.865018   128A      2.885586  
     129A      2.960027   130A      2.997074   131A      3.040660  
     132A      3.110233   133A      3.158921   134A      3.252326  
     135A      3.384712   136A      3.485350   137A      4.317979  
     138A      4.529680   139A      4.604354   140A      4.688110  
     141A      4.766226   142A      4.840753   143A      4.918367  
     144A      5.039346  

    Final Occupation by Irrep:
              A 
    DOCC [    32 ]

  Energy converged.

  @DF-RHF Final Energy:  -383.91497978925412

   => Energetics <=

    Nuclear Repulsion Energy =            402.4716519934509620
    One-Electron Energy =               -1320.5553544732324553
    Two-Electron Energy =                 534.1687226905266925
    DFT Exchange-Correlation Energy =       0.0000000000000000
    Empirical Dispersion Energy =           0.0000000000000000
    PCM Polarization Energy =               0.0000000000000000
    EFP Energy =                            0.0000000000000000
    Total Energy =                       -383.9149797892548577

    Alert: EFP and PCM quantities not currently incorporated into SCF psivars.

Properties will be evaluated at   0.000000,   0.000000,   0.000000 Bohr
  ==> Properties <==


Properties computed using the SCF density matrix

  Nuclear Dipole Moment: (a.u.)
     X:    -3.1471      Y:     8.3459      Z:     9.0647

  Electronic Dipole Moment: (a.u.)
     X:     3.0178      Y:    -7.5466      Z:    -7.7164

  Dipole Moment: (a.u.)
     X:    -0.1294      Y:     0.7993      Z:     1.3483     Total:     1.5727

  Dipole Moment: (Debye)
     X:    -0.3288      Y:     2.0315      Z:     3.4271     Total:     3.9975


  Saving occupied orbitals to File 180.

*** tstop() called on cx1-1-1-2.cx1.hpc.ic.ac.uk at Tue Jul  5 17:36:52 2016
Module time:
	user time   =      17.98 seconds =       0.30 minutes
	system time =       0.24 seconds =       0.00 minutes
	total time  =         19 seconds =       0.32 minutes
Total time:
	user time   =      17.98 seconds =       0.30 minutes
	system time =       0.24 seconds =       0.00 minutes
	total time  =         19 seconds =       0.32 minutes


Properties will be evaluated at   0.000000,   0.000000,   0.000000 Bohr

Properties computed using the  density matrix

  Nuclear Dipole Moment: (a.u.)
     X:    -3.1471      Y:     8.3459      Z:     9.0647

  Electronic Dipole Moment: (a.u.)
     X:     3.0178      Y:    -7.5466      Z:    -7.7164

  Dipole Moment: (a.u.)
     X:    -0.1294      Y:     0.7993      Z:     1.3483     Total:     1.5727

  Dipole Moment: (Debye)
     X:    -0.3288      Y:     2.0315      Z:     3.4271     Total:     3.9975

  Quadrupole Moment: (Debye Ang)
    XX:   -48.3790     YY:   -53.6849     ZZ:   -56.8605
    XY:     2.0772     XZ:    -1.2353     YZ:    -5.2356

  Traceless Quadrupole Moment: (Debye Ang)
    XX:     4.5958     YY:    -0.7101     ZZ:    -3.8857
    XY:     2.0772     XZ:    -1.2353     YZ:    -5.2356

  Mulliken Charges: (a.u.)
   Center  Symbol    Alpha    Beta     Spin     Total
       1     H     0.25763  0.25763  0.00000  0.48475
       2     O     4.36244  4.36244  0.00000 -0.72488
       3     C     2.62819  2.62819  0.00000  0.74363
       4     C     3.22353  3.22353  0.00000 -0.44707
       5     O     4.25477  4.25477  0.00000 -0.50953
       6     C     3.15890  3.15890  0.00000 -0.31780
       7     H     0.40734  0.40734  0.00000  0.18532
       8     H     0.39211  0.39211  0.00000  0.21578
       9     C     3.16790  3.16790  0.00000 -0.33580
      10     H     0.40229  0.40229  0.00000  0.19541
      11     H     0.41432  0.41432  0.00000  0.17135
      12     C     3.15436  3.15436  0.00000 -0.30871
      13     H     0.40600  0.40600  0.00000  0.18799
      14     H     0.41474  0.41474  0.00000  0.17052
      15     C     3.24409  3.24409  0.00000 -0.48817
      16     H     0.41047  0.41047  0.00000  0.17906
      17     H     0.44914  0.44914  0.00000  0.10172
      18     H     0.41620  0.41620  0.00000  0.16760
      19     H     0.41652  0.41652  0.00000  0.16695
      20     H     0.41905  0.41905  0.00000  0.16189

   Total alpha = 32.00000, Total beta = 32.00000, Total charge = -0.00000


*** PSI4 exiting successfully. Buy a developer a beer!
