    -----------------------------------------------------------------------
          Psi4: An Open-Source Ab Initio Electronic Structure Package
                              Psi4 (no tag) Driver

                          Git: Rev {detached?}  

    J. M. Turney, A. C. Simmonett, R. M. Parrish, E. G. Hohenstein,
    F. A. Evangelista, J. T. Fermann, B. J. Mintz, L. A. Burns, J. J. Wilke,
    M. L. Abrams, N. J. Russ, M. L. Leininger, C. L. Janssen, E. T. Seidl,
    W. D. Allen, H. F. Schaefer, R. A. King, E. F. Valeev, C. D. Sherrill,
    and T. D. Crawford, WIREs Comput. Mol. Sci. 2, 556-565 (2012)
    (doi: 10.1002/wcms.93)

                         Additional Contributions by
    A. E. DePrince, M. Saitow, U. Bozkaya, A. Yu. Sokolov
    -----------------------------------------------------------------------


    Psi4 started on: Tue Jul  5 17:08:42 2016

    Process ID:  17840
    PSI4DATADIR: /export131/home/mjharvey/miniconda3/share
    Memory level set to 256.000 MB

  ==> Input File <==

--------------------------------------------------------------------------
set {
	reference rhf
	basis 6-31G*
}


set_num_threads( 1 )
memory 2 gb

molecule MOL {
0 1

H	 -2.646374	 -0.642757	 1.268656
C	 -2.083525	 -0.384536	 0.393091
O	 -0.807605	 -0.127164	 0.768327
F	 -2.118945	 -1.383102	 -0.486752
F	 -2.621877	 0.670592	 -0.209486
C	 0.084052	 0.273579	 -0.209957
C	 -0.059566	 -0.703388	 -1.369728
Cl	 1.743859	 0.268290	 0.408288
H	 -0.125472	 1.264157	 -0.574141
F	 0.391274	 -1.891728	 -1.028070
F	 0.661900	 -0.267849	 -2.383252
F	 -1.303359	 -0.821544	 -1.765951

	symmetry c1
}
set optking {
	frozen_dihedral = ("
		10 7 6 9,
		6 3 2 4
	")
}

ee = energy('scf')
oeprop('DIPOLE', 'QUADRUPOLE', 'MULLIKEN_CHARGES')
f=open( 'psi4out.xyz', 'w' )
f.write( "12  " )
f.write( str(ee) + "\n" )
f.write( MOL.save_string_xyz() )
f.close()
--------------------------------------------------------------------------

  Memory set to   2.000 GiB by Python script.

*** tstart() called on cx1-3-4-4.cx1.hpc.ic.ac.uk
*** at Tue Jul  5 17:08:42 2016


         ---------------------------------------------------------
                                   SCF
            by Justin Turney, Rob Parrish, and Andy Simmonett
                              RHF Reference
                        1 Threads,   2000 MiB Core
         ---------------------------------------------------------

  ==> Geometry <==

    Molecular point group: c1
    Full point group: C1

    Geometry (in Angstrom), charge = 0, multiplicity = 1:

       Center              X                  Y                   Z               Mass       
    ------------   -----------------  -----------------  -----------------  -----------------
           H         -2.242724420232    -0.251548696098     1.804390375497     1.007825032070
           C         -1.679875420232     0.006672303902     0.928825375497    12.000000000000
           O         -0.403955420232     0.264044303902     1.304061375497    15.994914619560
           F         -1.715295420232    -0.991893696098     0.048982375497    18.998403224000
           F         -2.218227420232     1.061800303902     0.326248375497    18.998403224000
           C          0.487701579768     0.664787303902     0.325777375497    12.000000000000
           C          0.344083579768    -0.312179696098    -0.833993624503    12.000000000000
          CL          2.147508579768     0.659498303902     0.944022375497    34.968852682000
           H          0.278177579768     1.655365303902    -0.038406624503     1.007825032070
           F          0.794923579768    -1.500519696098    -0.492335624503    18.998403224000
           F          1.065549579768     0.123359303902    -1.847517624503    18.998403224000
           F         -0.899709420232    -0.430335696098    -1.230216624503    18.998403224000

  Running in c1 symmetry.

  Rotational constants: A =      0.05777  B =      0.03471  C =      0.02711 [cm^-1]
  Rotational constants: A =   1731.75748  B =   1040.46670  C =    812.68061 [MHz]
  Nuclear repulsion =  779.389377496027464

  Charge       = 0
  Multiplicity = 1
  Electrons    = 90
  Nalpha       = 45
  Nbeta        = 45

  ==> Algorithm <==

  SCF Algorithm Type is DF.
  DIIS enabled.
  MOM disabled.
  Fractional occupation disabled.
  Guess Type is CORE.
  Energy threshold   = 1.00e-06
  Density threshold  = 1.00e-06
  Integral threshold = 0.00e+00

  ==> Primary Basis <==

  Basis Set: 6-31G*
    Number of shells: 66
    Number of basis function: 158
    Number of Cartesian functions: 158
    Spherical Harmonics?: false
    Max angular momentum: 2

  ==> Pre-Iterations <==

   -------------------------------------------------------
    Irrep   Nso     Nmo     Nalpha   Nbeta   Ndocc  Nsocc
   -------------------------------------------------------
     A        158     158       0       0       0       0
   -------------------------------------------------------
    Total     158     158      45      45      45       0
   -------------------------------------------------------

 OEINTS: Overlap, kinetic, potential, dipole, and quadrupole integrals
         stored in file 35.

  ==> Integral Setup <==

  ==> DFJK: Density-Fitted J/K Matrices <==

    J tasked:                  Yes
    K tasked:                  Yes
    wK tasked:                  No
    OpenMP threads:              1
    Integrals threads:           1
    Memory (MB):              1430
    Algorithm:                Core
    Integral Cache:           NONE
    Schwarz Cutoff:          1E-12
    Fitting Condition:       1E-12

   => Auxiliary Basis Set <=

  Basis Set: 
    Number of shells: 270
    Number of basis function: 909
    Number of Cartesian functions: 909
    Spherical Harmonics?: false
    Max angular momentum: 3

  Minimum eigenvalue in the overlap matrix is 1.3850264159E-03.
  Using Symmetric Orthogonalization.
  SCF Guess: Core (One-Electron) Hamiltonian.

  ==> Iterations <==

                           Total Energy        Delta E     RMS |[F,P]|

   @DF-RHF iter   1: -1050.49566370323964   -1.05050e+03   7.28605e-02 
   @DF-RHF iter   2:  -870.61330509849495    1.79882e+02   8.14057e-02 DIIS
   @DF-RHF iter   3: -1050.23613927353085   -1.79623e+02   5.99637e-02 DIIS
   @DF-RHF iter   4: -1093.40620841767304   -4.31701e+01   4.31760e-02 DIIS
   @DF-RHF iter   5: -1117.35250787234213   -2.39463e+01   4.01072e-02 DIIS
   @DF-RHF iter   6: -1140.53304463819268   -2.31805e+01   1.87760e-02 DIIS
   @DF-RHF iter   7: -1145.64559359665623   -5.11255e+00   6.88457e-03 DIIS
   @DF-RHF iter   8: -1146.04876384334489   -4.03170e-01   3.25242e-03 DIIS
   @DF-RHF iter   9: -1146.12220148172582   -7.34376e-02   1.92150e-03 DIIS
   @DF-RHF iter  10: -1146.15286122615180   -3.06597e-02   9.91112e-04 DIIS
   @DF-RHF iter  11: -1146.16282225951727   -9.96103e-03   4.29118e-04 DIIS
   @DF-RHF iter  12: -1146.16503213019996   -2.20987e-03   9.22991e-05 DIIS
   @DF-RHF iter  13: -1146.16514714128516   -1.15011e-04   2.08321e-05 DIIS
   @DF-RHF iter  14: -1146.16515476719087   -7.62591e-06   6.72764e-06 DIIS
   @DF-RHF iter  15: -1146.16515571397440   -9.46784e-07   1.75219e-06 DIIS
   @DF-RHF iter  16: -1146.16515577145196   -5.74776e-08   6.52981e-07 DIIS

  ==> Post-Iterations <==

    Orbital Energies (a.u.)
    -----------------------

    Doubly Occupied:                                                      

       1A   -104.851818     2A    -26.350165     3A    -26.350059  
       4A    -26.344288     5A    -26.328762     6A    -26.307599  
       7A    -20.644598     8A    -11.518433     9A    -11.483851  
      10A    -11.399345    11A    -10.585917    12A     -8.055324  
      13A     -8.051710    14A     -8.051587    15A     -1.774566  
      16A     -1.717365    17A     -1.666805    18A     -1.648870  
      19A     -1.610110    20A     -1.485281    21A     -1.181169  
      22A     -1.042122    23A     -1.005009    24A     -0.917442  
      25A     -0.882977    26A     -0.852567    27A     -0.837524  
      28A     -0.824700    29A     -0.818232    30A     -0.771966  
      31A     -0.744477    32A     -0.714846    33A     -0.709780  
      34A     -0.694926    35A     -0.668910    36A     -0.658805  
      37A     -0.658527    38A     -0.645815    39A     -0.639887  
      40A     -0.621126    41A     -0.551619    42A     -0.533473  
      43A     -0.517673    44A     -0.483709    45A     -0.470236  

    Virtual:                                                              

      46A      0.165751    47A      0.243898    48A      0.262951  
      49A      0.284719    50A      0.353504    51A      0.382494  
      52A      0.402313    53A      0.417078    54A      0.444281  
      55A      0.478433    56A      0.489949    57A      0.550499  
      58A      0.622370    59A      0.628224    60A      0.633129  
      61A      0.689413    62A      0.702878    63A      0.711810  
      64A      0.752705    65A      0.767831    66A      0.776895  
      67A      0.805691    68A      0.829527    69A      0.930302  
      70A      0.997626    71A      1.042956    72A      1.072481  
      73A      1.095325    74A      1.120676    75A      1.149238  
      76A      1.163038    77A      1.184719    78A      1.237135  
      79A      1.279107    80A      1.303277    81A      1.330929  
      82A      1.345854    83A      1.366187    84A      1.396102  
      85A      1.434301    86A      1.446044    87A      1.485930  
      88A      1.503617    89A      1.549929    90A      1.597618  
      91A      1.614736    92A      1.621399    93A      1.637291  
      94A      1.647579    95A      1.666969    96A      1.687957  
      97A      1.706841    98A      1.722931    99A      1.746072  
     100A      1.818055   101A      1.835944   102A      1.896895  
     103A      1.940632   104A      1.963846   105A      1.979779  
     106A      2.016663   107A      2.032239   108A      2.056986  
     109A      2.074347   110A      2.095445   111A      2.117729  
     112A      2.133368   113A      2.168063   114A      2.202314  
     115A      2.254778   116A      2.258567   117A      2.269927  
     118A      2.309351   119A      2.333963   120A      2.352748  
     121A      2.374446   122A      2.422934   123A      2.431150  
     124A      2.466171   125A      2.474668   126A      2.528041  
     127A      2.539270   128A      2.609292   129A      2.626324  
     130A      2.667861   131A      2.725901   132A      2.768985  
     133A      2.836012   134A      2.894077   135A      2.985889  
     136A      3.068269   137A      3.086214   138A      3.148291  
     139A      3.182102   140A      3.222688   141A      3.256160  
     142A      3.372931   143A      3.413361   144A      3.440236  
     145A      3.451305   146A      3.498527   147A      3.548597  
     148A      3.821423   149A      4.377974   150A      4.550231  
     151A      4.724344   152A      4.743196   153A      4.808160  
     154A      4.963593   155A      5.177841   156A      5.669778  
     157A      5.873324   158A      6.705016  

    Final Occupation by Irrep:
              A 
    DOCC [    45 ]

  Energy converged.

  @DF-RHF Final Energy: -1146.16515577145196

   => Energetics <=

    Nuclear Repulsion Energy =            779.3893774960274641
    One-Electron Energy =               -3141.7612252430631088
    Two-Electron Energy =                1216.2066919755839081
    DFT Exchange-Correlation Energy =       0.0000000000000000
    Empirical Dispersion Energy =           0.0000000000000000
    PCM Polarization Energy =               0.0000000000000000
    EFP Energy =                            0.0000000000000000
    Total Energy =                      -1146.1651557714517367

    Alert: EFP and PCM quantities not currently incorporated into SCF psivars.

Properties will be evaluated at   0.000000,   0.000000,   0.000000 Bohr
  ==> Properties <==


Properties computed using the SCF density matrix

  Nuclear Dipole Moment: (a.u.)
     X:    -1.0052      Y:     2.3527      Z:     3.8115

  Electronic Dipole Moment: (a.u.)
     X:     0.5583      Y:    -1.9305      Z:    -3.3654

  Dipole Moment: (a.u.)
     X:    -0.4469      Y:     0.4222      Z:     0.4461     Total:     0.7596

  Dipole Moment: (Debye)
     X:    -1.1358      Y:     1.0732      Z:     1.1339     Total:     1.9307


  Saving occupied orbitals to File 180.

*** tstop() called on cx1-3-4-4.cx1.hpc.ic.ac.uk at Tue Jul  5 17:09:03 2016
Module time:
	user time   =      20.14 seconds =       0.34 minutes
	system time =       0.27 seconds =       0.00 minutes
	total time  =         21 seconds =       0.35 minutes
Total time:
	user time   =      20.14 seconds =       0.34 minutes
	system time =       0.27 seconds =       0.00 minutes
	total time  =         21 seconds =       0.35 minutes


Properties will be evaluated at   0.000000,   0.000000,   0.000000 Bohr

Properties computed using the  density matrix

  Nuclear Dipole Moment: (a.u.)
     X:    -1.0052      Y:     2.3527      Z:     3.8115

  Electronic Dipole Moment: (a.u.)
     X:     0.5583      Y:    -1.9305      Z:    -3.3654

  Dipole Moment: (a.u.)
     X:    -0.4469      Y:     0.4222      Z:     0.4461     Total:     0.7596

  Dipole Moment: (Debye)
     X:    -1.1358      Y:     1.0732      Z:     1.1339     Total:     1.9307

  Quadrupole Moment: (Debye Ang)
    XX:   -59.7163     YY:   -59.9412     ZZ:   -60.4060
    XY:     1.2721     XZ:    -3.5027     YZ:    -1.0972

  Traceless Quadrupole Moment: (Debye Ang)
    XX:     0.3048     YY:     0.0800     ZZ:    -0.3848
    XY:     1.2721     XZ:    -3.5027     YZ:    -1.0972

  Mulliken Charges: (a.u.)
   Center  Symbol    Alpha    Beta     Spin     Total
       1     H     0.39790  0.39790  0.00000  0.20419
       2     C     2.55834  2.55834  0.00000  0.88331
       3     O     4.30755  4.30755  0.00000 -0.61510
       4     F     4.68306  4.68306  0.00000 -0.36612
       5     F     4.69274  4.69274  0.00000 -0.38547
       6     C     3.03729  3.03729  0.00000 -0.07459
       7     C     2.44821  2.44821  0.00000  1.10357
       8    CL     8.48620  8.48620  0.00000  0.02760
       9     H     0.36956  0.36956  0.00000  0.26089
      10     F     4.67402  4.67402  0.00000 -0.34804
      11     F     4.67820  4.67820  0.00000 -0.35639
      12     F     4.66693  4.66693  0.00000 -0.33386

   Total alpha = 45.00000, Total beta = 45.00000, Total charge =  0.00000


*** PSI4 exiting successfully. Buy a developer a beer!
