    -----------------------------------------------------------------------
          Psi4: An Open-Source Ab Initio Electronic Structure Package
                              Psi4 (no tag) Driver

                          Git: Rev {detached?}  

    J. M. Turney, A. C. Simmonett, R. M. Parrish, E. G. Hohenstein,
    F. A. Evangelista, J. T. Fermann, B. J. Mintz, L. A. Burns, J. J. Wilke,
    M. L. Abrams, N. J. Russ, M. L. Leininger, C. L. Janssen, E. T. Seidl,
    W. D. Allen, H. F. Schaefer, R. A. King, E. F. Valeev, C. D. Sherrill,
    and T. D. Crawford, WIREs Comput. Mol. Sci. 2, 556-565 (2012)
    (doi: 10.1002/wcms.93)

                         Additional Contributions by
    A. E. DePrince, M. Saitow, U. Bozkaya, A. Yu. Sokolov
    -----------------------------------------------------------------------


    Psi4 started on: Tue Jul  5 16:22:57 2016

    Process ID:  25904
    PSI4DATADIR: /export131/home/mjharvey/miniconda3/share
    Memory level set to 256.000 MB

  ==> Input File <==

--------------------------------------------------------------------------
set {
	reference rhf
	basis 6-31G*
}


set_num_threads( 1 )
memory 2 gb

molecule MOL {
0 1

H	 -0.367348	 2.047014	 -0.308205
C	 0.352277	 1.337084	 0.083769
N	 -0.000016	 0.000074	 -0.335546
H	 1.328359	 1.600444	 -0.307950
H	 0.381933	 1.450534	 1.172486
C	 1.123466	 -0.905092	 -0.253482
C	 -1.152164	 -0.503385	 0.376662
H	 0.841594	 -1.877196	 -0.641959
H	 1.942976	 -0.529739	 -0.855957
H	 1.489404	 -1.041756	 0.769403
H	 -1.993780	 0.164999	 0.234114
H	 -1.429183	 -1.476466	 -0.012969
H	 -0.979215	 -0.605692	 1.453022

	symmetry c1
}
ee = energy('scf')
oeprop('DIPOLE', 'QUADRUPOLE', 'MULLIKEN_CHARGES')
f=open( 'psi4out.xyz', 'w' )
f.write( "13  " )
f.write( str(ee) + "\n" )
f.write( MOL.save_string_xyz() )
f.close()
--------------------------------------------------------------------------

  Memory set to   2.000 GiB by Python script.

*** tstart() called on cx1-3-1-3.cx1.hpc.ic.ac.uk
*** at Tue Jul  5 16:22:57 2016


         ---------------------------------------------------------
                                   SCF
            by Justin Turney, Rob Parrish, and Andy Simmonett
                              RHF Reference
                        1 Threads,   2000 MiB Core
         ---------------------------------------------------------

  ==> Geometry <==

    Molecular point group: c1
    Full point group: C1

    Geometry (in Angstrom), charge = 0, multiplicity = 1:

       Center              X                  Y                   Z               Mass       
    ------------   -----------------  -----------------  -----------------  -----------------
           H         -0.453799105680     2.066068800942    -0.296329126764     1.007825032070
           C          0.265825894320     1.356138800942     0.095644873236    12.000000000000
           N         -0.086467105680     0.019128800942    -0.323670126764    14.003074004780
           H          1.241907894320     1.619498800942    -0.296074126764     1.007825032070
           H          0.295481894320     1.469588800942     1.184361873236     1.007825032070
           C          1.037014894320    -0.886037199058    -0.241606126764    12.000000000000
           C         -1.238615105680    -0.484330199058     0.388537873236    12.000000000000
           H          0.755142894320    -1.858141199058    -0.630083126764     1.007825032070
           H          1.856524894320    -0.510684199058    -0.844081126764     1.007825032070
           H          1.402952894320    -1.022701199058     0.781278873236     1.007825032070
           H         -2.080231105680     0.184053800942     0.245989873236     1.007825032070
           H         -1.515634105680    -1.457411199058    -0.001093126764     1.007825032070
           H         -1.065666105680    -0.586637199058     1.464897873236     1.007825032070

  Running in c1 symmetry.

  Rotational constants: A =      0.29343  B =      0.29336  C =      0.16560 [cm^-1]
  Rotational constants: A =   8796.90472  B =   8794.58846  C =   4964.44737 [MHz]
  Nuclear repulsion =  139.294689371309175

  Charge       = 0
  Multiplicity = 1
  Electrons    = 34
  Nalpha       = 17
  Nbeta        = 17

  ==> Algorithm <==

  SCF Algorithm Type is DF.
  DIIS enabled.
  MOM disabled.
  Fractional occupation disabled.
  Guess Type is CORE.
  Energy threshold   = 1.00e-06
  Density threshold  = 1.00e-06
  Integral threshold = 0.00e+00

  ==> Primary Basis <==

  Basis Set: 6-31G*
    Number of shells: 42
    Number of basis function: 78
    Number of Cartesian functions: 78
    Spherical Harmonics?: false
    Max angular momentum: 2

  ==> Pre-Iterations <==

   -------------------------------------------------------
    Irrep   Nso     Nmo     Nalpha   Nbeta   Ndocc  Nsocc
   -------------------------------------------------------
     A         78      78       0       0       0       0
   -------------------------------------------------------
    Total      78      78      17      17      17       0
   -------------------------------------------------------

 OEINTS: Overlap, kinetic, potential, dipole, and quadrupole integrals
         stored in file 35.

  ==> Integral Setup <==

  ==> DFJK: Density-Fitted J/K Matrices <==

    J tasked:                  Yes
    K tasked:                  Yes
    wK tasked:                  No
    OpenMP threads:              1
    Integrals threads:           1
    Memory (MB):              1430
    Algorithm:                Core
    Integral Cache:           NONE
    Schwarz Cutoff:          1E-12
    Fitting Condition:       1E-12

   => Auxiliary Basis Set <=

  Basis Set: 
    Number of shells: 177
    Number of basis function: 549
    Number of Cartesian functions: 549
    Spherical Harmonics?: false
    Max angular momentum: 3

  Minimum eigenvalue in the overlap matrix is 6.4035927416E-03.
  Using Symmetric Orthogonalization.
  SCF Guess: Core (One-Electron) Hamiltonian.

  ==> Iterations <==

                           Total Energy        Delta E     RMS |[F,P]|

   @DF-RHF iter   1:  -136.61323949367790   -1.36613e+02   8.44003e-02 
   @DF-RHF iter   2:  -146.70394715374186   -1.00907e+01   5.28006e-02 DIIS
   @DF-RHF iter   3:  -169.41372802629979   -2.27098e+01   3.70985e-02 DIIS
   @DF-RHF iter   4:  -172.17995117663776   -2.76622e+00   1.92178e-02 DIIS
   @DF-RHF iter   5:  -173.22816301658855   -1.04821e+00   3.43071e-03 DIIS
   @DF-RHF iter   6:  -173.26569167971462   -3.75287e-02   9.23840e-04 DIIS
   @DF-RHF iter   7:  -173.26793152015512   -2.23984e-03   1.01953e-04 DIIS
   @DF-RHF iter   8:  -173.26799580564210   -6.42855e-05   3.84908e-05 DIIS
   @DF-RHF iter   9:  -173.26800229735983   -6.49172e-06   8.45038e-06 DIIS
   @DF-RHF iter  10:  -173.26800276719496   -4.69835e-07   2.57419e-06 DIIS
   @DF-RHF iter  11:  -173.26800279890455   -3.17096e-08   7.30251e-07 DIIS

  ==> Post-Iterations <==

    Orbital Energies (a.u.)
    -----------------------

    Doubly Occupied:                                                      

       1A    -15.543216     2A    -11.235917     3A    -11.235677  
       4A    -11.235491     5A     -1.225331     6A     -0.951944  
       7A     -0.951239     8A     -0.806447     9A     -0.641287  
      10A     -0.631446    11A     -0.629223    12A     -0.546653  
      13A     -0.543387    14A     -0.516623    15A     -0.501584  
      16A     -0.500113    17A     -0.346118  

    Virtual:                                                              

      18A      0.225082    19A      0.295102    20A      0.299208  
      21A      0.308025    22A      0.309893    23A      0.317010  
      24A      0.339519    25A      0.348350    26A      0.355147  
      27A      0.389087    28A      0.438009    29A      0.445245  
      30A      0.725101    31A      0.739058    32A      0.760144  
      33A      0.774247    34A      0.787869    35A      0.849846  
      36A      0.943876    37A      0.950489    38A      1.047613  
      39A      1.073782    40A      1.113962    41A      1.122737  
      42A      1.124466    43A      1.163668    44A      1.168145  
      45A      1.177932    46A      1.207896    47A      1.256492  
      48A      1.257900    49A      1.264919    50A      1.268805  
      51A      1.304444    52A      1.598811    53A      1.680126  
      54A      1.687971    55A      1.727948    56A      1.744950  
      57A      2.069830    58A      2.214837    59A      2.225359  
      60A      2.256808    61A      2.350132    62A      2.376238  
      63A      2.432183    64A      2.455868    65A      2.497604  
      66A      2.567795    67A      2.582723    68A      2.600171  
      69A      2.622148    70A      2.866346    71A      2.977962  
      72A      2.979713    73A      3.150416    74A      3.156350  
      75A      4.460320    76A      4.687193    77A      4.690920  
      78A      4.784233  

    Final Occupation by Irrep:
              A 
    DOCC [    17 ]

  Energy converged.

  @DF-RHF Final Energy:  -173.26800279890455

   => Energetics <=

    Nuclear Repulsion Energy =            139.2946893713091754
    One-Electron Energy =                -509.0421499772788820
    Two-Electron Energy =                 196.4794578070652449
    DFT Exchange-Correlation Energy =       0.0000000000000000
    Empirical Dispersion Energy =           0.0000000000000000
    PCM Polarization Energy =               0.0000000000000000
    EFP Energy =                            0.0000000000000000
    Total Energy =                       -173.2680027989044618

    Alert: EFP and PCM quantities not currently incorporated into SCF psivars.

Properties will be evaluated at   0.000000,   0.000000,   0.000000 Bohr
  ==> Properties <==


Properties computed using the SCF density matrix

  Nuclear Dipole Moment: (a.u.)
     X:     0.4096      Y:    -0.0904      Z:     1.5092

  Electronic Dipole Moment: (a.u.)
     X:    -0.3173      Y:     0.0720      Z:    -1.2228

  Dipole Moment: (a.u.)
     X:     0.0923      Y:    -0.0184      Z:     0.2864     Total:     0.3015

  Dipole Moment: (Debye)
     X:     0.2346      Y:    -0.0467      Z:     0.7280     Total:     0.7663


  Saving occupied orbitals to File 180.

*** tstop() called on cx1-3-1-3.cx1.hpc.ic.ac.uk at Tue Jul  5 16:23:01 2016
Module time:
	user time   =       2.91 seconds =       0.05 minutes
	system time =       0.02 seconds =       0.00 minutes
	total time  =          4 seconds =       0.07 minutes
Total time:
	user time   =       2.91 seconds =       0.05 minutes
	system time =       0.02 seconds =       0.00 minutes
	total time  =          4 seconds =       0.07 minutes


Properties will be evaluated at   0.000000,   0.000000,   0.000000 Bohr

Properties computed using the  density matrix

  Nuclear Dipole Moment: (a.u.)
     X:     0.4096      Y:    -0.0904      Z:     1.5092

  Electronic Dipole Moment: (a.u.)
     X:    -0.3173      Y:     0.0720      Z:    -1.2228

  Dipole Moment: (a.u.)
     X:     0.0923      Y:    -0.0184      Z:     0.2864     Total:     0.3015

  Dipole Moment: (Debye)
     X:     0.2346      Y:    -0.0467      Z:     0.7280     Total:     0.7663

  Quadrupole Moment: (Debye Ang)
    XX:   -26.3537     YY:   -26.2622     ZZ:   -29.3779
    XY:     0.1563     XZ:    -0.7991     YZ:     0.1795

  Traceless Quadrupole Moment: (Debye Ang)
    XX:     0.9776     YY:     1.0690     ZZ:    -2.0466
    XY:     0.1563     XZ:    -0.7991     YZ:     0.1795

  Mulliken Charges: (a.u.)
   Center  Symbol    Alpha    Beta     Spin     Total
       1     H     0.41563  0.41563  0.00000  0.16874
       2     C     3.14307  3.14307  0.00000 -0.28613
       3     N     3.76580  3.76580  0.00000 -0.53159
       4     H     0.41820  0.41820  0.00000  0.16360
       5     H     0.43404  0.43404  0.00000  0.13193
       6     C     3.14300  3.14300  0.00000 -0.28601
       7     C     3.14316  3.14316  0.00000 -0.28632
       8     H     0.41711  0.41711  0.00000  0.16577
       9     H     0.41662  0.41662  0.00000  0.16677
      10     H     0.43545  0.43545  0.00000  0.12909
      11     H     0.41648  0.41648  0.00000  0.16705
      12     H     0.41668  0.41668  0.00000  0.16663
      13     H     0.43476  0.43476  0.00000  0.13048

   Total alpha = 17.00000, Total beta = 17.00000, Total charge = -0.00000


*** PSI4 exiting successfully. Buy a developer a beer!
