    -----------------------------------------------------------------------
          Psi4: An Open-Source Ab Initio Electronic Structure Package
                              Psi4 (no tag) Driver

                          Git: Rev {detached?}  

    J. M. Turney, A. C. Simmonett, R. M. Parrish, E. G. Hohenstein,
    F. A. Evangelista, J. T. Fermann, B. J. Mintz, L. A. Burns, J. J. Wilke,
    M. L. Abrams, N. J. Russ, M. L. Leininger, C. L. Janssen, E. T. Seidl,
    W. D. Allen, H. F. Schaefer, R. A. King, E. F. Valeev, C. D. Sherrill,
    and T. D. Crawford, WIREs Comput. Mol. Sci. 2, 556-565 (2012)
    (doi: 10.1002/wcms.93)

                         Additional Contributions by
    A. E. DePrince, M. Saitow, U. Bozkaya, A. Yu. Sokolov
    -----------------------------------------------------------------------


    Psi4 started on: Tue Jul  5 16:44:20 2016

    Process ID:   7745
    PSI4DATADIR: /export131/home/mjharvey/miniconda3/share
    Memory level set to 256.000 MB

  ==> Input File <==

--------------------------------------------------------------------------
set {
	reference rhf
	basis 6-31G*
}


set_num_threads( 1 )
memory 2 gb

molecule MOL {
0 1

H	 -3.161837	 0.500524	 -0.000234
C	 -2.367097	 -0.232926	 -0.000000
O	 -1.158440	 0.455814	 -0.000122
H	 -2.468853	 -0.861886	 -0.882833
H	 -2.468942	 -0.861421	 0.883154
C	 -1.058687	 1.440634	 0.983775
C	 -0.933176	 0.767992	 2.339673
H	 -1.938669	 2.084837	 0.960682
H	 -0.191490	 2.074519	 0.793858
C	 -2.249034	 0.149041	 2.809034
H	 -0.162230	 0.006252	 2.275989
H	 -0.587403	 1.504363	 3.058629
H	 -2.600469	 -0.609088	 2.114657
H	 -2.130729	 -0.323233	 3.778469
H	 -3.028994	 0.899632	 2.902204

	symmetry c1
}
set optking {
	frozen_dihedral = ("
		6 3 2 4,
		11 7 6 8
	")
}

ee = energy('scf')
oeprop('DIPOLE', 'QUADRUPOLE', 'MULLIKEN_CHARGES')
f=open( 'psi4out.xyz', 'w' )
f.write( "15  " )
f.write( str(ee) + "\n" )
f.write( MOL.save_string_xyz() )
f.close()
--------------------------------------------------------------------------

  Memory set to   2.000 GiB by Python script.

*** tstart() called on cx1-3-16-3.cx1.hpc.ic.ac.uk
*** at Tue Jul  5 16:44:21 2016


         ---------------------------------------------------------
                                   SCF
            by Justin Turney, Rob Parrish, and Andy Simmonett
                              RHF Reference
                        1 Threads,   2000 MiB Core
         ---------------------------------------------------------

  ==> Geometry <==

    Molecular point group: c1
    Full point group: C1

    Geometry (in Angstrom), charge = 0, multiplicity = 1:

       Center              X                  Y                   Z               Mass       
    ------------   -----------------  -----------------  -----------------  -----------------
           H         -1.586214693566    -0.002176818018    -1.209804361972     1.007825032070
           C         -0.791474693566    -0.735626818018    -1.209570361972    12.000000000000
           O          0.417182306434    -0.046886818018    -1.209692361972    15.994914619560
           H         -0.893230693566    -1.364586818018    -2.092403361972     1.007825032070
           H         -0.893319693566    -1.364121818018    -0.326416361972     1.007825032070
           C          0.516935306434     0.937933181982    -0.225795361972    12.000000000000
           C          0.642446306434     0.265291181982     1.130102638028    12.000000000000
           H         -0.363046693566     1.582136181982    -0.248888361972     1.007825032070
           H          1.384132306434     1.571818181982    -0.415712361972     1.007825032070
           C         -0.673411693566    -0.353659818018     1.599463638028    12.000000000000
           H          1.413392306434    -0.496448818018     1.066418638028     1.007825032070
           H          0.988219306434     1.001662181982     1.849058638028     1.007825032070
           H         -1.024846693566    -1.111788818018     0.905086638028     1.007825032070
           H         -0.555106693566    -0.825933818018     2.568898638028     1.007825032070
           H         -1.453371693566     0.396931181982     1.692633638028     1.007825032070

  Running in c1 symmetry.

  Rotational constants: A =      0.24986  B =      0.14009  C =      0.10151 [cm^-1]
  Rotational constants: A =   7490.67071  B =   4199.67536  C =   3043.08840 [MHz]
  Nuclear repulsion =  200.306719912834552

  Charge       = 0
  Multiplicity = 1
  Electrons    = 42
  Nalpha       = 21
  Nbeta        = 21

  ==> Algorithm <==

  SCF Algorithm Type is DF.
  DIIS enabled.
  MOM disabled.
  Fractional occupation disabled.
  Guess Type is CORE.
  Energy threshold   = 1.00e-06
  Density threshold  = 1.00e-06
  Integral threshold = 0.00e+00

  ==> Primary Basis <==

  Basis Set: 6-31G*
    Number of shells: 50
    Number of basis function: 95
    Number of Cartesian functions: 95
    Spherical Harmonics?: false
    Max angular momentum: 2

  ==> Pre-Iterations <==

   -------------------------------------------------------
    Irrep   Nso     Nmo     Nalpha   Nbeta   Ndocc  Nsocc
   -------------------------------------------------------
     A         95      95       0       0       0       0
   -------------------------------------------------------
    Total      95      95      21      21      21       0
   -------------------------------------------------------

 OEINTS: Overlap, kinetic, potential, dipole, and quadrupole integrals
         stored in file 35.

  ==> Integral Setup <==

  ==> DFJK: Density-Fitted J/K Matrices <==

    J tasked:                  Yes
    K tasked:                  Yes
    wK tasked:                  No
    OpenMP threads:              1
    Integrals threads:           1
    Memory (MB):              1430
    Algorithm:                Core
    Integral Cache:           NONE
    Schwarz Cutoff:          1E-12
    Fitting Condition:       1E-12

   => Auxiliary Basis Set <=

  Basis Set: 
    Number of shells: 210
    Number of basis function: 655
    Number of Cartesian functions: 655
    Spherical Harmonics?: false
    Max angular momentum: 3

  Minimum eigenvalue in the overlap matrix is 4.8645047693E-03.
  Using Symmetric Orthogonalization.
  SCF Guess: Core (One-Electron) Hamiltonian.

  ==> Iterations <==

                           Total Energy        Delta E     RMS |[F,P]|

   @DF-RHF iter   1:  -183.63436827276152   -1.83634e+02   7.98975e-02 
   @DF-RHF iter   2:  -156.45168088806750    2.71827e+01   6.63925e-02 DIIS
   @DF-RHF iter   3:  -203.33149243997613   -4.68798e+01   5.39667e-02 DIIS
   @DF-RHF iter   4:  -230.47093187595428   -2.71394e+01   1.89991e-02 DIIS
   @DF-RHF iter   5:  -232.02357805791641   -1.55265e+00   4.02002e-03 DIIS
   @DF-RHF iter   6:  -232.09048696636037   -6.69089e-02   1.34534e-03 DIIS
   @DF-RHF iter   7:  -232.09890450151406   -8.41754e-03   4.10880e-04 DIIS
   @DF-RHF iter   8:  -232.09982910789617   -9.24606e-04   1.01523e-04 DIIS
   @DF-RHF iter   9:  -232.09988635921658   -5.72513e-05   3.34253e-05 DIIS
   @DF-RHF iter  10:  -232.09989441063155   -8.05141e-06   8.19395e-06 DIIS
   @DF-RHF iter  11:  -232.09989504975161   -6.39120e-07   2.32446e-06 DIIS
   @DF-RHF iter  12:  -232.09989508862796   -3.88764e-08   5.24933e-07 DIIS

  ==> Post-Iterations <==

    Orbital Energies (a.u.)
    -----------------------

    Doubly Occupied:                                                      

       1A    -20.551000     2A    -11.267758     3A    -11.258651  
       4A    -11.215588     5A    -11.207796     6A     -1.379490  
       7A     -1.054498     8A     -0.974109     9A     -0.875840  
      10A     -0.810216    11A     -0.693728    12A     -0.663933  
      13A     -0.632995    14A     -0.582729    15A     -0.559400  
      16A     -0.547798    17A     -0.543036    18A     -0.486719  
      19A     -0.478427    20A     -0.453408    21A     -0.393101  

    Virtual:                                                              

      22A      0.238174    23A      0.266386    24A      0.277023  
      25A      0.300461    26A      0.308156    27A      0.315689  
      28A      0.327213    29A      0.332436    30A      0.349666  
      31A      0.363403    32A      0.400213    33A      0.436095  
      34A      0.457332    35A      0.511334    36A      0.707422  
      37A      0.720831    38A      0.763778    39A      0.772288  
      40A      0.793540    41A      0.818674    42A      0.831169  
      43A      0.900502    44A      0.952482    45A      0.975669  
      46A      1.045928    47A      1.081568    48A      1.112404  
      49A      1.132588    50A      1.147308    51A      1.157258  
      52A      1.194786    53A      1.199608    54A      1.210532  
      55A      1.216789    56A      1.243783    57A      1.275210  
      58A      1.295041    59A      1.312950    60A      1.428082  
      61A      1.494233    62A      1.553605    63A      1.641384  
      64A      1.732401    65A      1.753092    66A      1.771782  
      67A      1.895331    68A      1.960961    69A      1.981223  
      70A      2.059971    71A      2.208757    72A      2.230868  
      73A      2.280549    74A      2.319102    75A      2.381534  
      76A      2.443768    77A      2.471874    78A      2.506423  
      79A      2.578911    80A      2.580628    81A      2.626022  
      82A      2.708813    83A      2.729549    84A      2.753830  
      85A      2.850652    86A      2.927982    87A      2.982648  
      88A      3.069246    89A      3.136199    90A      3.306541  
      91A      4.416539    92A      4.608183    93A      4.670591  
      94A      4.821571    95A      4.947979  

    Final Occupation by Irrep:
              A 
    DOCC [    21 ]

  Energy converged.

  @DF-RHF Final Energy:  -232.09989508862796

   => Energetics <=

    Nuclear Repulsion Energy =            200.3067199128345521
    One-Electron Energy =                -711.5529705146379911
    Two-Electron Energy =                 279.1463555131754788
    DFT Exchange-Correlation Energy =       0.0000000000000000
    Empirical Dispersion Energy =           0.0000000000000000
    PCM Polarization Energy =               0.0000000000000000
    EFP Energy =                            0.0000000000000000
    Total Energy =                       -232.0998950886279886

    Alert: EFP and PCM quantities not currently incorporated into SCF psivars.

Properties will be evaluated at   0.000000,   0.000000,   0.000000 Bohr
  ==> Properties <==


Properties computed using the SCF density matrix

  Nuclear Dipole Moment: (a.u.)
     X:    -2.7948      Y:    -0.5744      Z:     3.5461

  Electronic Dipole Moment: (a.u.)
     X:     2.3986      Y:     0.6548      Z:    -3.1368

  Dipole Moment: (a.u.)
     X:    -0.3962      Y:     0.0803      Z:     0.4094     Total:     0.5754

  Dipole Moment: (Debye)
     X:    -1.0071      Y:     0.2042      Z:     1.0405     Total:     1.4624


  Saving occupied orbitals to File 180.

*** tstop() called on cx1-3-16-3.cx1.hpc.ic.ac.uk at Tue Jul  5 16:44:26 2016
Module time:
	user time   =       4.74 seconds =       0.08 minutes
	system time =       0.04 seconds =       0.00 minutes
	total time  =          5 seconds =       0.08 minutes
Total time:
	user time   =       4.74 seconds =       0.08 minutes
	system time =       0.04 seconds =       0.00 minutes
	total time  =          5 seconds =       0.08 minutes


Properties will be evaluated at   0.000000,   0.000000,   0.000000 Bohr

Properties computed using the  density matrix

  Nuclear Dipole Moment: (a.u.)
     X:    -2.7948      Y:    -0.5744      Z:     3.5461

  Electronic Dipole Moment: (a.u.)
     X:     2.3986      Y:     0.6548      Z:    -3.1368

  Dipole Moment: (a.u.)
     X:    -0.3962      Y:     0.0803      Z:     0.4094     Total:     0.5754

  Dipole Moment: (Debye)
     X:    -1.0071      Y:     0.2042      Z:     1.0405     Total:     1.4624

  Quadrupole Moment: (Debye Ang)
    XX:   -33.1185     YY:   -31.6129     ZZ:   -35.7762
    XY:     1.2903     XZ:     2.3927     YZ:     0.6495

  Traceless Quadrupole Moment: (Debye Ang)
    XX:     0.3841     YY:     1.8896     ZZ:    -2.2737
    XY:     1.2903     XZ:     2.3927     YZ:     0.6495

  Mulliken Charges: (a.u.)
   Center  Symbol    Alpha    Beta     Spin     Total
       1     H     0.43087  0.43087  0.00000  0.13827
       2     C     3.07786  3.07786  0.00000 -0.15573
       3     O     4.30276  4.30276  0.00000 -0.60551
       4     H     0.41321  0.41321  0.00000  0.17359
       5     H     0.43030  0.43030  0.00000  0.13939
       6     C     2.99920  2.99920  0.00000  0.00160
       7     C     3.16394  3.16394  0.00000 -0.32788
       8     H     0.43176  0.43176  0.00000  0.13648
       9     H     0.41312  0.41312  0.00000  0.17376
      10     C     3.24309  3.24309  0.00000 -0.48618
      11     H     0.41211  0.41211  0.00000  0.17578
      12     H     0.42221  0.42221  0.00000  0.15559
      13     H     0.42086  0.42086  0.00000  0.15828
      14     H     0.41759  0.41759  0.00000  0.16483
      15     H     0.42113  0.42113  0.00000  0.15774

   Total alpha = 21.00000, Total beta = 21.00000, Total charge = -0.00000


*** PSI4 exiting successfully. Buy a developer a beer!
